/*--------------------------------*- C++ -*----------------------------------*\
| =========                 |                                                 |
| \\      /  F ield         | foam-extend: Open Source CFD                    |
|  \\    /   O peration     | Version:     4.0                                |
|   \\  /    A nd           | Web:         http://www.foam-extend.org         |
|    \\/     M anipulation  |                                                 |
\*---------------------------------------------------------------------------*/
FoamFile
{
    version 2.0;
    format ascii;
    class volVectorField;
    location "1099";
    object      H;
}
// * * * * * * * * * * * * * * * * * * * * * * * * * * * * * * * * * * * * * //

dimensions      [0 1 -1 0 0 0 0];

internalField   nonuniform List<vector>
4096
(
(0,0,0)
(0,0,0)
(0,0,0)
(0,0,0)
(0,0,0)
(0,0,0)
(0,0,0)
(0,0,0)
(0,0,0)
(0,0,0)
(0,0,0)
(0,0,0)
(0,0,0)
(0,0,0)
(0,0,0)
(0,0,0)
(0,0,0)
(0,0,0)
(0,0,0)
(0,0,0)
(0,0,0)
(0,0,0)
(0,0,0)
(0,0,0)
(0,0,0)
(0,0,0)
(0,0,0)
(0,0,0)
(0,0,0)
(0,0,0)
(0,0,0)
(0,0,0)
(0,0,0)
(0,0,0)
(0,0,0)
(0,0,0)
(0,0,0)
(0,0,0)
(0,0,0)
(0,0,0)
(0,0,0)
(0,0,0)
(0,0,0)
(0,0,0)
(0,0,0)
(0,0,0)
(0,0,0)
(0,0,0)
(0,0,0)
(0,0,0)
(0,0,0)
(0,0,0)
(0,0,0)
(0,0,0)
(0,0,0)
(0,0,0)
(0,0,0)
(0,0,0)
(0,0,0)
(0,0,0)
(0,0,0)
(0,0,0)
(0,0,0)
(0,0,0)
(0,0,0)
(0,0,0)
(0,0,0)
(0,0,0)
(0,0,0)
(0,0,0)
(0,0,0)
(0,0,0)
(0,0,0)
(0,0,0)
(0,0,0)
(0,0,0)
(0,0,0)
(0,0,0)
(0,0,0)
(0,0,0)
(0,0,0)
(0,0,0)
(0,0,0)
(0,0,0)
(0,0,0)
(0,0,0)
(0,0,0)
(0,0,0)
(0,0,0)
(0,0,0)
(0,0,0)
(0,0,0)
(0,0,0)
(0,0,0)
(0,0,0)
(0,0,0)
(0,0,0)
(0,0,0)
(0,0,0)
(0,0,0)
(0,0,0)
(0,0,0)
(0,0,0)
(0,0,0)
(0,0,0)
(0,0,0)
(0,0,0)
(0,0,0)
(0,0,0)
(0,0,0)
(0,0,0)
(0,0,0)
(0,0,0)
(0,0,0)
(0,0,0)
(0,0,0)
(0,0,0)
(0,0,0)
(0,0,0)
(0,0,0)
(0,0,0)
(0,0,0)
(0,0,0)
(0,0,0)
(0,0,0)
(0,0,0)
(0,0,0)
(0,0,0)
(0,0,0)
(0,0,0)
(0,0,0)
(0,0,0)
(0,0,0)
(0,0,0)
(0,0,0)
(0,0,0)
(0,0,0)
(0,0,0)
(0,0,0)
(0,0,0)
(0,0,0)
(0,0,0)
(0,0,0)
(0,0,0)
(0,0,0)
(0,0,0)
(0,0,0)
(0,0,0)
(0,0,0)
(0,0,0)
(0,0,0)
(0,0,0)
(0,0,0)
(0,0,0)
(0,0,0)
(0,0,0)
(0,0,0)
(0,0,0)
(0,0,0)
(0,0,0)
(0,0,0)
(0,0,0)
(0,0,0)
(0,0,0)
(0,0,0)
(0,0,0)
(0,0,0)
(0,0,0)
(0,0,0)
(0,0,0)
(0,0,0)
(0,0,0)
(0,0,0)
(0,0,0)
(0,0,0)
(0,0,0)
(0,0,0)
(0,0,0)
(0,0,0)
(0,0,0)
(0,0,0)
(0,0,0)
(0,0,0)
(0,0,0)
(0,0,0)
(0,0,0)
(0,0,0)
(0,0,0)
(0,0,0)
(0,0,0)
(0,0,0)
(0,0,0)
(0,0,0)
(0,0,0)
(0,0,0)
(0,0,0)
(0,0,0)
(0,0,0)
(0,0,0)
(0,0,0)
(0,0,0)
(0,0,0)
(0,0,0)
(0,0,0)
(0,0,0)
(0,0,0)
(0,0,0)
(0,0,0)
(0,0,0)
(0,0,0)
(0,0,0)
(0,0,0)
(0,0,0)
(0,0,0)
(0,0,0)
(0,0,0)
(0,0,0)
(0,0,0)
(0,0,0)
(0,0,0)
(0,0,0)
(0,0,0)
(0,0,0)
(0,0,0)
(0,0,0)
(0,0,0)
(0,0,0)
(0,0,0)
(0,0,0)
(0,0,0)
(0,0,0)
(0,0,0)
(0,0,0)
(0,0,0)
(0,0,0)
(0,0,0)
(0,0,0)
(0,0,0)
(0,0,0)
(0,0,0)
(0,0,0)
(0,0,0)
(0,0,0)
(0,0,0)
(0,0,0)
(0,0,0)
(0,0,0)
(0,0,0)
(0,0,0)
(0,0,0)
(0,0,0)
(0,0,0)
(0,0,0)
(0,0,0)
(0,0,0)
(0,0,0)
(0,0,0)
(0,0,0)
(0,0,0)
(0,0,0)
(0,0,0)
(0,0,0)
(0,0,0)
(0,0,0)
(0,0,0)
(0,0,0)
(0,0,0)
(0,0,0)
(0,0,0)
(0,0,0)
(0,0,0)
(0,0,0)
(0,0,0)
(0,0,0)
(0,0,0)
(0,0,0)
(0,0,0)
(0,0,0)
(0,0,0)
(0,0,0)
(0,0,0)
(0,0,0)
(0,0,0)
(0,0,0)
(0,0,0)
(0,0,0)
(0,0,0)
(0,0,0)
(0,0,0)
(0,0,0)
(0,0,0)
(0,0,0)
(0,0,0)
(0,0,0)
(0,0,0)
(0,0,0)
(0,0,0)
(0,0,0)
(0,0,0)
(0,0,0)
(0,0,0)
(0,0,0)
(0,0,0)
(0,0,0)
(0,0,0)
(0,0,0)
(0,0,0)
(0,0,0)
(0,0,0)
(0,0,0)
(0,0,0)
(0,0,0)
(0,0,0)
(0,0,0)
(0,0,0)
(0,0,0)
(0,0,0)
(0,0,0)
(0,0,0)
(0,0,0)
(0,0,0)
(0,0,0)
(0,0,0)
(0,0,0)
(0,0,0)
(0,0,0)
(0,0,0)
(0,0,0)
(0,0,0)
(0,0,0)
(0,0,0)
(0,0,0)
(0,0,0)
(0,0,0)
(0,0,0)
(0,0,0)
(0,0,0)
(0,0,0)
(0,0,0)
(0,0,0)
(0,0,0)
(0,0,0)
(0,0,0)
(0,0,0)
(0,0,0)
(0,0,0)
(0,0,0)
(0,0,0)
(0,0,0)
(0,0,0)
(0,0,0)
(0,0,0)
(0,0,0)
(0,0,0)
(0,0,0)
(0,0,0)
(0,0,0)
(0,0,0)
(0,0,0)
(0,0,0)
(0,0,0)
(0,0,0)
(0,0,0)
(0,0,0)
(0,0,0)
(0,0,0)
(0,0,0)
(0,0,0)
(0,0,0)
(0,0,0)
(0,0,0)
(0,0,0)
(0,0,0)
(0,0,0)
(0,0,0)
(0,0,0)
(0,0,0)
(0,0,0)
(0,0,0)
(0,0,0)
(0,0,0)
(0,0,0)
(0,0,0)
(0,0,0)
(0,0,0)
(0,0,0)
(0,0,0)
(0,0,0)
(0,0,0)
(0,0,0)
(0,0,0)
(0,0,0)
(0,0,0)
(0,0,0)
(0,0,0)
(0,0,0)
(0,0,0)
(0,0,0)
(0,0,0)
(0,0,0)
(0,0,0)
(0,0,0)
(0,0,0)
(0,0,0)
(0,0,0)
(0,0,0)
(0,0,0)
(0,0,0)
(0,0,0)
(0,0,0)
(0,0,0)
(0,0,0)
(0,0,0)
(0,0,0)
(0,0,0)
(0,0,0)
(0,0,0)
(0,0,0)
(0,0,0)
(0,0,0)
(0,0,0)
(0,0,0)
(0,0,0)
(0,0,0)
(0,0,0)
(0,0,0)
(0,0,0)
(0,0,0)
(0,0,0)
(0,0,0)
(0,0,0)
(0,0,0)
(0,0,0)
(0,0,0)
(0,0,0)
(0,0,0)
(0,0,0)
(0,0,0)
(0,0,0)
(0,0,0)
(0,0,0)
(0,0,0)
(0,0,0)
(0,0,0)
(0,0,0)
(0,0,0)
(0,0,0)
(0,0,0)
(0,0,0)
(0,0,0)
(0,0,0)
(0,0,0)
(0,0,0)
(0,0,0)
(0,0,0)
(0,0,0)
(0,0,0)
(0,0,0)
(0,0,0)
(0,0,0)
(0,0,0)
(0,0,0)
(0,0,0)
(0,0,0)
(0,0,0)
(0,0,0)
(0,0,0)
(0,0,0)
(0,0,0)
(0,0,0)
(0,0,0)
(0,0,0)
(0,0,0)
(0,0,0)
(0,0,0)
(0,0,0)
(0,0,0)
(0,0,0)
(0,0,0)
(0,0,0)
(0,0,0)
(0,0,0)
(0,0,0)
(0,0,0)
(0,0,0)
(0,0,0)
(0,0,0)
(0,0,0)
(0,0,0)
(0,0,0)
(0,0,0)
(0,0,0)
(0,0,0)
(0,0,0)
(0,0,0)
(0,0,0)
(0,0,0)
(0,0,0)
(0,0,0)
(0,0,0)
(0,0,0)
(0,0,0)
(0,0,0)
(0,0,0)
(0,0,0)
(0,0,0)
(0,0,0)
(0,0,0)
(0,0,0)
(0,0,0)
(0,0,0)
(0,0,0)
(0,0,0)
(0,0,0)
(0,0,0)
(0,0,0)
(0,0,0)
(0,0,0)
(0,0,0)
(0,0,0)
(0,0,0)
(0,0,0)
(0,0,0)
(0,0,0)
(0,0,0)
(0,0,0)
(0,0,0)
(0,0,0)
(0,0,0)
(0,0,0)
(0,0,0)
(0,0,0)
(0,0,0)
(0,0,0)
(0,0,0)
(0,0,0)
(0,0,0)
(0,0,0)
(0,0,0)
(0,0,0)
(0,0,0)
(0,0,0)
(0,0,0)
(0,0,0)
(0,0,0)
(0,0,0)
(0,0,0)
(0,0,0)
(0,0,0)
(0,0,0)
(0,0,0)
(0,0,0)
(0,0,0)
(0,0,0)
(0,0,0)
(0,0,0)
(0,0,0)
(0,0,0)
(0,0,0)
(0,0,0)
(0,0,0)
(0,0,0)
(0,0,0)
(0,0,0)
(0,0,0)
(0,0,0)
(0,0,0)
(0,0,0)
(0,0,0)
(0,0,0)
(0,0,0)
(0,0,0)
(0,0,0)
(0,0,0)
(0,0,0)
(0,0,0)
(0,0,0)
(0,0,0)
(0,0,0)
(0,0,0)
(0,0,0)
(0,0,0)
(0,0,0)
(0,0,0)
(0,0,0)
(0,0,0)
(0,0,0)
(0,0,0)
(0,0,0)
(0,0,0)
(0,0,0)
(0,0,0)
(0,0,0)
(0,0,0)
(0,0,0)
(0,0,0)
(0,0,0)
(0,0,0)
(0,0,0)
(0,0,0)
(0,0,0)
(0,0,0)
(0,0,0)
(0,0,0)
(0,0,0)
(0,0,0)
(0,0,0)
(0,0,0)
(0,0,0)
(0,0,0)
(0,0,0)
(0,0,0)
(0,0,0)
(0,0,0)
(0,0,0)
(0,0,0)
(0,0,0)
(0,0,0)
(0,0,0)
(0,0,0)
(0,0,0)
(0,0,0)
(0,0,0)
(0,0,0)
(0,0,0)
(0,0,0)
(0,0,0)
(0,0,0)
(0,0,0)
(0,0,0)
(0,0,0)
(0,0,0)
(0,0,0)
(0,0,0)
(0,0,0)
(0,0,0)
(0,0,0)
(0,0,0)
(0,0,0)
(0,0,0)
(0,0,0)
(0,0,0)
(0,0,0)
(0,0,0)
(0,0,0)
(0,0,0)
(0,0,0)
(0,0,0)
(0,0,0)
(0,0,0)
(0,0,0)
(0,0,0)
(0,0,0)
(0,0,0)
(0,0,0)
(0,0,0)
(0,0,0)
(0,0,0)
(0,0,0)
(0,0,0)
(0,0,0)
(0,0,0)
(0,0,0)
(0,0,0)
(0,0,0)
(0,0,0)
(0,0,0)
(0,0,0)
(0,0,0)
(0,0,0)
(0,0,0)
(0,0,0)
(0,0,0)
(0,0,0)
(0,0,0)
(0,0,0)
(0,0,0)
(0,0,0)
(0,0,0)
(0,0,0)
(0,0,0)
(0,0,0)
(0,0,0)
(0,0,0)
(0,0,0)
(0,0,0)
(0,0,0)
(0,0,0)
(0,0,0)
(0,0,0)
(0,0,0)
(0,0,0)
(0,0,0)
(0,0,0)
(0,0,0)
(0,0,0)
(0,0,0)
(0,0,0)
(0,0,0)
(0,0,0)
(0,0,0)
(0,0,0)
(0,0,0)
(0,0,0)
(0,0,0)
(0,0,0)
(0,0,0)
(0,0,0)
(0,0,0)
(0,0,0)
(0,0,0)
(0,0,0)
(0,0,0)
(0,0,0)
(0,0,0)
(0,0,0)
(0,0,0)
(0,0,0)
(0,0,0)
(0,0,0)
(0,0,0)
(0,0,0)
(0,0,0)
(0,0,0)
(0,0,0)
(0,0,0)
(0,0,0)
(0,0,0)
(0,0,0)
(0,0,0)
(0,0,0)
(0,0,0)
(0,0,0)
(0,0,0)
(0,0,0)
(0,0,0)
(0,0,0)
(0,0,0)
(0,0,0)
(0,0,0)
(0,0,0)
(0,0,0)
(0,0,0)
(0,0,0)
(0,0,0)
(0,0,0)
(0,0,0)
(0,0,0)
(0,0,0)
(0,0,0)
(0,0,0)
(0,0,0)
(0,0,0)
(0,0,0)
(0,0,0)
(0,0,0)
(0,0,0)
(0,0,0)
(0,0,0)
(0,0,0)
(0,0,0)
(0,0,0)
(0,0,0)
(0,0,0)
(0,0,0)
(0,0,0)
(0,0,0)
(0,0,0)
(0,0,0)
(0,0,0)
(0,0,0)
(0,0,0)
(0,0,0)
(0,0,0)
(0,0,0)
(0,0,0)
(0,0,0)
(0,0,0)
(0,0,0)
(0,0,0)
(0,0,0)
(0,0,0)
(0,0,0)
(0,0,0)
(0,0,0)
(0,0,0)
(0,0,0)
(0,0,0)
(0,0,0)
(0,0,0)
(0,0,0)
(0,0,0)
(0,0,0)
(0,0,0)
(0,0,0)
(0,0,0)
(0,0,0)
(0,0,0)
(0,0,0)
(0,0,0)
(0,0,0)
(0,0,0)
(0,0,0)
(0,0,0)
(0,0,0)
(0,0,0)
(0,0,0)
(0,0,0)
(0,0,0)
(0,0,0)
(0,0,0)
(0,0,0)
(0,0,0)
(0,0,0)
(0,0,0)
(0,0,0)
(0,0,0)
(0,0,0)
(0,0,0)
(-8.78558495070254e-13,4.41065403866919e-12,-5.71520806985661e-12)
(-1.12508103568524e-12,9.95491136875059e-12,-5.75235293941222e-12)
(-1.28486107658808e-12,1.72806016155523e-11,-5.3706068421346e-12)
(-1.44473987606261e-12,2.80581861707317e-11,-4.65309150932673e-12)
(-2.4583670124204e-12,4.37204195733115e-11,-3.30926989818712e-12)
(-3.56417409362422e-12,6.80131829978119e-11,-1.92958482161521e-12)
(-4.03263269034447e-12,1.08343636134012e-10,-9.61084464268762e-13)
(-4.48348316128387e-12,1.75159260135041e-10,-4.19912983055887e-13)
(-5.56875800124019e-12,2.86288566704012e-10,-1.86711989860013e-13)
(-7.22880939315552e-12,4.41363715927197e-10,1.00106185564749e-13)
(0,0,0)
(0,0,0)
(0,0,0)
(0,0,0)
(0,0,0)
(0,0,0)
(-7.97158498920779e-13,4.27673628299896e-12,-1.1364112308542e-11)
(-9.94573471181215e-13,9.39902109585337e-12,-1.12211990375551e-11)
(-1.65532785074981e-12,1.64824445312303e-11,-1.0454172845838e-11)
(-2.82951281865283e-12,2.71752447663105e-11,-9.16678993040318e-12)
(-4.75370544374274e-12,4.28137454761974e-11,-7.06210186284689e-12)
(-6.7920379421927e-12,6.7566492761789e-11,-4.82825012363751e-12)
(-7.82843805029909e-12,1.08539067903796e-10,-2.97539240694117e-12)
(-8.81398770174565e-12,1.75623211027407e-10,-1.60944592753799e-12)
(-1.00312518787098e-11,2.86541774077983e-10,-9.82906685944935e-13)
(-1.20946925954715e-11,4.41829572850795e-10,-5.81295112489428e-13)
(0,0,0)
(0,0,0)
(0,0,0)
(0,0,0)
(0,0,0)
(0,0,0)
(-1.20843601887824e-12,4.06320664455273e-12,-1.80179922744297e-11)
(-5.79789373638136e-13,8.74047056256058e-12,-1.79419597849753e-11)
(-1.52510137203277e-13,1.51244303164278e-11,-1.70679447491301e-11)
(-1.07593609030154e-12,2.52375590054622e-11,-1.57008418996548e-11)
(-3.36640296277553e-12,4.06148282369183e-11,-1.32182477113952e-11)
(-6.0749804916091e-12,6.55198196280031e-11,-1.00526364922567e-11)
(-8.99122849015122e-12,1.07500623324323e-10,-7.14521960122482e-12)
(-1.19132838974596e-11,1.7564678558205e-10,-4.87744864157407e-12)
(-1.39127603906336e-11,2.86906399827759e-10,-2.98896248349738e-12)
(-1.5732010510217e-11,4.41891749618449e-10,-1.56514341956427e-12)
(0,0,0)
(0,0,0)
(0,0,0)
(0,0,0)
(0,0,0)
(0,0,0)
(-1.34287792880895e-12,3.57410550163472e-12,-2.80388486250798e-11)
(-2.22832642765102e-13,7.84399509948459e-12,-2.80614668438538e-11)
(8.89728343710466e-13,1.37450348017547e-11,-2.7343252952965e-11)
(5.01947876205402e-13,2.2950790146716e-11,-2.5986390715006e-11)
(-1.65404876539555e-12,3.76465259072841e-11,-2.31368318019909e-11)
(-4.69175772374486e-12,6.21257868943977e-11,-1.9165194823583e-11)
(-8.45772244426825e-12,1.04900127325601e-10,-1.5212987082857e-11)
(-1.23012016428938e-11,1.74153696776219e-10,-1.13696414041911e-11)
(-1.54243593948144e-11,2.8629904404394e-10,-7.73997857507582e-12)
(-1.68252402460498e-11,4.41177743627476e-10,-4.08354047953898e-12)
(0,0,0)
(0,0,0)
(0,0,0)
(0,0,0)
(0,0,0)
(0,0,0)
(-3.24281961707091e-13,3.11289227116761e-12,-4.30304532482536e-11)
(8.56256557083479e-13,6.94697661856257e-12,-4.30809336073505e-11)
(1.76682832261548e-12,1.21291510333226e-11,-4.27180033158046e-11)
(1.6187480752571e-12,1.96066317314633e-11,-4.20066700417845e-11)
(1.90203843948761e-13,3.31039133851301e-11,-3.99203501899979e-11)
(-3.16882337846228e-12,5.70416351070187e-11,-3.60526543822305e-11)
(-8.05349553141393e-12,1.00408252545698e-10,-3.14970989506586e-11)
(-1.10110401754065e-11,1.71272985101649e-10,-2.50007569856739e-11)
(-1.27132555838055e-11,2.83430947528603e-10,-1.76571295697906e-11)
(-1.36291290163002e-11,4.37776692905421e-10,-9.18605578979324e-12)
(0,0,0)
(0,0,0)
(0,0,0)
(0,0,0)
(0,0,0)
(0,0,0)
(3.15163226837498e-13,2.63595296025128e-12,-6.73654847233751e-11)
(1.75157888363904e-12,5.96698973221953e-12,-6.73076521709152e-11)
(2.24426165915803e-12,1.0498013699769e-11,-6.6992971634073e-11)
(2.0296067029203e-12,1.63719241303299e-11,-6.65303117810553e-11)
(3.91784457585707e-13,2.80425371312893e-11,-6.49862446918057e-11)
(-3.56609883208126e-12,5.11011044196001e-11,-6.1361610027984e-11)
(-7.7452914298298e-12,9.45662984272335e-11,-5.60228626720917e-11)
(-9.08750842273329e-12,1.65359934744507e-10,-4.70967732766177e-11)
(-8.80793865650229e-12,2.7595276688477e-10,-3.42101202519469e-11)
(-9.21591961639854e-12,4.29308345425412e-10,-1.81585381218382e-11)
(0,0,0)
(0,0,0)
(0,0,0)
(0,0,0)
(0,0,0)
(0,0,0)
(5.87280271058384e-13,1.83117626749804e-12,-1.0680096627428e-10)
(1.76832525054286e-12,4.68200316664627e-12,-1.06741680694569e-10)
(1.65713945829572e-12,8.62279081620278e-12,-1.06072590864154e-10)
(1.23237535514541e-12,1.34747717123402e-11,-1.05267881345986e-10)
(-6.27828182364905e-13,2.32762920104842e-11,-1.0379251551899e-10)
(-4.54454786021844e-12,4.45076539405299e-11,-9.99221937467238e-11)
(-7.03095214028744e-12,8.59525197179035e-11,-9.24017988839486e-11)
(-7.03423712890021e-12,1.53417909494649e-10,-8.00793389175882e-11)
(-5.94786369230965e-12,2.60626452495256e-10,-5.97509439836202e-11)
(-5.72934183246547e-12,4.11758019898812e-10,-3.25023337934861e-11)
(0,0,0)
(0,0,0)
(0,0,0)
(0,0,0)
(0,0,0)
(0,0,0)
(9.45125434402934e-13,1.18465699082097e-12,-1.73138046697253e-10)
(1.53376516350898e-12,3.30021033219634e-12,-1.73167637725705e-10)
(5.68670017843474e-13,6.65901251627843e-12,-1.72135980183708e-10)
(-1.92498862268624e-13,1.11541712299059e-11,-1.70561182940213e-10)
(-1.5453350567559e-12,1.96723891336415e-11,-1.6832699473204e-10)
(-4.2735525230687e-12,3.83037642609396e-11,-1.63475465999822e-10)
(-5.89740667781934e-12,7.38245766826472e-11,-1.5365222614169e-10)
(-4.79367669337132e-12,1.33420228823097e-10,-1.35542609247902e-10)
(-3.05590522391198e-12,2.3353127608421e-10,-1.04988898886056e-10)
(-1.90689784590999e-12,3.79369508561202e-10,-5.94961306639647e-11)
(0,0,0)
(0,0,0)
(0,0,0)
(0,0,0)
(0,0,0)
(0,0,0)
(5.27700147399028e-13,1.02643144491032e-12,-2.82886002327111e-10)
(1.38919384290357e-12,2.15504813044531e-12,-2.82861672975278e-10)
(2.7578309172947e-13,4.4464862324556e-12,-2.81741355392264e-10)
(-1.22812909551188e-12,8.11277016925137e-12,-2.79668188478491e-10)
(-2.29661084529527e-12,1.46991394815213e-11,-2.76574699508702e-10)
(-3.93295342855773e-12,2.89803320468356e-11,-2.70214127933033e-10)
(-5.34977767717088e-12,5.53409906833757e-11,-2.57022272279455e-10)
(-4.09966990772964e-12,1.02743620978998e-10,-2.32283423462512e-10)
(-2.34589616826167e-12,1.88063890349228e-10,-1.87873012798251e-10)
(-2.32185951343734e-12,3.20142933370267e-10,-1.12870196547221e-10)
(0,0,0)
(0,0,0)
(0,0,0)
(0,0,0)
(0,0,0)
(0,0,0)
(1.13753758447728e-13,5.28087386947183e-13,-4.35787437542979e-10)
(3.39146576554645e-13,1.12226298099117e-12,-4.35853552868613e-10)
(-5.68470119929493e-13,2.32215308172489e-12,-4.34675734712162e-10)
(-2.45614295937762e-12,4.43779522498015e-12,-4.32162988350574e-10)
(-2.99136698875696e-12,8.01423531608674e-12,-4.28524341145942e-10)
(-3.44999742231828e-12,1.57311057232598e-11,-4.21266390176128e-10)
(-4.24251407153104e-12,3.01549463570201e-11,-4.05831785653394e-10)
(-3.3141680418314e-12,5.81718366104673e-11,-3.75708095040122e-10)
(-1.96022963532603e-12,1.12878772460764e-10,-3.17473445413211e-10)
(-2.31813741036772e-12,2.0666675959823e-10,-2.05182350526009e-10)
(0,0,0)
(0,0,0)
(0,0,0)
(0,0,0)
(0,0,0)
(0,0,0)
(0,0,0)
(0,0,0)
(0,0,0)
(0,0,0)
(0,0,0)
(0,0,0)
(0,0,0)
(0,0,0)
(0,0,0)
(0,0,0)
(0,0,0)
(0,0,0)
(0,0,0)
(0,0,0)
(0,0,0)
(0,0,0)
(0,0,0)
(0,0,0)
(0,0,0)
(0,0,0)
(0,0,0)
(0,0,0)
(0,0,0)
(0,0,0)
(0,0,0)
(0,0,0)
(0,0,0)
(0,0,0)
(0,0,0)
(0,0,0)
(0,0,0)
(0,0,0)
(0,0,0)
(0,0,0)
(0,0,0)
(0,0,0)
(0,0,0)
(0,0,0)
(0,0,0)
(0,0,0)
(0,0,0)
(0,0,0)
(0,0,0)
(0,0,0)
(0,0,0)
(0,0,0)
(0,0,0)
(0,0,0)
(0,0,0)
(0,0,0)
(0,0,0)
(0,0,0)
(0,0,0)
(0,0,0)
(0,0,0)
(0,0,0)
(0,0,0)
(0,0,0)
(0,0,0)
(0,0,0)
(0,0,0)
(0,0,0)
(0,0,0)
(0,0,0)
(0,0,0)
(0,0,0)
(0,0,0)
(0,0,0)
(0,0,0)
(0,0,0)
(0,0,0)
(0,0,0)
(0,0,0)
(0,0,0)
(0,0,0)
(0,0,0)
(0,0,0)
(0,0,0)
(0,0,0)
(0,0,0)
(0,0,0)
(0,0,0)
(0,0,0)
(0,0,0)
(0,0,0)
(0,0,0)
(0,0,0)
(0,0,0)
(0,0,0)
(0,0,0)
(0,0,0)
(0,0,0)
(0,0,0)
(0,0,0)
(0,0,0)
(0,0,0)
(-7.07495869840447e-13,9.33021368449233e-12,-1.08271914159606e-11)
(-9.50936860070174e-13,2.03060206160388e-11,-1.04030875434315e-11)
(-1.20421932507385e-12,3.40208215931228e-11,-9.56720844261536e-12)
(-1.90562008279346e-12,5.33005635706891e-11,-8.31147761644325e-12)
(-2.9313779918806e-12,8.10188793313783e-11,-5.92286313744647e-12)
(-4.08598421488175e-12,1.22535340977588e-10,-3.15019656647609e-12)
(-4.76923594124592e-12,1.91082791130793e-10,-1.58327014737584e-12)
(-5.18063504707117e-12,3.07289935417152e-10,-7.79690206208362e-13)
(-6.10878355075556e-12,5.29689424802577e-10,-2.83620211568254e-13)
(-7.59456013173524e-12,1.03614298004324e-09,3.22514523314478e-14)
(0,0,0)
(0,0,0)
(0,0,0)
(0,0,0)
(0,0,0)
(0,0,0)
(-7.26542131461929e-13,8.90738444964832e-12,-2.06543997433196e-11)
(-1.10304912960041e-12,1.91704539398979e-11,-2.01448235754355e-11)
(-1.5846965513765e-12,3.24525196943352e-11,-1.87713628678873e-11)
(-2.99651512536588e-12,5.11193409146002e-11,-1.60985930666116e-11)
(-4.78863994366248e-12,7.8505980194853e-11,-1.19582490862294e-11)
(-6.59822252508921e-12,1.20931864063418e-10,-7.25363197074926e-12)
(-8.1559399502455e-12,1.9085374235494e-10,-3.59981636136776e-12)
(-9.46410149788853e-12,3.08029867284789e-10,-1.72792077940593e-12)
(-1.0797489201517e-11,5.30403397027015e-10,-9.00077810852315e-13)
(-1.273816447542e-11,1.03654370896967e-09,-5.81602806970151e-13)
(0,0,0)
(0,0,0)
(0,0,0)
(0,0,0)
(0,0,0)
(0,0,0)
(-7.95367365413592e-13,8.42833765309409e-12,-3.28775917388988e-11)
(-5.57328946406555e-13,1.74861917465513e-11,-3.22913127286397e-11)
(-1.40217471997166e-13,2.92986019807024e-11,-3.06592705066125e-11)
(-1.27176141981597e-12,4.70253271763147e-11,-2.74258318697879e-11)
(-3.56371185232895e-12,7.37822397137281e-11,-2.22275630866328e-11)
(-5.58836464908524e-12,1.16637832942824e-10,-1.54780794864757e-11)
(-8.65850345113332e-12,1.89041987699806e-10,-8.85554036715596e-12)
(-1.23086812497118e-11,3.08510916076045e-10,-5.67358309026557e-12)
(-1.47292236708921e-11,5.31503857645398e-10,-3.76898319587125e-12)
(-1.65831479389454e-11,1.03689571883145e-09,-2.17096540356533e-12)
(0,0,0)
(0,0,0)
(0,0,0)
(0,0,0)
(0,0,0)
(0,0,0)
(-8.59046479568624e-13,7.28323957324058e-12,-5.15283392990832e-11)
(-4.40280527317376e-14,1.51624782455386e-11,-5.09282726473273e-11)
(1.14874987417709e-12,2.5717117924863e-11,-4.95500323170986e-11)
(9.96547378445565e-13,4.19364783734158e-11,-4.61930091076104e-11)
(-1.08307322165829e-12,6.69891587359193e-11,-4.00424606874779e-11)
(-3.55981367706654e-12,1.09041313069968e-10,-3.17922279100429e-11)
(-7.80919334307812e-12,1.84627767271434e-10,-2.30777862513267e-11)
(-1.30501527974886e-11,3.07625955679371e-10,-1.74931328407126e-11)
(-1.62127009748099e-11,5.31406262612182e-10,-1.28982350942315e-11)
(-1.75077300034546e-11,1.03621717395134e-09,-7.24790552135295e-12)
(0,0,0)
(0,0,0)
(0,0,0)
(0,0,0)
(0,0,0)
(0,0,0)
(2.03137708305683e-13,6.15023425686994e-12,-7.91442515745144e-11)
(1.47331315187787e-12,1.30275822533586e-11,-7.86093587887805e-11)
(2.6866323821444e-12,2.18591877965298e-11,-7.78218000538094e-11)
(2.76713582460974e-12,3.51569215093769e-11,-7.56405360863641e-11)
(1.38388429004574e-12,5.72170307149556e-11,-7.08858682623703e-11)
(-1.78384812266173e-12,9.68920814911636e-11,-6.40563462945495e-11)
(-8.70788337788633e-12,1.7465031373973e-10,-5.79800387414692e-11)
(-1.244161723409e-11,3.04401302876754e-10,-4.53981501356702e-11)
(-1.37061487199079e-11,5.276574556877e-10,-3.21742710016437e-11)
(-1.4346837326393e-11,1.03092073177349e-09,-1.69852961133756e-11)
(0,0,0)
(0,0,0)
(0,0,0)
(0,0,0)
(0,0,0)
(0,0,0)
(1.06210736713059e-12,5.2850516404638e-12,-1.21363372730725e-10)
(2.72188491237096e-12,1.13222800752239e-11,-1.20870512554873e-10)
(3.65682468970662e-12,1.84394664779168e-11,-1.2023558257652e-10)
(3.38269203165676e-12,2.84274967023185e-11,-1.18809475641697e-10)
(1.53339491457537e-12,4.66890769119074e-11,-1.15717280583515e-10)
(-2.3113957088978e-12,8.40691396481412e-11,-1.10040939561055e-10)
(-8.05760211598457e-12,1.64863801786964e-10,-1.02580479048482e-10)
(-1.00321361975429e-11,2.95061272241668e-10,-8.59920255836081e-11)
(-9.53320639704425e-12,5.15209151791401e-10,-6.18752725745823e-11)
(-9.82413221135035e-12,1.01612386277156e-09,-3.26864616918932e-11)
(0,0,0)
(0,0,0)
(0,0,0)
(0,0,0)
(0,0,0)
(0,0,0)
(1.17451396802491e-12,4.25961965112365e-12,-1.8809474738604e-10)
(2.48102825457596e-12,9.33942158496882e-12,-1.87619260224873e-10)
(2.81620824005256e-12,1.49995672023579e-11,-1.86536785871653e-10)
(2.07761001058339e-12,2.25217335070317e-11,-1.85185130422326e-10)
(-8.94247077784135e-13,3.69542736600671e-11,-1.8345442716419e-10)
(-5.86105304338332e-12,7.04955605224648e-11,-1.78889512219823e-10)
(-7.2254690714303e-12,1.50827998982637e-10,-1.65329720169599e-10)
(-7.36495139127203e-12,2.74914873260484e-10,-1.45807778124149e-10)
(-6.10129747171712e-12,4.88896414646269e-10,-1.0761923423196e-10)
(-5.84316428797194e-12,9.85669288727362e-10,-5.77745751713695e-11)
(0,0,0)
(0,0,0)
(0,0,0)
(0,0,0)
(0,0,0)
(0,0,0)
(1.13294200876523e-12,3.15226272008802e-12,-3.02042075176964e-10)
(1.64726982326347e-12,6.8559181542736e-12,-3.01492789781951e-10)
(1.20639905817293e-12,1.147351644685e-11,-3.0000943708494e-10)
(6.14713990212559e-13,1.83880078229802e-11,-2.98326727070878e-10)
(-1.42361413687092e-12,3.18158764740928e-11,-2.95974455880296e-10)
(-4.77336016708897e-12,6.35062353529473e-11,-2.90399802404188e-10)
(-5.52343757233644e-12,1.31379193251625e-10,-2.75723408614181e-10)
(-4.67077921122565e-12,2.38278681745108e-10,-2.4303324778019e-10)
(-3.08128771088694e-12,4.40728324147403e-10,-1.86953590812195e-10)
(-2.1764533193608e-12,9.29058016145533e-10,-1.05754243495326e-10)
(0,0,0)
(0,0,0)
(0,0,0)
(0,0,0)
(0,0,0)
(0,0,0)
(1.0017148535293e-12,2.26811955137782e-12,-5.20765179139259e-10)
(1.30166140934469e-12,4.34049519141066e-12,-5.19721182230134e-10)
(3.26949328688652e-13,7.65375493917536e-12,-5.18103674628519e-10)
(-6.46643121027332e-13,1.33966502582438e-11,-5.15898636359106e-10)
(-1.9722782555204e-12,2.46004060809242e-11,-5.11684795917873e-10)
(-3.87558275857511e-12,4.94232534911063e-11,-5.02430623509031e-10)
(-4.90258216775545e-12,9.79776982400655e-11,-4.81509450853358e-10)
(-3.93829620346207e-12,1.82476638161902e-10,-4.3799675745214e-10)
(-2.1635945308898e-12,3.6011945763715e-10,-3.59593032770861e-10)
(-1.71588228835357e-12,8.23367437904648e-10,-2.24347205890648e-10)
(0,0,0)
(0,0,0)
(0,0,0)
(0,0,0)
(0,0,0)
(0,0,0)
(7.07956471028392e-13,1.2107634216013e-12,-1.02339937969811e-09)
(2.83591401095322e-13,2.27372119113307e-12,-1.02178451883442e-09)
(-7.59063399793639e-13,3.90838802588015e-12,-1.01968704946672e-09)
(-1.6569949390285e-12,7.12721578932967e-12,-1.01696266539477e-09)
(-2.23508264248721e-12,1.3548788479437e-11,-1.01156983459498e-09)
(-3.15349622179731e-12,2.70965923597067e-11,-9.99923890773861e-10)
(-4.21125832778952e-12,5.30493726931317e-11,-9.747235220199e-10)
(-3.37698105826722e-12,1.03478884027159e-10,-9.23016004365162e-10)
(-1.37255206176431e-12,2.24512098861508e-10,-8.20300356846775e-10)
(-8.33728338103095e-13,5.98130716406988e-10,-5.96799918204355e-10)
(0,0,0)
(0,0,0)
(0,0,0)
(0,0,0)
(0,0,0)
(0,0,0)
(0,0,0)
(0,0,0)
(0,0,0)
(0,0,0)
(0,0,0)
(0,0,0)
(0,0,0)
(0,0,0)
(0,0,0)
(0,0,0)
(0,0,0)
(0,0,0)
(0,0,0)
(0,0,0)
(0,0,0)
(0,0,0)
(0,0,0)
(0,0,0)
(0,0,0)
(0,0,0)
(0,0,0)
(0,0,0)
(0,0,0)
(0,0,0)
(0,0,0)
(0,0,0)
(0,0,0)
(0,0,0)
(0,0,0)
(0,0,0)
(0,0,0)
(0,0,0)
(0,0,0)
(0,0,0)
(0,0,0)
(0,0,0)
(0,0,0)
(0,0,0)
(0,0,0)
(0,0,0)
(0,0,0)
(0,0,0)
(0,0,0)
(0,0,0)
(0,0,0)
(0,0,0)
(0,0,0)
(0,0,0)
(0,0,0)
(0,0,0)
(0,0,0)
(0,0,0)
(0,0,0)
(0,0,0)
(0,0,0)
(0,0,0)
(0,0,0)
(0,0,0)
(0,0,0)
(0,0,0)
(0,0,0)
(0,0,0)
(0,0,0)
(0,0,0)
(0,0,0)
(0,0,0)
(0,0,0)
(0,0,0)
(0,0,0)
(0,0,0)
(0,0,0)
(0,0,0)
(0,0,0)
(0,0,0)
(0,0,0)
(0,0,0)
(0,0,0)
(0,0,0)
(0,0,0)
(0,0,0)
(0,0,0)
(0,0,0)
(0,0,0)
(0,0,0)
(0,0,0)
(0,0,0)
(0,0,0)
(0,0,0)
(0,0,0)
(0,0,0)
(0,0,0)
(0,0,0)
(0,0,0)
(0,0,0)
(0,0,0)
(0,0,0)
(-7.08770507412368e-13,1.25775272037572e-11,-1.38557405641642e-11)
(-6.51249285246373e-13,2.69149968295429e-11,-1.32778282535001e-11)
(-8.91648252019336e-13,4.54127782576284e-11,-1.19286138911878e-11)
(-2.11301190523876e-12,7.09258240981178e-11,-9.56868101612348e-12)
(-3.19114542680719e-12,1.06092094190575e-10,-6.05062580048362e-12)
(-4.04943371954484e-12,1.5499959843886e-10,-1.99769019325701e-12)
(-5.34376710699373e-12,2.28770438908718e-10,8.62067645769395e-13)
(-6.41663690938035e-12,3.36100618811023e-10,1.62642690094979e-12)
(-7.13862743919441e-12,4.89418693156875e-10,1.263742675788e-12)
(-7.96303760557367e-12,6.74967393266995e-10,6.17272140452458e-13)
(0,0,0)
(0,0,0)
(0,0,0)
(0,0,0)
(0,0,0)
(0,0,0)
(-7.57071502462769e-13,1.18285375069098e-11,-2.68419067693203e-11)
(-7.92247644469766e-13,2.5400208485276e-11,-2.61783139270188e-11)
(-1.1035486394146e-12,4.30927723874311e-11,-2.40306018546323e-11)
(-3.04284536721362e-12,6.75289517698559e-11,-1.96693691967191e-11)
(-4.76951657744686e-12,1.01936847415932e-10,-1.31580778772071e-11)
(-5.9580070138877e-12,1.51725844026128e-10,-5.15166997458694e-12)
(-8.21608087841985e-12,2.27986173232354e-10,2.09281608220003e-12)
(-1.07729932559827e-11,3.3727530041535e-10,3.54746047572594e-12)
(-1.22164248243434e-11,4.90780349172207e-10,2.2853131191331e-12)
(-1.36717771438737e-11,6.76113103307634e-10,6.92857897517063e-13)
(0,0,0)
(0,0,0)
(0,0,0)
(0,0,0)
(0,0,0)
(0,0,0)
(-2.36548296384964e-13,1.0779696431495e-11,-4.33963998935464e-11)
(1.34342333220507e-13,2.29966305357398e-11,-4.23770192493868e-11)
(2.07827947221528e-13,3.8626170965974e-11,-3.95273433612173e-11)
(-1.38118140021491e-12,6.10226383476565e-11,-3.40218493488197e-11)
(-3.52011447480299e-12,9.36862450726389e-11,-2.51414262850168e-11)
(-4.61438389599482e-12,1.44265451680831e-10,-1.24110103133744e-11)
(-7.42624029861657e-12,2.26626136880141e-10,2.05403823472517e-12)
(-1.33283207478787e-11,3.40134233760481e-10,3.40561396248112e-12)
(-1.62296464297155e-11,4.93897437725414e-10,1.02742164387937e-12)
(-1.80755684628503e-11,6.78039305705111e-10,-3.69599421554426e-13)
(0,0,0)
(0,0,0)
(0,0,0)
(0,0,0)
(0,0,0)
(0,0,0)
(-3.26107815492816e-13,9.26531460689613e-12,-6.80698259027102e-11)
(7.1262760990494e-13,1.99548221672008e-11,-6.71489400220584e-11)
(1.64965679268245e-12,3.27778321351913e-11,-6.40588582526304e-11)
(1.62555582207104e-12,5.16112314664626e-11,-5.79930698339106e-11)
(4.38822022401904e-13,8.01500032266663e-11,-4.71954463330838e-11)
(-1.25023756904159e-13,1.29003947442341e-10,-3.06111667148534e-11)
(-3.4163932221084e-12,2.22875556605869e-10,-8.25480317066931e-12)
(-1.44203977418034e-11,3.45231147013579e-10,-7.94709813115115e-12)
(-1.81142236228302e-11,4.97598160552535e-10,-9.52757937539137e-12)
(-1.9459193346779e-11,6.79816543959768e-10,-6.57853178285391e-12)
(0,0,0)
(0,0,0)
(0,0,0)
(0,0,0)
(0,0,0)
(0,0,0)
(5.3342753947287e-13,7.42741055724665e-12,-1.03960721877851e-10)
(2.39105659501334e-12,1.64939575708209e-11,-1.03163534206465e-10)
(3.92508973300115e-12,2.62997762541087e-11,-1.00412861897508e-10)
(4.74189280726493e-12,3.98615102004628e-11,-9.52780646749804e-11)
(5.08231612624577e-12,6.08961288800896e-11,-8.66997626933923e-11)
(4.96278616673192e-12,9.99167423256422e-11,-7.59942489245078e-11)
(-1.15032600309048e-11,1.96893174445124e-10,-8.07771218870151e-11)
(-1.63254657335537e-11,3.51376282589134e-10,-5.40647619045359e-11)
(-1.6446819710742e-11,4.9868236473256e-10,-3.73214802877775e-11)
(-1.65352644384061e-11,6.76224747205794e-10,-1.98003425369275e-11)
(0,0,0)
(0,0,0)
(0,0,0)
(0,0,0)
(0,0,0)
(0,0,0)
(1.59467918066533e-12,5.90896851502721e-12,-1.53426392463397e-10)
(4.06981342429784e-12,1.33532685456968e-11,-1.52742429222256e-10)
(5.6706170301521e-12,2.04963277003324e-11,-1.50542041168437e-10)
(6.19626016959895e-12,2.88482122297388e-11,-1.46982524285303e-10)
(5.59185714326489e-12,4.24241285061978e-11,-1.42058886506096e-10)
(3.801722904335e-12,7.63816987944779e-11,-1.35213377626195e-10)
(-1.06102527763058e-11,1.9310031634227e-10,-1.37779471618643e-10)
(-1.40024902260065e-11,3.4587803764518e-10,-1.10276881100709e-10)
(-1.24092801343245e-11,4.86916121583225e-10,-7.69980319985965e-11)
(-1.20560198592061e-11,6.59711753243576e-10,-3.99799771937243e-11)
(0,0,0)
(0,0,0)
(0,0,0)
(0,0,0)
(0,0,0)
(0,0,0)
(1.80638373823988e-12,4.75036299586378e-12,-2.24549539037832e-10)
(3.88205733233559e-12,1.03787614994622e-11,-2.23752510379342e-10)
(4.99060354564381e-12,1.53420944883158e-11,-2.21801551636055e-10)
(4.48063243696138e-12,1.97026804147492e-11,-2.20078366180169e-10)
(-3.20764836197043e-13,2.52425800521548e-11,-2.21023733390967e-10)
(-1.24315199242614e-11,4.51076385694656e-11,-2.24466436537961e-10)
(-7.29860538563837e-12,1.80406668351336e-10,-1.95795713371284e-10)
(-8.9173037683554e-12,3.24232150292516e-10,-1.90681411847643e-10)
(-7.77786603317747e-12,4.55629652461113e-10,-1.32934359605383e-10)
(-7.00646687748136e-12,6.22868404854205e-10,-6.83184885362353e-11)
(0,0,0)
(0,0,0)
(0,0,0)
(0,0,0)
(0,0,0)
(0,0,0)
(1.46779978271916e-12,3.54722409108311e-12,-3.27117261962437e-10)
(2.67934008887828e-12,7.31534469502839e-12,-3.26297181101788e-10)
(3.34345055141374e-12,1.11781925648989e-11,-3.24849185077512e-10)
(3.25380036508214e-12,1.62078968902346e-11,-3.23965933915567e-10)
(2.17202779781642e-13,2.59644392711271e-11,-3.24717938176701e-10)
(-5.36677209534053e-12,5.96622322311148e-11,-3.27010492071639e-10)
(-4.81210339411684e-12,1.65592700861806e-10,-3.20030813517455e-10)
(-4.94839259713193e-12,2.68266876996617e-10,-2.73950224246048e-10)
(-3.67176851730142e-12,3.93297197089153e-10,-1.99483274520853e-10)
(-2.24011857348839e-12,5.55988352852185e-10,-1.06873742855965e-10)
(0,0,0)
(0,0,0)
(0,0,0)
(0,0,0)
(0,0,0)
(0,0,0)
(1.0150740737549e-12,2.36602096627238e-12,-4.75049589825802e-10)
(1.75092780785482e-12,4.74151630405513e-12,-4.74016210323517e-10)
(1.86727797270329e-12,7.77338534032717e-12,-4.72628542784597e-10)
(1.40895090653623e-12,1.29654303484559e-11,-4.71199306908592e-10)
(-1.748330622605e-13,2.38573799590307e-11,-4.68599777868363e-10)
(-2.47009428277303e-12,5.29281500033844e-11,-4.62559788086047e-10)
(-3.48695002228669e-12,1.16760944883129e-10,-4.429049119546e-10)
(-3.34426675031264e-12,1.93663629094388e-10,-3.89277817407128e-10)
(-1.80206263521019e-12,3.01243509944847e-10,-3.00682277736274e-10)
(-8.26366681485628e-13,4.49179697986964e-10,-1.72204250468176e-10)
(0,0,0)
(0,0,0)
(0,0,0)
(0,0,0)
(0,0,0)
(0,0,0)
(3.03859028620451e-13,1.18003344355407e-12,-6.57337278442427e-10)
(4.59843224052408e-13,2.54087660929526e-12,-6.55896498233142e-10)
(4.24940554574118e-13,4.17534397482003e-12,-6.53967876161152e-10)
(7.73900498480439e-14,7.34752416840907e-12,-6.51903927854799e-10)
(-3.3223798361064e-13,1.42443248411628e-11,-6.47187635012225e-10)
(-1.25727261650891e-12,3.01951115454824e-11,-6.35899338101411e-10)