/*--------------------------------*- C++ -*----------------------------------*\
| =========                 |                                                 |
| \\      /  F ield         | foam-extend: Open Source CFD                    |
|  \\    /   O peration     | Version:     4.0                                |
|   \\  /    A nd           | Web:         http://www.foam-extend.org         |
|    \\/     M anipulation  |                                                 |
\*---------------------------------------------------------------------------*/
FoamFile
{
    version 2.0;
    format ascii;
    class volVectorField;
    location "1384";
    object      E;
}
// * * * * * * * * * * * * * * * * * * * * * * * * * * * * * * * * * * * * * //

dimensions      [0 1 -1 0 0 0 0];

internalField   nonuniform List<vector>
4096
(
(0,0,0)
(0,0,0)
(0,0,0)
(0,0,0)
(0,0,0)
(0,0,0)
(0,0,0)
(0,0,0)
(0,0,0)
(0,0,0)
(0,0,0)
(0,0,0)
(0,0,0)
(0,0,0)
(0,0,0)
(0,0,0)
(0,0,0)
(0,0,0)
(0,0,0)
(0,0,0)
(0,0,0)
(0,0,0)
(0,0,0)
(0,0,0)
(0,0,0)
(0,0,0)
(0,0,0)
(0,0,0)
(0,0,0)
(0,0,0)
(0,0,0)
(0,0,0)
(0,0,0)
(0,0,0)
(0,0,0)
(0,0,0)
(0,0,0)
(0,0,0)
(0,0,0)
(0,0,0)
(0,0,0)
(0,0,0)
(0,0,0)
(0,0,0)
(0,0,0)
(0,0,0)
(0,0,0)
(0,0,0)
(0,0,0)
(0,0,0)
(0,0,0)
(0,0,0)
(0,0,0)
(0,0,0)
(0,0,0)
(0,0,0)
(0,0,0)
(0,0,0)
(0,0,0)
(0,0,0)
(0,0,0)
(0,0,0)
(0,0,0)
(0,0,0)
(0,0,0)
(0,0,0)
(0,0,0)
(0,0,0)
(0,0,0)
(0,0,0)
(0,0,0)
(0,0,0)
(0,0,0)
(0,0,0)
(0,0,0)
(0,0,0)
(0,0,0)
(0,0,0)
(0,0,0)
(0,0,0)
(0,0,0)
(0,0,0)
(0,0,0)
(0,0,0)
(0,0,0)
(0,0,0)
(0,0,0)
(0,0,0)
(0,0,0)
(0,0,0)
(0,0,0)
(0,0,0)
(0,0,0)
(0,0,0)
(0,0,0)
(0,0,0)
(0,0,0)
(0,0,0)
(0,0,0)
(0,0,0)
(0,0,0)
(0,0,0)
(0,0,0)
(0,0,0)
(0,0,0)
(0,0,0)
(0,0,0)
(0,0,0)
(0,0,0)
(0,0,0)
(0,0,0)
(0,0,0)
(0,0,0)
(0,0,0)
(0,0,0)
(0,0,0)
(0,0,0)
(0,0,0)
(0,0,0)
(0,0,0)
(0,0,0)
(0,0,0)
(0,0,0)
(0,0,0)
(0,0,0)
(0,0,0)
(0,0,0)
(0,0,0)
(0,0,0)
(0,0,0)
(0,0,0)
(0,0,0)
(0,0,0)
(0,0,0)
(0,0,0)
(0,0,0)
(0,0,0)
(0,0,0)
(0,0,0)
(0,0,0)
(0,0,0)
(0,0,0)
(0,0,0)
(0,0,0)
(0,0,0)
(0,0,0)
(0,0,0)
(0,0,0)
(0,0,0)
(0,0,0)
(0,0,0)
(0,0,0)
(0,0,0)
(0,0,0)
(0,0,0)
(0,0,0)
(0,0,0)
(0,0,0)
(0,0,0)
(0,0,0)
(0,0,0)
(0,0,0)
(0,0,0)
(0,0,0)
(0,0,0)
(0,0,0)
(0,0,0)
(0,0,0)
(0,0,0)
(0,0,0)
(0,0,0)
(0,0,0)
(0,0,0)
(0,0,0)
(0,0,0)
(0,0,0)
(0,0,0)
(0,0,0)
(0,0,0)
(0,0,0)
(0,0,0)
(0,0,0)
(0,0,0)
(0,0,0)
(0,0,0)
(0,0,0)
(0,0,0)
(0,0,0)
(0,0,0)
(0,0,0)
(0,0,0)
(0,0,0)
(0,0,0)
(0,0,0)
(0,0,0)
(0,0,0)
(0,0,0)
(0,0,0)
(0,0,0)
(0,0,0)
(0,0,0)
(0,0,0)
(0,0,0)
(0,0,0)
(0,0,0)
(0,0,0)
(0,0,0)
(0,0,0)
(0,0,0)
(0,0,0)
(0,0,0)
(0,0,0)
(0,0,0)
(0,0,0)
(0,0,0)
(0,0,0)
(0,0,0)
(0,0,0)
(0,0,0)
(0,0,0)
(0,0,0)
(0,0,0)
(0,0,0)
(0,0,0)
(0,0,0)
(0,0,0)
(0,0,0)
(0,0,0)
(0,0,0)
(0,0,0)
(0,0,0)
(0,0,0)
(0,0,0)
(0,0,0)
(0,0,0)
(0,0,0)
(0,0,0)
(0,0,0)
(0,0,0)
(0,0,0)
(0,0,0)
(0,0,0)
(0,0,0)
(0,0,0)
(0,0,0)
(0,0,0)
(0,0,0)
(0,0,0)
(0,0,0)
(0,0,0)
(0,0,0)
(0,0,0)
(0,0,0)
(0,0,0)
(0,0,0)
(0,0,0)
(0,0,0)
(0,0,0)
(0,0,0)
(0,0,0)
(0,0,0)
(0,0,0)
(0,0,0)
(0,0,0)
(0,0,0)
(0,0,0)
(0,0,0)
(0,0,0)
(0,0,0)
(0,0,0)
(0,0,0)
(0,0,0)
(0,0,0)
(0,0,0)
(0,0,0)
(0,0,0)
(0,0,0)
(0,0,0)
(0,0,0)
(0,0,0)
(0,0,0)
(0,0,0)
(0,0,0)
(0,0,0)
(0,0,0)
(0,0,0)
(0,0,0)
(0,0,0)
(0,0,0)
(0,0,0)
(0,0,0)
(0,0,0)
(0,0,0)
(0,0,0)
(0,0,0)
(0,0,0)
(0,0,0)
(0,0,0)
(0,0,0)
(0,0,0)
(0,0,0)
(0,0,0)
(0,0,0)
(0,0,0)
(0,0,0)
(0,0,0)
(0,0,0)
(0,0,0)
(0,0,0)
(0,0,0)
(0,0,0)
(0,0,0)
(0,0,0)
(0,0,0)
(0,0,0)
(0,0,0)
(0,0,0)
(0,0,0)
(0,0,0)
(0,0,0)
(0,0,0)
(0,0,0)
(0,0,0)
(0,0,0)
(0,0,0)
(0,0,0)
(0,0,0)
(0,0,0)
(0,0,0)
(0,0,0)
(0,0,0)
(0,0,0)
(0,0,0)
(0,0,0)
(0,0,0)
(0,0,0)
(0,0,0)
(0,0,0)
(0,0,0)
(0,0,0)
(0,0,0)
(0,0,0)
(0,0,0)
(0,0,0)
(0,0,0)
(0,0,0)
(0,0,0)
(0,0,0)
(0,0,0)
(0,0,0)
(0,0,0)
(0,0,0)
(0,0,0)
(0,0,0)
(0,0,0)
(0,0,0)
(0,0,0)
(0,0,0)
(0,0,0)
(0,0,0)
(0,0,0)
(0,0,0)
(0,0,0)
(0,0,0)
(0,0,0)
(0,0,0)
(0,0,0)
(0,0,0)
(0,0,0)
(0,0,0)
(0,0,0)
(0,0,0)
(0,0,0)
(0,0,0)
(0,0,0)
(0,0,0)
(0,0,0)
(0,0,0)
(0,0,0)
(0,0,0)
(0,0,0)
(0,0,0)
(0,0,0)
(0,0,0)
(0,0,0)
(0,0,0)
(0,0,0)
(0,0,0)
(0,0,0)
(0,0,0)
(0,0,0)
(0,0,0)
(0,0,0)
(0,0,0)
(0,0,0)
(0,0,0)
(0,0,0)
(0,0,0)
(0,0,0)
(0,0,0)
(0,0,0)
(0,0,0)
(0,0,0)
(0,0,0)
(0,0,0)
(0,0,0)
(0,0,0)
(0,0,0)
(0,0,0)
(0,0,0)
(0,0,0)
(0,0,0)
(0,0,0)
(0,0,0)
(0,0,0)
(0,0,0)
(0,0,0)
(0,0,0)
(0,0,0)
(0,0,0)
(0,0,0)
(0,0,0)
(0,0,0)
(0,0,0)
(0,0,0)
(0,0,0)
(0,0,0)
(0,0,0)
(0,0,0)
(0,0,0)
(0,0,0)
(0,0,0)
(0,0,0)
(0,0,0)
(0,0,0)
(0,0,0)
(0,0,0)
(0,0,0)
(0,0,0)
(0,0,0)
(0,0,0)
(0,0,0)
(0,0,0)
(0,0,0)
(0,0,0)
(0,0,0)
(0,0,0)
(0,0,0)
(0,0,0)
(0,0,0)
(0,0,0)
(0,0,0)
(0,0,0)
(0,0,0)
(0,0,0)
(0,0,0)
(0,0,0)
(0,0,0)
(0,0,0)
(0,0,0)
(0,0,0)
(0,0,0)
(0,0,0)
(0,0,0)
(0,0,0)
(0,0,0)
(0,0,0)
(0,0,0)
(0,0,0)
(0,0,0)
(0,0,0)
(0,0,0)
(0,0,0)
(0,0,0)
(0,0,0)
(0,0,0)
(0,0,0)
(0,0,0)
(0,0,0)
(0,0,0)
(0,0,0)
(0,0,0)
(0,0,0)
(0,0,0)
(0,0,0)
(0,0,0)
(0,0,0)
(0,0,0)
(0,0,0)
(0,0,0)
(0,0,0)
(0,0,0)
(0,0,0)
(0,0,0)
(0,0,0)
(0,0,0)
(0,0,0)
(0,0,0)
(0,0,0)
(0,0,0)
(0,0,0)
(0,0,0)
(0,0,0)
(0,0,0)
(0,0,0)
(0,0,0)
(0,0,0)
(0,0,0)
(0,0,0)
(0,0,0)
(0,0,0)
(0,0,0)
(0,0,0)
(0,0,0)
(0,0,0)
(0,0,0)
(0,0,0)
(0,0,0)
(0,0,0)
(0,0,0)
(0,0,0)
(0,0,0)
(0,0,0)
(0,0,0)
(0,0,0)
(0,0,0)
(0,0,0)
(0,0,0)
(0,0,0)
(0,0,0)
(0,0,0)
(0,0,0)
(0,0,0)
(0,0,0)
(0,0,0)
(0,0,0)
(0,0,0)
(0,0,0)
(0,0,0)
(0,0,0)
(0,0,0)
(0,0,0)
(0,0,0)
(0,0,0)
(0,0,0)
(0,0,0)
(0,0,0)
(0,0,0)
(0,0,0)
(0,0,0)
(0,0,0)
(0,0,0)
(0,0,0)
(0,0,0)
(0,0,0)
(0,0,0)
(0,0,0)
(0,0,0)
(0,0,0)
(0,0,0)
(0,0,0)
(0,0,0)
(0,0,0)
(0,0,0)
(0,0,0)
(0,0,0)
(0,0,0)
(0,0,0)
(0,0,0)
(0,0,0)
(0,0,0)
(0,0,0)
(0,0,0)
(0,0,0)
(0,0,0)
(0,0,0)
(0,0,0)
(0,0,0)
(0,0,0)
(0,0,0)
(0,0,0)
(0,0,0)
(0,0,0)
(0,0,0)
(0,0,0)
(0,0,0)
(0,0,0)
(0,0,0)
(0,0,0)
(0,0,0)
(0,0,0)
(0,0,0)
(0,0,0)
(0,0,0)
(0,0,0)
(0,0,0)
(0,0,0)
(0,0,0)
(0,0,0)
(0,0,0)
(0,0,0)
(0,0,0)
(0,0,0)
(0,0,0)
(0,0,0)
(0,0,0)
(0,0,0)
(0,0,0)
(0,0,0)
(0,0,0)
(0,0,0)
(0,0,0)
(0,0,0)
(0,0,0)
(0,0,0)
(0,0,0)
(0,0,0)
(0,0,0)
(0,0,0)
(0,0,0)
(0,0,0)
(0,0,0)
(0,0,0)
(0,0,0)
(0,0,0)
(0,0,0)
(0,0,0)
(0,0,0)
(0,0,0)
(0,0,0)
(0,0,0)
(0,0,0)
(0,0,0)
(0,0,0)
(0,0,0)
(0,0,0)
(0,0,0)
(0,0,0)
(0,0,0)
(0,0,0)
(0,0,0)
(0,0,0)
(0,0,0)
(0,0,0)
(0,0,0)
(0,0,0)
(0,0,0)
(0,0,0)
(0,0,0)
(0,0,0)
(0,0,0)
(0,0,0)
(0,0,0)
(0,0,0)
(0,0,0)
(0,0,0)
(0,0,0)
(0,0,0)
(0,0,0)
(0,0,0)
(0,0,0)
(0,0,0)
(0,0,0)
(0,0,0)
(0,0,0)
(0,0,0)
(0,0,0)
(0,0,0)
(0,0,0)
(0,0,0)
(0,0,0)
(0,0,0)
(0,0,0)
(0,0,0)
(0,0,0)
(0,0,0)
(0,0,0)
(0,0,0)
(0,0,0)
(0,0,0)
(0,0,0)
(0,0,0)
(0,0,0)
(0,0,0)
(0,0,0)
(0,0,0)
(0,0,0)
(0,0,0)
(0,0,0)
(0,0,0)
(0,0,0)
(0,0,0)
(0,0,0)
(0,0,0)
(0,0,0)
(0,0,0)
(0,0,0)
(0,0,0)
(0,0,0)
(0,0,0)
(0,0,0)
(0,0,0)
(0,0,0)
(0,0,0)
(0,0,0)
(0,0,0)
(0,0,0)
(0,0,0)
(0,0,0)
(0,0,0)
(0,0,0)
(0,0,0)
(0,0,0)
(0,0,0)
(0,0,0)
(0,0,0)
(0,0,0)
(0,0,0)
(0,0,0)
(0,0,0)
(0,0,0)
(0,0,0)
(0,0,0)
(0,0,0)
(0,0,0)
(0,0,0)
(0,0,0)
(0,0,0)
(0,0,0)
(0,0,0)
(0,0,0)
(0,0,0)
(0,0,0)
(0,0,0)
(0,0,0)
(0,0,0)
(0,0,0)
(0,0,0)
(0,0,0)
(0,0,0)
(0,0,0)
(0,0,0)
(0,0,0)
(0,0,0)
(0,0,0)
(0,0,0)
(0,0,0)
(0,0,0)
(0,0,0)
(0,0,0)
(0,0,0)
(0,0,0)
(0,0,0)
(0,0,0)
(0,0,0)
(0,0,0)
(0,0,0)
(0,0,0)
(0,0,0)
(0,0,0)
(0,0,0)
(0,0,0)
(0,0,0)
(0,0,0)
(0,0,0)
(0,0,0)
(0,0,0)
(0,0,0)
(0,0,0)
(0,0,0)
(0,0,0)
(0,0,0)
(0,0,0)
(0,0,0)
(0,0,0)
(0,0,0)
(0,0,0)
(0,0,0)
(0,0,0)
(0,0,0)
(0,0,0)
(0,0,0)
(0,0,0)
(0,0,0)
(0,0,0)
(0,0,0)
(0,0,0)
(0,0,0)
(0,0,0)
(0,0,0)
(0,0,0)
(0,0,0)
(0,0,0)
(0,0,0)
(0,0,0)
(0,0,0)
(0,0,0)
(0,0,0)
(0,0,0)
(0,0,0)
(0,0,0)
(0,0,0)
(0,0,0)
(0,0,0)
(0,0,0)
(0,0,0)
(0,0,0)
(0,0,0)
(0,0,0)
(0,0,0)
(0,0,0)
(0,0,0)
(0,0,0)
(0,0,0)
(0,0,0)
(0,0,0)
(0,0,0)
(0,0,0)
(0,0,0)
(-165669.342205108,88043.2252110177,77626.1169940899)
(-175179.702887611,84401.9995784555,168403.820303246)
(-197252.844068588,76859.5819218628,288797.082449972)
(-238966.0533517,65042.4389509246,462720.696850749)
(-314195.613224934,49082.6003338562,727833.709741834)
(-449204.141178918,30718.4836473424,1146319.36727339)
(-693592.250362174,13970.2749329201,1825941.34270269)
(-1135269.22906088,3683.92239831946,2957526.64936524)
(-1872344.09136668,242.041470910425,4829628.69926106)
(-2608718.41447241,-119.083280227142,7438466.1970137)
(0,0,0)
(0,0,0)
(0,0,0)
(0,0,0)
(0,0,0)
(0,0,0)
(-175227.050035679,189244.471309602,74025.8039370936)
(-184839.128016238,182407.696534114,160859.234997676)
(-207265.897812427,168052.727053316,276931.987678646)
(-249940.200321903,145208.356902343,446706.270049136)
(-327232.804665325,113635.014957511,709386.660090803)
(-465466.758684486,76032.5453319963,1129539.35709064)
(-712548.947740772,40398.3277598682,1815660.25200444)
(-1152568.49294185,17811.6042073503,2954101.06313723)
(-1883869.73336945,8866.62480427278,4829346.21317337)
(-2614099.26518922,4571.62581405898,7438754.76926823)
(0,0,0)
(0,0,0)
(0,0,0)
(0,0,0)
(0,0,0)
(0,0,0)
(-197045.940694855,319129.882662292,67160.529342165)
(-206828.720294259,309971.613013161,146425.333157377)
(-229968.819261849,290508.29949089,253938.579981656)
(-274780.610155359,258958.22778964,414969.31924972)
(-356984.201284781,213953.184564914,671635.350927097)
(-503766.006478349,157627.354750592,1093806.54798685)
(-759345.553144847,100525.182813259,1793025.24607831)
(-1195666.16119676,61284.3253605322,2945218.68612186)
(-1911633.41399304,40477.5606446138,4825241.16427465)
(-2626679.52319283,21982.1833338158,7434510.12994768)
(0,0,0)
(0,0,0)
(0,0,0)
(0,0,0)
(0,0,0)
(0,0,0)
(-237800.984617673,498976.51524141,57954.3520385566)
(-247731.545816382,488734.005962512,126923.50490559)
(-271736.619991913,466893.007572083,222275.416816304)
(-319626.558493191,431050.387705162,369809.815393968)
(-409956.645434103,378521.171262229,615198.47413076)
(-573178.77106181,309346.656222598,1036657.94372056)
(-849047.323539773,232443.705609272,1753786.74446433)
(-1279092.67457495,169615.407730042,2924548.33666974)
(-1962525.01783169,120583.224875714,4806967.69027028)
(-2648873.15167958,64926.7165791681,7412896.30870461)
(0,0,0)
(0,0,0)
(0,0,0)
(0,0,0)
(0,0,0)
(0,0,0)
(-310733.397070187,761954.956279779,47754.9560318164)
(-320634.481783659,751975.429643801,105148.014134186)
(-345104.684677298,730763.93409667,186381.772286895)
(-395570.359265657,695843.169771354,317159.349486364)
(-494316.368616599,644023.429722496,545973.459642701)
(-677920.978667008,573447.382444541,959793.71208775)
(-985724.213653903,486885.967477172,1691075.66387376)
(-1406198.07994058,391142.658887779,2875746.49265663)
(-2036516.73332389,281220.027780736,4751626.42307555)
(-2680957.80111468,149066.541302426,7348444.39946696)
(0,0,0)
(0,0,0)
(0,0,0)
(0,0,0)
(0,0,0)
(0,0,0)
(-442387.034780652,1166527.14695981,37814.8441006169)
(-451779.743385207,1157670.66926758,83899.3478620435)
(-475437.322609192,1138776.49237077,151324.112197136)
(-525395.857146065,1107340.73146211,265222.407652442)
(-625192.999357872,1059060.90811177,475377.928621039)
(-812300.670943398,987817.821733,873308.160275985)
(-1121096.92273412,885803.221266487,1595487.82922081)
(-1522510.28124767,743073.530485761,2766067.23887049)
(-2116696.12633117,544131.437833692,4619851.95514875)
(-2721357.36804691,290466.316325741,7199809.54817224)
(0,0,0)
(0,0,0)
(0,0,0)
(0,0,0)
(0,0,0)
(0,0,0)
(-684037.626206602,1821634.70525015,28930.0679162737)
(-692367.667080275,1814009.63626019,64958.7680039409)
(-713597.48897526,1797559.77751419,119772.971835779)
(-759215.737765498,1769448.26171135,216881.179352039)
(-851919.538283076,1723684.09767411,404177.528072774)
(-1027752.07073742,1648409.52011612,771337.900427069)
(-1317592.45675151,1521849.10694717,1452884.4714979)
(-1682600.05511137,1311200.68290216,2567357.37419287)
(-2236159.23942411,981109.203981874,4366538.84746874)
(-2787246.37663083,534576.873340146,6909674.66708522)
(0,0,0)
(0,0,0)
(0,0,0)
(0,0,0)
(0,0,0)
(0,0,0)
(-1125969.2012754,2926394.55334424,21209.3531812937)
(-1132638.56324519,2919453.25138741,48404.3012992574)
(-1149759.14818176,2904166.07865815,91557.1483370678)
(-1186864.63538122,2876815.47813479,171054.567294846)
(-1263076.45685689,2828902.90265498,328912.219170859)
(-1409283.61997142,2741818.64256075,644786.716697642)
(-1652024.15992154,2576304.73097527,1242355.25259107)
(-1947486.08286589,2263612.6167178,2237429.40164133)
(-2453003.24428681,1751260.92448829,3920280.92542173)
(-2913247.16812078,992662.38800483,6375442.57887777)
(0,0,0)
(0,0,0)
(0,0,0)
(0,0,0)
(0,0,0)
(0,0,0)
(-1866013.55475046,4778186.35890381,14221.7491908828)
(-1870570.27362695,4771219.10652751,33026.1676777423)
(-1882199.23769316,4755311.25754123,64080.2264877987)
(-1907155.51545916,4725012.83765854,123038.382423207)
(-1957511.40330875,4667724.45595978,241728.23242717)
(-2052121.57784692,4556433.24857842,479235.204256396)
(-2211016.32358626,4336811.61867828,929744.640139648)
(-2447020.27370347,3915260.47222547,1725117.05833545)
(-2852910.52064047,3167497.15221243,3161791.35125175)
(-3132999.75175084,1904465.68175111,5382987.80925633)
(0,0,0)
(0,0,0)
(0,0,0)
(0,0,0)
(0,0,0)
(0,0,0)
(-2605789.17608287,7376729.41388177,7246.1211049021)
(-2608069.17510103,7369503.09783234,17031.3049011177)
(-2613856.53497997,7352567.60798979,33631.4894325452)
(-2626128.56129593,7319109.82760472,65663.0607823044)
(-2650514.10702825,7253560.529278,130341.09449235)
(-2696070.17122145,7123286.20668271,259558.307609513)
(-2775586.64718294,6863749.30196134,508207.271509383)
(-2909529.1710664,6355613.58608618,977383.328715038)
(-3132259.85484109,5378221.77386143,1898918.5619071)
(-3154493.55409572,3479114.91276992,3478762.88498401)
(0,0,0)
(0,0,0)
(0,0,0)
(0,0,0)
(0,0,0)
(0,0,0)
(0,0,0)
(0,0,0)
(0,0,0)
(0,0,0)
(0,0,0)
(0,0,0)
(0,0,0)
(0,0,0)
(0,0,0)
(0,0,0)
(0,0,0)
(0,0,0)
(0,0,0)
(0,0,0)
(0,0,0)
(0,0,0)
(0,0,0)
(0,0,0)
(0,0,0)
(0,0,0)
(0,0,0)
(0,0,0)
(0,0,0)
(0,0,0)
(0,0,0)
(0,0,0)
(0,0,0)
(0,0,0)
(0,0,0)
(0,0,0)
(0,0,0)
(0,0,0)
(0,0,0)
(0,0,0)
(0,0,0)
(0,0,0)
(0,0,0)
(0,0,0)
(0,0,0)
(0,0,0)
(0,0,0)
(0,0,0)
(0,0,0)
(0,0,0)
(0,0,0)
(0,0,0)
(0,0,0)
(0,0,0)
(0,0,0)
(0,0,0)
(0,0,0)
(0,0,0)
(0,0,0)
(0,0,0)
(0,0,0)
(0,0,0)
(0,0,0)
(0,0,0)
(0,0,0)
(0,0,0)
(0,0,0)
(0,0,0)
(0,0,0)
(0,0,0)
(0,0,0)
(0,0,0)
(0,0,0)
(0,0,0)
(0,0,0)
(0,0,0)
(0,0,0)
(0,0,0)
(0,0,0)
(0,0,0)
(0,0,0)
(0,0,0)
(0,0,0)
(0,0,0)
(0,0,0)
(0,0,0)
(0,0,0)
(0,0,0)
(0,0,0)
(0,0,0)
(0,0,0)
(0,0,0)
(0,0,0)
(0,0,0)
(0,0,0)
(0,0,0)
(0,0,0)
(0,0,0)
(0,0,0)
(0,0,0)
(0,0,0)
(0,0,0)
(24464555.9425939,78524.2256093663,68078.3048166616)
(24448624.1132468,74782.3848095187,146319.919097751)
(24411936.0553376,66882.8979419867,247075.936974539)
(24343386.7850263,54075.6900987351,387475.223722705)
(24221349.1050365,36017.9911898318,592740.329496395)
(24004241.4169486,14406.4758113275,901716.110782416)
(23605995.8317091,-5020.55474545923,1383976.39868154)
(22818993.8160225,-13624.521543459,2220165.69036653)
(21043000.7855077,-11299.7815241675,4092948.41024131)
(16219771.0151313,-5515.92908266026,10046802.7249452)
(0,0,0)
(0,0,0)
(0,0,0)
(0,0,0)
(0,0,0)
(0,0,0)
(24448274.1334838,167473.996553777,64376.8607611474)
(24432293.1127882,160447.225334463,138407.594656872)
(24395269.787784,145364.667807927,234217.954419519)
(24325453.4600732,120369.800500515,369357.998847556)
(24200097.4052035,83835.4342676001,571038.161126004)
(23976914.7752083,37664.502767794,882226.415501714)
(23572573.3284356,-6436.25358305209,1375347.65338806)
(22788812.3465734,-25307.1715020266,2222477.2790564)
(21024243.729138,-18894.915879115,4098786.76612885)
(16211569.282863,-7992.43643877439,10052422.5406576)
(0,0,0)
(0,0,0)
(0,0,0)
(0,0,0)
(0,0,0)
(0,0,0)
(24411383.6847416,278532.854658716,57339.331683552)
(24395338.8479449,269172.070037521,123274.733966347)
(24357593.9800519,248779.675873695,209124.741811847)
(24284726.4314849,214117.16201558,332698.153881592)
(24150717.0736422,160933.557548214,524726.570898917)
(23909272.766479,88154.0342420619,838026.081692274)
(23481792.9085443,10806.1824963252,1356472.99914877)
(22705492.6977802,-22160.2493557663,2228995.03325068)
(20975803.9934462,-10424.6097022832,4109915.13485954)
(16191499.0140619,-205.446068161228,10060777.4224593)
(0,0,0)
(0,0,0)
(0,0,0)
(0,0,0)
(0,0,0)
(0,0,0)
(24343492.8434521,426080.597480903,47986.2443329773)
(24327480.1043633,415872.62637926,102901.853036584)
(24288854.7633842,393529.449668865,174388.511090285)
(24211240.7959784,355067.654860307,279398.478999035)
(24061260.6886938,294096.350853098,451846.166791252)
(23778480.1725714,204538.436217079,760630.636408022)
(23279896.7999177,95752.3568793543,1323568.15379256)
(22515706.4276283,42516.5397525006,2240920.07770607)
(20877849.2146889,46568.764307147,4120380.28640094)
(16153896.6055025,32816.6267514867,10061416.2716243)
(0,0,0)
(0,0,0)
(0,0,0)
(0,0,0)
(0,0,0)
(0,0,0)
(24224041.3845495,630332.623843698,37801.0072425388)
(24208408.1168636,620842.645077156,80616.2051223413)
(24169605.9919205,600380.9232975,135881.870120904)
(24087952.4448911,565918.426162235,218336.109887147)
(23919653.286694,513041.409079155,362249.211575537)
(23574852.195325,438979.334253264,651862.95477232)
(22916770.3527047,351485.072781414,1270463.48773663)
(22163592.9594117,274812.282538953,2245204.52082289)
(20724189.6622735,201002.171514722,4106892.53324283)
(16097907.3729527,108654.499947238,10029017.3012047)
(0,0,0)
(0,0,0)
(0,0,0)
(0,0,0)
(0,0,0)
(0,0,0)
(24011537.2869811,924898.537778691,28337.5795283099)
(23996998.1708542,917074.078336217,60156.0472548289)
(23960052.2829866,900547.024201453,101328.155980094)
(23879898.5845749,873409.051559389,165370.904087027)
(23709637.4159954,832234.330367691,288175.382670208)
(23354934.3888122,772305.416726022,564442.055666876)
(22688430.2576206,689264.059835137,1193963.70348348)
(21968516.4289367,582927.199014987,2171649.89204803)
(20593311.9745378,424602.148646141,4014869.62927257)
(16033703.3463513,224542.282883022,9920748.94716361)
(0,0,0)
(0,0,0)
(0,0,0)
(0,0,0)
(0,0,0)
(0,0,0)
(23617424.0932128,1379716.37419263,20548.2593916597)
(23604761.2738634,1373684.10819382,43637.103815362)
(23572034.0771416,1361308.12736023,74072.2497647672)
(23499295.2377346,1341697.8121657,124100.328883386)
(23340540.0122448,1312461.53415936,228241.389788871)
(23001323.2296194,1266864.6258108,481434.695572312)
(22354795.8442176,1187377.60375045,1087760.66591289)
(21705100.0707675,1046253.20717869,2013562.34709535)
(20399510.2367004,764184.934248138,3815137.9005938)
(15924178.1274715,408539.153210014,9696544.34138957)
(0,0,0)
(0,0,0)
(0,0,0)
(0,0,0)
(0,0,0)
(0,0,0)
(22829727.2669951,2186315.05345734,14532.6676898398)
(22819729.9105258,2181443.22747396,31232.8898636656)
(22793646.5785187,2171594.07737478,54369.02837362)
(22734887.943481,2156368.21974999,94773.8571521744)
(22604053.2091486,2134318.97517063,182614.565360323)
(22316237.4214572,2098818.83783746,401967.127130135)
(21750267.3116437,2017124.05217505,946757.022365227)
(21326750.4344079,1763922.13132803,1731679.39616707)
(20008722.1886245,1351219.38934435,3459747.3233845)
(15670709.1393464,772844.634810589,9288313.34954173)
(0,0,0)
(0,0,0)
(0,0,0)
(0,0,0)
(0,0,0)
(0,0,0)
(21049220.274024,4038246.97135824,9662.06854961036)
(21042471.7707707,4033537.4042949,21353.6625560921)
(21025042.7703757,4023462.10414842,39071.4429385514)
(20986608.7044272,4005846.07455263,72657.1834744757)
(20904715.1759104,3974515.74439711,147061.650253789)
(20738054.1808336,3912245.2862179,320287.258417816)
(20437602.6620214,3771978.72250756,693641.417702678)
(20015789.06194,3452520.46599878,1319061.56261353)
(18824747.5901597,2887954.89145253,2881495.76493022)
(14899662.3371884,1882848.46538049,8515657.66064598)
(0,0,0)
(0,0,0)
(0,0,0)
(0,0,0)
(0,0,0)
(0,0,0)
(16222090.457544,9982238.16805484,4956.98490143909)
(16218736.1168393,9977294.60968358,11222.3027974389)
(16210175.6208553,9966135.7141603,21344.3521752316)
(16191702.6511177,9944916.57056481,41270.4589744827)
(16153622.70985,9903722.45523976,84754.7464785901)
(16078734.5630656,9818999.79650861,180023.317125876)
(15940069.003819,9638968.25020105,374205.953655453)
(15674630.0846619,9264828.82329869,754566.15585222)
(14900278.8123864,8510229.4245401,1876580.77076218)
(12115269.9295721,6633420.57805816,6633072.98964158)
(0,0,0)
(0,0,0)
(0,0,0)
(0,0,0)
(0,0,0)
(0,0,0)
(0,0,0)
(0,0,0)
(0,0,0)
(0,0,0)
(0,0,0)
(0,0,0)
(0,0,0)
(0,0,0)
(0,0,0)
(0,0,0)
(0,0,0)
(0,0,0)
(0,0,0)
(0,0,0)
(0,0,0)
(0,0,0)
(0,0,0)
(0,0,0)
(0,0,0)
(0,0,0)
(0,0,0)
(0,0,0)
(0,0,0)
(0,0,0)
(0,0,0)
(0,0,0)
(0,0,0)
(0,0,0)
(0,0,0)
(0,0,0)
(0,0,0)
(0,0,0)
(0,0,0)
(0,0,0)
(0,0,0)
(0,0,0)
(0,0,0)
(0,0,0)
(0,0,0)
(0,0,0)
(0,0,0)
(0,0,0)
(0,0,0)
(0,0,0)
(0,0,0)
(0,0,0)
(0,0,0)
(0,0,0)
(0,0,0)
(0,0,0)
(0,0,0)
(0,0,0)
(0,0,0)
(0,0,0)
(0,0,0)
(0,0,0)
(0,0,0)
(0,0,0)
(0,0,0)
(0,0,0)
(0,0,0)
(0,0,0)
(0,0,0)
(0,0,0)
(0,0,0)
(0,0,0)
(0,0,0)
(0,0,0)
(0,0,0)
(0,0,0)
(0,0,0)
(0,0,0)
(0,0,0)
(0,0,0)
(0,0,0)
(0,0,0)
(0,0,0)
(0,0,0)
(0,0,0)
(0,0,0)
(0,0,0)
(0,0,0)
(0,0,0)
(0,0,0)
(0,0,0)
(0,0,0)
(0,0,0)
(0,0,0)
(0,0,0)
(0,0,0)
(0,0,0)
(0,0,0)
(0,0,0)
(0,0,0)
(0,0,0)
(0,0,0)
(-426594.434852631,62226.9847339336,52095.5774875638)
(-444185.697673823,58467.269217844,109610.303965322)
(-484004.704317392,50244.9190243406,178478.329371008)
(-556460.696481806,36136.796785294,265361.198868922)
(-680412.867575495,14732.6653217492,375562.690934215)
(-887302.567947434,-12985.4876844618,503264.348289833)
(-1225667.35522105,-38506.7284859037,596606.448480937)
(-1761175.66304029,-43806.0278742912,443754.140193102)
(-2529143.00439502,-30046.5845039775,-730883.300625255)
(-3100233.10085695,-13715.2338332637,-6173991.76602866)
(0,0,0)
(0,0,0)
(0,0,0)
(0,0,0)
(0,0,0)
(0,0,0)
(-445251.23969747,130562.820967993,48361.7217221742)
(-462550.267423554,123494.855944344,101349.699982321)
(-501964.968421245,107694.772129866,164306.787857025)
(-574448.837770851,79635.4367939027,243882.630467546)
(-700252.324274382,34390.390760635,347746.81928151)
(-912732.365683506,-30069.5534707716,477650.210734656)
(-1259013.63233333,-97313.6761359157,591216.303928488)
(-1789370.86616578,-108706.704289257,457472.377857606)
(-2543268.65773739,-67395.9653968197,-714493.669599096)
(-3105209.88195691,-28103.8551617282,-6160153.69867573)
(0,0,0)
(0,0,0)
(0,0,0)
(0,0,0)
(0,0,0)
(0,0,0)
(-486870.453374394,210718.90464909,41270.2392099491)
(-503589.519878491,201373.011890232,85492.6358624395)
(-542271.435455116,180060.451800391,136164.556473909)
(-615426.656925962,140596.216601922,198529.049851681)
(-747712.566910374,71369.6539905412,283151.61194942)
(-982048.567786346,-42762.1862513693,410337.763770383)
(-1370649.92599145,-191200.926716338,579840.033661538)
(-1887043.2279308,-212055.71865942,498897.158517571)
(-2586062.04735586,-108471.436925296,-674989.144376814)
(-3118879.83406939,-37860.6476467289,-6131681.31898557)
(0,0,0)
(0,0,0)
(0,0,0)
(0,0,0)
(0,0,0)
(0,0,0)
(-561238.07212145,306674.001452682,31948.0035450218)
(-577073.036021727,296833.233501463,64213.1070937927)
(-614613.046384535,274260.596330534,96652.9571074007)
(-689224.74184996,231681.772584129,129205.123728483)
(-836246.064735278,152356.127867873,168897.588055222)
(-1134837.64208999,761.148035711873,261864.253204547)
(-1717850.81409446,-267501.504156102,559084.629431444)
(-2207113.80873636,-309674.392935212,602695.724846874)
(-2693496.0884784,-107150.644598133,-604107.579537897)
(-3148339.05324976,-23214.7232642638,-6093345.6603932)
(0,0,0)
(0,0,0)
(0,0,0)
(0,0,0)
(0,0,0)
(0,0,0)
(-686083.335120677,417840.154061372,22130.7518364622)
(-700605.409586699,409415.329273758,41734.3672895032)
(-736039.628425823,390736.625768923,54076.1429724412)
(-810650.170024035,357709.836387913,49822.8788588666)
(-975125.008592296,302862.201827807,17267.2849601834)
(-1396476.90150415,218896.479706729,-6366.76510665483)
(-2774038.11042014,123027.952307752,517084.426329342)
(-3290943.2372761,79653.9804264793,805464.434430453)
(-2904522.82061874,70068.2772413518,-519869.819741712)
(-3196741.71841247,44433.9590002154,-6069697.22586591)
(0,0,0)
(0,0,0)
(0,0,0)
(0,0,0)
(0,0,0)
(0,0,0)
(-891874.641184558,530703.771934511,13720.4950674682)
(-904576.964654516,524754.669691685,23128.4749332712)
(-936328.014465629,512392.602363073,21024.9805663435)
(-1005717.51121941,492608.430098516,-5085.3325749988)
(-1165658.32013249,462943.113424708,-66698.3232689997)
(-1586067.61921196,418541.08118754,-102168.731950662)
(-2896911.94020202,355540.175723448,473833.427231192)
(-3370374.34601393,319437.468022454,796112.899360893)
(-3002892.7672681,230741.235878813,-545183.132695644)
(-3245128.49469273,114982.878388125,-6113728.02626444)
(0,0,0)
(0,0,0)
(0,0,0)
(0,0,0)
(0,0,0)
(0,0,0)
(-1228321.99061673,591823.833391404,7798.20714762532)
(-1238793.11754785,588462.305031532,10817.1479940454)
(-1265491.28071829,582726.32940578,1180.96358617811)
(-1325971.11602214,577064.673043897,-34836.7408274919)
(-1472844.90431046,575791.153995562,-111127.68006811)
(-1884647.43253208,581704.304119221,-165148.05607334)
(-3252346.71258792,582826.132789736,437880.728440906)
(-3689942.41787061,667858.350756565,707674.519119874)
(-3151601.39889013,373321.039492037,-660621.464127776)
(-3324956.53328359,155026.842304515,-6228358.58251414)
(0,0,0)
(0,0,0)
(0,0,0)
(0,0,0)
(0,0,0)
(0,0,0)
(-1765313.01117391,405569.270976261,4467.0253591097)
(-1773213.93389359,403969.358251229,5076.00133385912)
(-1793610.3534467,402764.464816488,-4533.01733639938)
(-1841055.40094629,407853.051652705,-36205.8667429899)
(-1962647.88476663,434777.208358466,-105318.642415587)
(-2340624.22547076,520477.149679742,-164057.656273208)
(-3835172.84864383,704309.799292111,523071.022287021)
(-3125340.60308899,452816.079130397,413376.516185085)
(-3269859.73409871,167119.037590838,-878667.374415449)
(-3448404.79538308,1748.7611788406,-6383103.17378525)
(0,0,0)
(0,0,0)
(0,0,0)
(0,0,0)
(0,0,0)
(0,0,0)
(-2535633.59902984,-789288.630894129,2883.95969925346)
(-2540777.66172292,-790607.126448331,3882.06166735241)
(-2553855.37646428,-791824.765019258,541.623118101852)
(-2583042.12007132,-789461.077174501,-9321.23878111035)
(-2650036.90738117,-776939.196714868,-19680.5656411506)
(-2810363.30847381,-747406.649830442,19792.9079514318)
(-3160929.86085119,-725884.44313743,271691.858028528)
(-3275393.69467719,-888962.769865784,127825.64841682)
(-3576486.00344553,-1036776.57539637,-1043872.96021579)
(-3632956.65348653,-901700.910336478,-6384632.11325045)
(0,0,0)
(0,0,0)
(0,0,0)
(0,0,0)
(0,0,0)
(0,0,0)
(-3105136.28168285,-6240481.70043111,1591.99353888662)
(-3107643.3467137,-6242112.89198753,2649.40740602772)
(-3113918.38041108,-6244747.26305883,2838.091487057)
(-3127415.04213305,-6247497.74605925,3164.63839752014)
(-3156204.28698886,-6250614.87364524,9839.49694180297)
(-3216598.79698317,-6260416.25233941,41354.6442745335)
(-3328196.45777384,-6301768.19660795,108676.044112934)
(-3452170.35346272,-6410420.73479096,-19893.3680622593)
(-3634048.03183208,-6390583.76113317,-908587.153331971)
(-3506968.73323139,-5482249.98333024,-5482627.23275962)
(0,0,0)
(0,0,0)
(0,0,0)
(0,0,0)
(0,0,0)
(0,0,0)
(0,0,0)
(0,0,0)
(0,0,0)
(0,0,0)
(0,0,0)
(0,0,0)
(0,0,0)
(0,0,0)
(0,0,0)
(0,0,0)
(0,0,0)
(0,0,0)
(0,0,0)
(0,0,0)
(0,0,0)
(0,0,0)
(0,0,0)
(0,0,0)
(0,0,0)
(0,0,0)
(0,0,0)
(0,0,0)
(0,0,0)
(0,0,0)
(0,0,0)
(0,0,0)
(0,0,0)
(0,0,0)
(0,0,0)
(0,0,0)
(0,0,0)
(0,0,0)
(0,0,0)
(0,0,0)
(0,0,0)
(0,0,0)
(0,0,0)
(0,0,0)
(0,0,0)
(0,0,0)
(0,0,0)
(0,0,0)
(0,0,0)
(0,0,0)
(0,0,0)
(0,0,0)
(0,0,0)
(0,0,0)
(0,0,0)
(0,0,0)
(0,0,0)
(0,0,0)
(0,0,0)
(0,0,0)
(0,0,0)
(0,0,0)
(0,0,0)
(0,0,0)
(0,0,0)
(0,0,0)
(0,0,0)
(0,0,0)
(0,0,0)
(0,0,0)
(0,0,0)
(0,0,0)
(0,0,0)
(0,0,0)
(0,0,0)
(0,0,0)
(0,0,0)
(0,0,0)
(0,0,0)
(0,0,0)
(0,0,0)
(0,0,0)
(0,0,0)
(0,0,0)
(0,0,0)
(0,0,0)
(0,0,0)
(0,0,0)
(0,0,0)
(0,0,0)
(0,0,0)
(0,0,0)
(0,0,0)
(0,0,0)
(0,0,0)
(0,0,0)
(0,0,0)
(0,0,0)
(0,0,0)
(0,0,0)
(0,0,0)
(0,0,0)
(-504645.912690599,43600.5877981591,34450.8900398091)
(-519596.52944415,40136.1597157905,69725.5620943449)
(-552497.4810605,32316.6616025492,105901.677234906)
(-609892.93390241,18135.0342410449,141198.880414463)
(-702510.367096988,-5144.08503005683,168440.464966014)
(-844998.065048102,-38470.0694912335,164606.031557916)
(-1049828.3851723,-71905.0415673398,60672.1030765074)
(-1303828.90962276,-72015.8759691624,-324658.774371849)
(-1507050.45901301,-44179.8041584725,-1302571.51559537)
(-1309541.25917307,-18694.5312006981,-3074568.82607857)
(0,0,0)
(0,0,0)
(0,0,0)
(0,0,0)
(0,0,0)
(0,0,0)
(-521615.88966724,88959.5595835964,31005.6781843328)
(-535719.744968351,82456.6940333912,61854.621411526)
(-566807.407481708,67366.5690649436,91647.1530095947)
(-621111.600872888,38613.2338554246,117831.716497251)
(-709455.585907056,-13126.4503057646,135017.343405631)
(-847788.582896846,-99466.0197088894,131069.510836633)
(-1051259.29432712,-209054.970731831,60465.1019949156)
(-1297561.63803101,-206491.796837316,-296868.205271695)
(-1496989.39323497,-110305.669217331,-1277021.60471526)
(-1303355.31233455,-41865.7583804848,-3055704.94715786)
(0,0,0)
(0,0,0)
(0,0,0)
(0,0,0)
(0,0,0)
(0,0,0)
(-558748.044824181,136327.514434501,24509.6365988858)
(-571204.051624356,127853.376219695,46727.4861584429)
(-598650.129517945,107652.204091876,62820.5451943382)
(-646653.214532067,66685.9913037549,65974.3453521171)
(-726125.676425291,-17280.1160997752,48541.1206610432)
(-858715.524615979,-195667.675426702,21409.7332084792)
(-1082809.28749477,-538519.777457613,63033.9014375906)
(-1297654.69073305,-532252.539407265,-200593.893190208)
(-1472552.5077643,-216013.861540626,-1208395.24045848)
(-1288256.25467926,-67401.5587824774,-3013483.01944663)
(0,0,0)
(0,0,0)
(0,0,0)
(0,0,0)
(0,0,0)
(0,0,0)
(-622714.130172617,181725.810095368,16077.7623903052)
(-632877.981227293,173183.332644321,26552.7511712499)
(-654947.188923915,152719.754994256,21819.3428082523)
(-692738.052974371,110107.475416318,-18088.8301799001)
(-754981.714986018,13337.3935457919,-129970.689574722)
(-877983.251062344,-261008.23037941,-321484.525649668)
(-1323485.7078376,-1323774.2467708,69404.8374066476)
(-1392246.76548338,-1393574.16912402,115859.423870435)
(-1415915.55649075,-318229.298443862,-1059505.67121398)
(-1257924.82716029,-71662.5016498438,-2945658.95443608)
(0,0,0)
(0,0,0)
(0,0,0)
(0,0,0)
(0,0,0)
(0,0,0)
(-723822.635108726,211910.681518823,7554.42856459417)
(-731319.733213283,205293.992648944,6158.09218655564)
(-746702.083144054,190319.976425546,-20779.6745265036)
(-768883.542618411,162489.718641734,-114928.545157543)
(-784541.492536753,112167.451735013,-404342.119402309)
(-706799.273701337,29147.7870663895,-1384175.76465092)
(-7.52069705396652e-05,-1.92208953298655e-05,4.84896280536087e-05)