/*--------------------------------*- C++ -*----------------------------------*\
| =========                 |                                                 |
| \\      /  F ield         | foam-extend: Open Source Cstd::filesystem::create_directory();FD                    |
|  \\    /   O peration     | Version:     4.0                                |
|   \\  /    A nd           | Web:         http://www.foam-extend.org         |
|    \\/     M anipulation  |                                                 |
\*---------------------------------------------------------------------------*/
FoamFile
{
    version 2.0;
    format ascii;
    class volVectorField;
    location "Data/3690";
    object      H;
}
// * * * * * * * * * * * * * * * * * * * * * * * * * * * * * * * * * * * * * //

dimensions      [0 1 -1 0 0 0 0];

internalField   nonuniform List<vector>
4096
(
(0,0,0)
(0,0,0)
(0,0,0)
(0,0,0)
(0,0,0)
(0,0,0)
(0,0,0)
(0,0,0)
(0,0,0)
(0,0,0)
(0,0,0)
(0,0,0)
(0,0,0)
(0,0,0)
(0,0,0)
(0,0,0)
(0,0,0)
(0,0,0)
(0,0,0)
(0,0,0)
(0,0,0)
(0,0,0)
(0,0,0)
(0,0,0)
(0,0,0)
(0,0,0)
(0,0,0)
(0,0,0)
(0,0,0)
(0,0,0)
(0,0,0)
(0,0,0)
(0,0,0)
(0,0,0)
(0,0,0)
(0,0,0)
(0,0,0)
(0,0,0)
(0,0,0)
(0,0,0)
(0,0,0)
(0,0,0)
(0,0,0)
(0,0,0)
(0,0,0)
(0,0,0)
(0,0,0)
(0,0,0)
(0,0,0)
(0,0,0)
(0,0,0)
(0,0,0)
(0,0,0)
(0,0,0)
(0,0,0)
(0,0,0)
(0,0,0)
(0,0,0)
(0,0,0)
(0,0,0)
(0,0,0)
(0,0,0)
(0,0,0)
(0,0,0)
(0,0,0)
(0,0,0)
(0,0,0)
(0,0,0)
(0,0,0)
(0,0,0)
(0,0,0)
(0,0,0)
(0,0,0)
(0,0,0)
(0,0,0)
(0,0,0)
(0,0,0)
(0,0,0)
(0,0,0)
(0,0,0)
(0,0,0)
(0,0,0)
(0,0,0)
(0,0,0)
(0,0,0)
(0,0,0)
(0,0,0)
(0,0,0)
(0,0,0)
(0,0,0)
(0,0,0)
(0,0,0)
(0,0,0)
(0,0,0)
(0,0,0)
(0,0,0)
(0,0,0)
(0,0,0)
(0,0,0)
(0,0,0)
(0,0,0)
(0,0,0)
(0,0,0)
(0,0,0)
(0,0,0)
(0,0,0)
(0,0,0)
(0,0,0)
(0,0,0)
(0,0,0)
(0,0,0)
(0,0,0)
(0,0,0)
(0,0,0)
(0,0,0)
(0,0,0)
(0,0,0)
(0,0,0)
(0,0,0)
(0,0,0)
(0,0,0)
(0,0,0)
(0,0,0)
(0,0,0)
(0,0,0)
(0,0,0)
(0,0,0)
(0,0,0)
(0,0,0)
(0,0,0)
(0,0,0)
(0,0,0)
(0,0,0)
(0,0,0)
(0,0,0)
(0,0,0)
(0,0,0)
(0,0,0)
(0,0,0)
(0,0,0)
(0,0,0)
(0,0,0)
(0,0,0)
(0,0,0)
(0,0,0)
(0,0,0)
(0,0,0)
(0,0,0)
(0,0,0)
(0,0,0)
(0,0,0)
(0,0,0)
(0,0,0)
(0,0,0)
(0,0,0)
(0,0,0)
(0,0,0)
(0,0,0)
(0,0,0)
(0,0,0)
(0,0,0)
(0,0,0)
(0,0,0)
(0,0,0)
(0,0,0)
(0,0,0)
(0,0,0)
(0,0,0)
(0,0,0)
(0,0,0)
(0,0,0)
(0,0,0)
(0,0,0)
(0,0,0)
(0,0,0)
(0,0,0)
(0,0,0)
(0,0,0)
(0,0,0)
(0,0,0)
(0,0,0)
(0,0,0)
(0,0,0)
(0,0,0)
(0,0,0)
(0,0,0)
(0,0,0)
(0,0,0)
(0,0,0)
(0,0,0)
(0,0,0)
(0,0,0)
(0,0,0)
(0,0,0)
(0,0,0)
(0,0,0)
(0,0,0)
(0,0,0)
(0,0,0)
(0,0,0)
(0,0,0)
(0,0,0)
(0,0,0)
(0,0,0)
(0,0,0)
(0,0,0)
(0,0,0)
(0,0,0)
(0,0,0)
(0,0,0)
(0,0,0)
(0,0,0)
(0,0,0)
(0,0,0)
(0,0,0)
(0,0,0)
(0,0,0)
(0,0,0)
(0,0,0)
(0,0,0)
(0,0,0)
(0,0,0)
(0,0,0)
(0,0,0)
(0,0,0)
(0,0,0)
(0,0,0)
(0,0,0)
(0,0,0)
(0,0,0)
(0,0,0)
(0,0,0)
(0,0,0)
(0,0,0)
(0,0,0)
(0,0,0)
(0,0,0)
(0,0,0)
(0,0,0)
(0,0,0)
(0,0,0)
(0,0,0)
(0,0,0)
(0,0,0)
(0,0,0)
(0,0,0)
(0,0,0)
(0,0,0)
(0,0,0)
(0,0,0)
(0,0,0)
(0,0,0)
(0,0,0)
(0,0,0)
(0,0,0)
(0,0,0)
(0,0,0)
(0,0,0)
(0,0,0)
(0,0,0)
(0,0,0)
(0,0,0)
(0,0,0)
(0,0,0)
(0,0,0)
(0,0,0)
(0,0,0)
(0,0,0)
(0,0,0)
(0,0,0)
(0,0,0)
(0,0,0)
(0,0,0)
(0,0,0)
(0,0,0)
(0,0,0)
(0,0,0)
(0,0,0)
(0,0,0)
(0,0,0)
(0,0,0)
(0,0,0)
(0,0,0)
(0,0,0)
(0,0,0)
(0,0,0)
(0,0,0)
(0,0,0)
(0,0,0)
(0,0,0)
(0,0,0)
(0,0,0)
(0,0,0)
(0,0,0)
(0,0,0)
(0,0,0)
(0,0,0)
(0,0,0)
(0,0,0)
(0,0,0)
(0,0,0)
(0,0,0)
(0,0,0)
(0,0,0)
(0,0,0)
(0,0,0)
(0,0,0)
(0,0,0)
(0,0,0)
(0,0,0)
(0,0,0)
(0,0,0)
(0,0,0)
(0,0,0)
(0,0,0)
(0,0,0)
(0,0,0)
(0,0,0)
(0,0,0)
(0,0,0)
(0,0,0)
(0,0,0)
(0,0,0)
(0,0,0)
(0,0,0)
(0,0,0)
(0,0,0)
(0,0,0)
(0,0,0)
(0,0,0)
(0,0,0)
(0,0,0)
(0,0,0)
(0,0,0)
(0,0,0)
(0,0,0)
(0,0,0)
(0,0,0)
(0,0,0)
(0,0,0)
(0,0,0)
(0,0,0)
(0,0,0)
(0,0,0)
(0,0,0)
(0,0,0)
(0,0,0)
(0,0,0)
(0,0,0)
(0,0,0)
(0,0,0)
(0,0,0)
(0,0,0)
(0,0,0)
(0,0,0)
(0,0,0)
(0,0,0)
(0,0,0)
(0,0,0)
(0,0,0)
(0,0,0)
(0,0,0)
(0,0,0)
(0,0,0)
(0,0,0)
(0,0,0)
(0,0,0)
(0,0,0)
(0,0,0)
(0,0,0)
(0,0,0)
(0,0,0)
(0,0,0)
(0,0,0)
(0,0,0)
(0,0,0)
(0,0,0)
(0,0,0)
(0,0,0)
(0,0,0)
(0,0,0)
(0,0,0)
(0,0,0)
(0,0,0)
(0,0,0)
(0,0,0)
(0,0,0)
(0,0,0)
(0,0,0)
(0,0,0)
(0,0,0)
(0,0,0)
(0,0,0)
(0,0,0)
(0,0,0)
(0,0,0)
(0,0,0)
(0,0,0)
(0,0,0)
(0,0,0)
(0,0,0)
(0,0,0)
(0,0,0)
(0,0,0)
(0,0,0)
(0,0,0)
(0,0,0)
(0,0,0)
(0,0,0)
(0,0,0)
(0,0,0)
(0,0,0)
(0,0,0)
(0,0,0)
(0,0,0)
(0,0,0)
(0,0,0)
(0,0,0)
(0,0,0)
(0,0,0)
(0,0,0)
(0,0,0)
(0,0,0)
(0,0,0)
(0,0,0)
(0,0,0)
(0,0,0)
(0,0,0)
(0,0,0)
(0,0,0)
(0,0,0)
(0,0,0)
(0,0,0)
(0,0,0)
(0,0,0)
(0,0,0)
(0,0,0)
(0,0,0)
(0,0,0)
(0,0,0)
(0,0,0)
(0,0,0)
(0,0,0)
(0,0,0)
(0,0,0)
(0,0,0)
(0,0,0)
(0,0,0)
(0,0,0)
(0,0,0)
(0,0,0)
(0,0,0)
(0,0,0)
(0,0,0)
(0,0,0)
(0,0,0)
(0,0,0)
(0,0,0)
(0,0,0)
(0,0,0)
(0,0,0)
(0,0,0)
(0,0,0)
(0,0,0)
(0,0,0)
(0,0,0)
(0,0,0)
(0,0,0)
(0,0,0)
(0,0,0)
(0,0,0)
(0,0,0)
(0,0,0)
(0,0,0)
(0,0,0)
(0,0,0)
(0,0,0)
(0,0,0)
(0,0,0)
(0,0,0)
(0,0,0)
(0,0,0)
(0,0,0)
(0,0,0)
(0,0,0)
(0,0,0)
(0,0,0)
(0,0,0)
(0,0,0)
(0,0,0)
(0,0,0)
(0,0,0)
(0,0,0)
(0,0,0)
(0,0,0)
(0,0,0)
(0,0,0)
(0,0,0)
(0,0,0)
(0,0,0)
(0,0,0)
(0,0,0)
(0,0,0)
(0,0,0)
(0,0,0)
(0,0,0)
(0,0,0)
(0,0,0)
(0,0,0)
(0,0,0)
(0,0,0)
(0,0,0)
(0,0,0)
(0,0,0)
(0,0,0)
(0,0,0)
(0,0,0)
(0,0,0)
(0,0,0)
(0,0,0)
(0,0,0)
(0,0,0)
(0,0,0)
(0,0,0)
(0,0,0)
(0,0,0)
(0,0,0)
(0,0,0)
(0,0,0)
(0,0,0)
(0,0,0)
(0,0,0)
(0,0,0)
(0,0,0)
(0,0,0)
(0,0,0)
(0,0,0)
(0,0,0)
(0,0,0)
(0,0,0)
(0,0,0)
(0,0,0)
(0,0,0)
(0,0,0)
(0,0,0)
(0,0,0)
(0,0,0)
(0,0,0)
(0,0,0)
(0,0,0)
(0,0,0)
(0,0,0)
(0,0,0)
(0,0,0)
(0,0,0)
(0,0,0)
(0,0,0)
(0,0,0)
(0,0,0)
(0,0,0)
(0,0,0)
(0,0,0)
(0,0,0)
(0,0,0)
(0,0,0)
(0,0,0)
(0,0,0)
(0,0,0)
(0,0,0)
(0,0,0)
(0,0,0)
(0,0,0)
(0,0,0)
(0,0,0)
(0,0,0)
(0,0,0)
(0,0,0)
(0,0,0)
(0,0,0)
(0,0,0)
(0,0,0)
(0,0,0)
(0,0,0)
(0,0,0)
(0,0,0)
(0,0,0)
(0,0,0)
(0,0,0)
(0,0,0)
(0,0,0)
(0,0,0)
(0,0,0)
(0,0,0)
(0,0,0)
(0,0,0)
(0,0,0)
(0,0,0)
(0,0,0)
(0,0,0)
(0,0,0)
(0,0,0)
(0,0,0)
(0,0,0)
(0,0,0)
(0,0,0)
(0,0,0)
(0,0,0)
(0,0,0)
(0,0,0)
(0,0,0)
(0,0,0)
(0,0,0)
(0,0,0)
(0,0,0)
(0,0,0)
(0,0,0)
(0,0,0)
(0,0,0)
(0,0,0)
(0,0,0)
(0,0,0)
(0,0,0)
(0,0,0)
(0,0,0)
(0,0,0)
(0,0,0)
(0,0,0)
(0,0,0)
(0,0,0)
(0,0,0)
(0,0,0)
(0,0,0)
(0,0,0)
(0,0,0)
(0,0,0)
(0,0,0)
(0,0,0)
(0,0,0)
(0,0,0)
(0,0,0)
(0,0,0)
(0,0,0)
(0,0,0)
(0,0,0)
(0,0,0)
(0,0,0)
(0,0,0)
(0,0,0)
(0,0,0)
(0,0,0)
(0,0,0)
(0,0,0)
(0,0,0)
(0,0,0)
(0,0,0)
(0,0,0)
(0,0,0)
(0,0,0)
(0,0,0)
(0,0,0)
(0,0,0)
(0,0,0)
(0,0,0)
(0,0,0)
(0,0,0)
(0,0,0)
(0,0,0)
(0,0,0)
(0,0,0)
(0,0,0)
(0,0,0)
(0,0,0)
(0,0,0)
(0,0,0)
(0,0,0)
(0,0,0)
(0,0,0)
(0,0,0)
(0,0,0)
(0,0,0)
(0,0,0)
(0,0,0)
(0,0,0)
(0,0,0)
(0,0,0)
(0,0,0)
(0,0,0)
(0,0,0)
(0,0,0)
(0,0,0)
(0,0,0)
(0,0,0)
(0,0,0)
(0,0,0)
(0,0,0)
(0,0,0)
(0,0,0)
(0,0,0)
(0,0,0)
(0,0,0)
(0,0,0)
(0,0,0)
(0,0,0)
(0,0,0)
(0,0,0)
(0,0,0)
(0,0,0)
(0,0,0)
(0,0,0)
(0,0,0)
(0,0,0)
(0,0,0)
(0,0,0)
(0,0,0)
(0,0,0)
(0,0,0)
(0,0,0)
(0,0,0)
(0,0,0)
(0,0,0)
(0,0,0)
(0,0,0)
(0,0,0)
(0,0,0)
(0,0,0)
(0,0,0)
(0,0,0)
(0,0,0)
(0,0,0)
(0,0,0)
(0,0,0)
(0,0,0)
(0,0,0)
(0,0,0)
(0,0,0)
(0,0,0)
(0,0,0)
(0,0,0)
(0,0,0)
(0,0,0)
(0,0,0)
(0,0,0)
(0,0,0)
(0,0,0)
(0,0,0)
(0,0,0)
(0,0,0)
(0,0,0)
(0,0,0)
(0,0,0)
(0,0,0)
(0,0,0)
(0,0,0)
(0,0,0)
(0,0,0)
(0,0,0)
(0,0,0)
(0,0,0)
(0,0,0)
(0,0,0)
(0,0,0)
(0,0,0)
(0,0,0)
(0,0,0)
(0,0,0)
(0,0,0)
(0,0,0)
(0,0,0)
(0,0,0)
(0,0,0)
(0,0,0)
(0,0,0)
(0,0,0)
(0,0,0)
(0,0,0)
(0,0,0)
(0,0,0)
(0,0,0)
(0,0,0)
(0,0,0)
(0,0,0)
(0,0,0)
(0,0,0)
(0,0,0)
(0,0,0)
(0,0,0)
(0,0,0)
(0,0,0)
(0,0,0)
(0,0,0)
(0,0,0)
(0,0,0)
(0,0,0)
(0,0,0)
(0,0,0)
(0,0,0)
(0,0,0)
(0,0,0)
(0,0,0)
(0,0,0)
(0,0,0)
(0,0,0)
(0,0,0)
(0,0,0)
(0,0,0)
(0,0,0)
(0,0,0)
(0,0,0)
(0,0,0)
(0,0,0)
(0,0,0)
(0,0,0)
(0,0,0)
(0,0,0)
(0,0,0)
(0,0,0)
(0,0,0)
(0,0,0)
(0,0,0)
(4.00378502516075e-13,-5.94385787069463e-12,7.17852638067475e-12)
(6.93117120308435e-13,-1.07421401886401e-11,6.41350894556468e-12)
(8.11153059715369e-14,-1.59767469348497e-11,5.7689100911867e-12)
(-1.5865644724877e-12,-2.49819434632553e-11,4.88812117673203e-12)
(-3.14446126738776e-12,-3.88558154671462e-11,3.24205753154895e-12)
(-2.96852758633098e-12,-6.026745388839e-11,1.26973290011148e-12)
(-1.03231072233398e-12,-9.55548459740581e-11,-1.93789440148924e-13)
(-4.11154479731197e-13,-1.55626042877214e-10,-1.13162074610609e-13)
(4.46074652122141e-13,-2.55358999840729e-10,1.35651426469201e-13)
(1.60183774441948e-12,-3.95252541143124e-10,1.41923714949327e-13)
(0,0,0)
(0,0,0)
(0,0,0)
(0,0,0)
(0,0,0)
(0,0,0)
(-3.33131242069381e-13,-4.91823566708034e-12,1.32060388168693e-11)
(-1.35986469138697e-12,-9.62430922889882e-12,1.27007409336197e-11)
(-3.90551341920976e-12,-1.48259173399321e-11,1.15567013141604e-11)
(-6.1915460089396e-12,-2.33653539255761e-11,9.5484350835579e-12)
(-7.62882189340716e-12,-3.72357195853204e-11,6.85892713123385e-12)
(-6.44541662568193e-12,-5.91204603804605e-11,3.91290526854073e-12)
(-2.06506421868286e-12,-9.55071286862027e-11,1.55720669167249e-12)
(4.61454451554281e-14,-1.55950597706842e-10,9.95777385467001e-13)
(9.42936757676717e-13,-2.55543734135537e-10,5.77497373880241e-13)
(2.16634243130062e-12,-3.95417955203151e-10,1.93241872831096e-13)
(0,0,0)
(0,0,0)
(0,0,0)
(0,0,0)
(0,0,0)
(0,0,0)
(-4.16784891685289e-14,-4.04494879237853e-12,1.90380780394709e-11)
(-2.23969401486164e-12,-8.01554964462998e-12,1.85871276677949e-11)
(-6.84118993778131e-12,-1.28770404075014e-11,1.72772911983949e-11)
(-9.68027329086197e-12,-2.09870832382483e-11,1.45954966542187e-11)
(-1.09732950913853e-11,-3.49869301982941e-11,1.16580638398793e-11)
(-9.24714606173848e-12,-5.72953736859869e-11,8.30163959585185e-12)
(-3.77107868282881e-12,-9.4797243937672e-11,5.24396206792387e-12)
(3.42977835592524e-13,-1.56143385211416e-10,3.62489893805872e-12)
(2.32764098763565e-12,-2.56067945369082e-10,2.07362793028171e-12)
(4.00936255579355e-12,-3.9601393453054e-10,8.93382380555289e-13)
(0,0,0)
(0,0,0)
(0,0,0)
(0,0,0)
(0,0,0)
(0,0,0)
(-1.11718318104863e-12,-2.76758954864503e-12,2.71970191597876e-11)
(-4.03902164434476e-12,-6.03497178514374e-12,2.69023989947486e-11)
(-8.46925412317442e-12,-1.04504995213503e-11,2.59111691402451e-11)
(-1.12022928239844e-11,-1.81207418885938e-11,2.36178885991053e-11)
(-1.18628237972347e-11,-3.18680362421985e-11,2.05336216315178e-11)
(-9.21994400879731e-12,-5.45809301642604e-11,1.64810209546988e-11)
(-2.96381797250518e-12,-9.31198717041043e-11,1.24853976813439e-11)
(2.47718206960265e-12,-1.55743315985187e-10,9.49882818684925e-12)
(5.13296494246051e-12,-2.56570959073654e-10,6.41549737471508e-12)
(6.30101120746116e-12,-3.96710346875723e-10,3.27664718270436e-12)
(0,0,0)
(0,0,0)
(0,0,0)
(0,0,0)
(0,0,0)
(0,0,0)
(-1.51986309983971e-12,-1.54440730421036e-12,4.13746154534027e-11)
(-4.17466709257369e-12,-4.13953583827423e-12,4.08453869054595e-11)
(-7.67646949607127e-12,-7.93269907025061e-12,3.98704350183171e-11)
(-1.06286530386381e-11,-1.46331606608239e-11,3.79330165235176e-11)
(-1.07886979365633e-11,-2.74036308029571e-11,3.4926177121675e-11)
(-7.20999724466344e-12,-5.00732646703357e-11,3.08484542809923e-11)
(-5.75937612978929e-13,-8.95964043338306e-11,2.66593078259346e-11)
(4.92923051673325e-12,-1.53882633388428e-10,2.17555902339916e-11)
(7.95002022509072e-12,-2.55441450537688e-10,1.57494798064238e-11)
(7.92731595195899e-12,-3.95568878621745e-10,8.56195938338706e-12)
(0,0,0)
(0,0,0)
(0,0,0)
(0,0,0)
(0,0,0)
(0,0,0)
(-8.78864709721655e-13,-4.2406042034922e-13,6.26246908650275e-11)
(-2.72879536397961e-12,-2.19497205700529e-12,6.19064618980167e-11)
(-4.90123571145344e-12,-5.56786255069906e-12,6.11287418016818e-11)
(-6.53802313525506e-12,-1.15050297712434e-11,5.98180721937667e-11)
(-5.68969528335178e-12,-2.31077490039437e-11,5.76223902854958e-11)
(-1.5838162056608e-12,-4.51251283772793e-11,5.41998260152742e-11)
(4.19768832821754e-12,-8.52039694696454e-11,4.92214356848378e-11)
(8.52800271525945e-12,-1.49604689110532e-10,4.16437571734932e-11)
(1.10706165242504e-11,-2.50279962249068e-10,3.0779297271729e-11)
(1.09991707006764e-11,-3.89401454723034e-10,1.67492229692417e-11)
(0,0,0)
(0,0,0)
(0,0,0)
(0,0,0)
(0,0,0)
(0,0,0)
(-1.04137096992812e-12,6.13893912607013e-13,9.68815352239283e-11)
(-2.22364454062977e-12,-5.28627164263548e-13,9.65923060216806e-11)
(-1.90291034386382e-12,-3.64666339586536e-12,9.64528025416417e-11)
(-1.01953412209267e-12,-8.90230631432115e-12,9.5939390867438e-11)
(9.92792342601008e-13,-1.9166463139275e-11,9.44470489037245e-11)
(4.74813283670993e-12,-3.94324698820586e-11,9.14121118911712e-11)
(8.60200034301711e-12,-7.83095421364919e-11,8.47436951588904e-11)
(1.2290663929833e-11,-1.40214038976777e-10,7.32622296942403e-11)
(1.47713512754839e-11,-2.37726511466237e-10,5.50290086223416e-11)
(1.56150928343863e-11,-3.74560225661263e-10,3.01537136057255e-11)
(0,0,0)
(0,0,0)
(0,0,0)
(0,0,0)
(0,0,0)
(0,0,0)
(-1.1457482775546e-12,8.68478869399092e-13,1.56195976003021e-10)
(-2.02765285901192e-12,2.52842310754912e-13,1.56043366495512e-10)
(-2.25660083978078e-13,-2.29666547740242e-12,1.5616026169393e-10)
(2.41313021469077e-12,-6.77652850110602e-12,1.56066144038915e-10)
(5.06023569760712e-12,-1.60747062386368e-11,1.54362309835766e-10)
(8.15623163284886e-12,-3.38880731496705e-11,1.50532623430697e-10)
(1.12929240787156e-11,-6.76362487223524e-11,1.41929407718749e-10)
(1.52324856230932e-11,-1.22817350526641e-10,1.24829535342933e-10)
(1.7773357426899e-11,-2.13696289316967e-10,9.66716020968685e-11)
(1.93552736336479e-11,-3.45659241421628e-10,5.47370915792699e-11)
(0,0,0)
(0,0,0)
(0,0,0)
(0,0,0)
(0,0,0)
(0,0,0)
(-2.43696333044375e-12,8.37596841233197e-13,2.55111031695178e-10)
(-2.93277530121449e-12,4.99358772330514e-13,2.55350265871585e-10)
(-2.81825762552178e-13,-1.31762049994075e-12,2.55420387431506e-10)
(2.77361288370002e-12,-4.36876073012669e-12,2.55004530155997e-10)
(6.52871397537597e-12,-1.22190664049432e-11,2.53170311950598e-10)
(1.15477462819509e-11,-2.6115555003095e-11,2.48104563214398e-10)
(1.50613308965603e-11,-5.13085456591675e-11,2.36531940502629e-10)
(1.84834404639667e-11,-9.51528044142551e-11,2.13286762319735e-10)
(2.19353205358742e-11,-1.72326387392804e-10,1.72031023247661e-10)
(2.32529271673873e-11,-2.91476177445241e-10,1.03038249819951e-10)
(0,0,0)
(0,0,0)
(0,0,0)
(0,0,0)
(0,0,0)
(0,0,0)
(-3.46251204468605e-12,3.00696244050836e-13,3.94529260604004e-10)
(-4.39677279389931e-12,4.5752520586094e-13,3.94710652315422e-10)
(-2.20726264396574e-12,-3.53883058602585e-13,3.94836277982613e-10)
(1.3983743166924e-12,-1.83528998875058e-12,3.93996717123501e-10)
(7.14550119283189e-12,-6.55371177161033e-12,3.92040063595623e-10)
(1.3662940326753e-11,-1.43458154870857e-11,3.85887990531163e-10)
(1.67432470003904e-11,-2.8099325189364e-11,3.71963131599162e-10)
(1.97608703797761e-11,-5.39521011022795e-11,3.44118628651809e-10)
(2.36613434960708e-11,-1.03549585961186e-10,2.90630655032848e-10)
(2.48874888903176e-11,-1.88369555321894e-10,1.87511833798898e-10)
(0,0,0)
(0,0,0)
(0,0,0)
(0,0,0)
(0,0,0)
(0,0,0)
(0,0,0)
(0,0,0)
(0,0,0)
(0,0,0)
(0,0,0)
(0,0,0)
(0,0,0)
(0,0,0)
(0,0,0)
(0,0,0)
(0,0,0)
(0,0,0)
(0,0,0)
(0,0,0)
(0,0,0)
(0,0,0)
(0,0,0)
(0,0,0)
(0,0,0)
(0,0,0)
(0,0,0)
(0,0,0)
(0,0,0)
(0,0,0)
(0,0,0)
(0,0,0)
(0,0,0)
(0,0,0)
(0,0,0)
(0,0,0)
(0,0,0)
(0,0,0)
(0,0,0)
(0,0,0)
(0,0,0)
(0,0,0)
(0,0,0)
(0,0,0)
(0,0,0)
(0,0,0)
(0,0,0)
(0,0,0)
(0,0,0)
(0,0,0)
(0,0,0)
(0,0,0)
(0,0,0)
(0,0,0)
(0,0,0)
(0,0,0)
(0,0,0)
(0,0,0)
(0,0,0)
(0,0,0)
(0,0,0)
(0,0,0)
(0,0,0)
(0,0,0)
(0,0,0)
(0,0,0)
(0,0,0)
(0,0,0)
(0,0,0)
(0,0,0)
(0,0,0)
(0,0,0)
(0,0,0)
(0,0,0)
(0,0,0)
(0,0,0)
(0,0,0)
(0,0,0)
(0,0,0)
(0,0,0)
(0,0,0)
(0,0,0)
(0,0,0)
(0,0,0)
(0,0,0)
(0,0,0)
(0,0,0)
(0,0,0)
(0,0,0)
(0,0,0)
(0,0,0)
(0,0,0)
(0,0,0)
(0,0,0)
(0,0,0)
(0,0,0)
(0,0,0)
(0,0,0)
(0,0,0)
(0,0,0)
(0,0,0)
(0,0,0)
(1.39773734007977e-13,-1.13210826169971e-11,1.3312660524204e-11)
(2.19885014945372e-13,-2.09684394766972e-11,1.20494791023218e-11)
(-1.88925374505999e-13,-3.11937355738065e-11,1.05423241708035e-11)
(-1.55709036500124e-12,-4.72044257748762e-11,8.85388398808024e-12)
(-2.79223251783172e-12,-7.13543397299787e-11,6.09647470840695e-12)
(-2.65199875392709e-12,-1.08889235356552e-10,2.80699336618793e-12)
(-1.16065537557847e-12,-1.69310007079454e-10,8.81493693794138e-14)
(-3.35413151375272e-13,-2.73012329092709e-10,-5.21977250165409e-13)
(6.24536658017416e-13,-4.72500641014063e-10,-4.16392792821877e-13)
(1.90917551918669e-12,-9.33064078252295e-10,-4.19487991555635e-13)
(0,0,0)
(0,0,0)
(0,0,0)
(0,0,0)
(0,0,0)
(0,0,0)
(-7.01120233522527e-13,-9.48118659729663e-12,2.41620131799187e-11)
(-1.82458465618453e-12,-1.85738842733332e-11,2.31834752102708e-11)
(-3.84612412105881e-12,-2.889351828001e-11,2.08840237620406e-11)
(-5.88030874392103e-12,-4.44637979732155e-11,1.73387113483001e-11)
(-6.93158941773691e-12,-6.84082149148292e-11,1.22549721609379e-11)
(-5.91480474331176e-12,-1.06440918429755e-10,6.48498418810055e-12)
(-2.21351966113163e-12,-1.68618173812061e-10,1.5062963709887e-12)
(6.57212961710024e-13,-2.73812819892227e-10,-3.61307014371162e-14)
(1.85140349266393e-12,-4.73781726719372e-10,-3.07693970902539e-13)
(2.95556363142228e-12,-9.34389255663595e-10,-4.90102802534238e-13)
(0,0,0)
(0,0,0)
(0,0,0)
(0,0,0)
(0,0,0)
(0,0,0)
(-8.68087361224748e-13,-7.81101017219444e-12,3.63185378164871e-11)
(-2.91043540494361e-12,-1.54754365026121e-11,3.52160766828702e-11)
(-6.58593627972246e-12,-2.49051306580641e-11,3.2523119804957e-11)
(-9.60918182618862e-12,-3.94886657989915e-11,2.76905865856782e-11)
(-1.07357648035091e-11,-6.32848844839252e-11,2.10327795117945e-11)
(-8.90391205554909e-12,-1.02004105096701e-10,1.31759880203112e-11)
(-3.82938778642057e-12,-1.66950198682541e-10,5.9440910133147e-12)
(1.49417961697088e-12,-2.74957852104306e-10,3.0912086348434e-12)
(4.01090024185479e-12,-4.7604753402744e-10,1.76337022566855e-12)
(5.59915728120908e-12,-9.36823080808205e-10,6.03500951821729e-13)
(0,0,0)
(0,0,0)
(0,0,0)
(0,0,0)
(0,0,0)
(0,0,0)
(-2.04574526044381e-12,-5.57487903184073e-12,5.25743982902082e-11)
(-4.9432277367127e-12,-1.18021034941028e-11,5.13355332209751e-11)
(-8.69377403314557e-12,-1.9864195723271e-11,4.84530209912833e-11)
(-1.16056070841671e-11,-3.28835122199313e-11,4.36418130812136e-11)
(-1.22746285596672e-11,-5.56152868333824e-11,3.64534229584492e-11)
(-9.7319862293747e-12,-9.47702444348369e-11,2.74877366603206e-11)
(-3.50071584834415e-12,-1.63405207905908e-10,1.83614363089187e-11)
(3.69983028504549e-12,-2.75556613642597e-10,1.33100397457416e-11)
(7.14230659922058e-12,-4.77853374258475e-10,9.21723359130796e-12)
(8.43619013740195e-12,-9.38587325467786e-10,4.64359411362896e-12)
(0,0,0)
(0,0,0)
(0,0,0)
(0,0,0)
(0,0,0)
(0,0,0)
(-2.11098143575867e-12,-3.43809718006391e-12,7.68376827799468e-11)
(-5.14427898670247e-12,-8.1105750448811e-12,7.57059912738261e-11)
(-8.10388752082635e-12,-1.47145769046882e-11,7.29568938414264e-11)
(-1.07499445263776e-11,-2.55203258277048e-11,6.86957692132735e-11)
(-1.10068568948785e-11,-4.58667759979926e-11,6.23260829440058e-11)
(-7.96898708273191e-12,-8.37417418261919e-11,5.50321210586515e-11)
(-6.46548851226233e-14,-1.55124967991624e-10,4.90343334515591e-11)
(6.65739666653933e-12,-2.73389725163538e-10,3.84146673458465e-11)
(9.97605235910077e-12,-4.76403433604244e-10,2.69511247047813e-11)
(1.03218514361754e-11,-9.36595207004287e-10,1.41701419951792e-11)
(0,0,0)
(0,0,0)
(0,0,0)
(0,0,0)
(0,0,0)
(0,0,0)
(-1.19859007566534e-12,-1.56324502236239e-12,1.12732908350609e-10)
(-3.61742016039176e-12,-4.21762334888218e-12,1.11663144139226e-10)
(-5.51176525838263e-12,-9.57325348330004e-12,1.09628259080877e-10)
(-6.94506468390269e-12,-1.84534805991969e-11,1.06480849125204e-10)
(-6.20841687778514e-12,-3.63268585064591e-11,1.01980886248076e-10)
(-2.29808437047018e-12,-7.32144550148139e-11,9.64273475300194e-11)
(4.88093950636733e-12,-1.48218671798777e-10,8.96186598542738e-11)
(1.00018124832022e-11,-2.66302618472132e-10,7.56715862486311e-11)
(1.25472400438188e-11,-4.67170080071418e-10,5.48266522549442e-11)
(1.29071646086258e-11,-9.25508615937826e-10,2.91813791265599e-11)
(0,0,0)
(0,0,0)
(0,0,0)
(0,0,0)
(0,0,0)
(0,0,0)
(-1.00672672447413e-12,4.01870185818292e-14,1.7032628554883e-10)
(-2.86561053560626e-12,-1.10000065751552e-12,1.69911668065979e-10)
(-2.7394965881151e-12,-5.45208708425099e-12,1.69111264285098e-10)
(-1.65296997160317e-12,-1.28709955245158e-11,1.67772208511261e-10)
(9.35972454552006e-13,-2.82089858504557e-11,1.65869115670174e-10)
(5.87215283660408e-12,-6.16003247830833e-11,1.62096803032784e-10)
(9.41017239356884e-12,-1.36227346080854e-10,1.50052880512585e-10)
(1.31271965514289e-11,-2.49333024978298e-10,1.32458297804909e-10)
(1.56164241430083e-11,-4.4449127513798e-10,9.79718340035444e-11)
(1.68678222014064e-11,-8.98799101204394e-10,5.28712617871535e-11)
(0,0,0)
(0,0,0)
(0,0,0)
(0,0,0)
(0,0,0)
(0,0,0)
(-9.62256741879346e-13,5.62348507979047e-13,2.72551138087747e-10)
(-2.39106451900299e-12,2.24713482699773e-13,2.72638009463e-10)
(-1.11058740642144e-12,-3.2050988147369e-12,2.72873176874831e-10)
(1.70919664685707e-12,-9.95758108321117e-12,2.72637838812267e-10)
(5.03428226895813e-12,-2.46363823810567e-11,2.71127339083619e-10)
(8.98692919827969e-12,-5.57218293915682e-11,2.66615764949512e-10)
(1.20650933914207e-11,-1.19375381863225e-10,2.53351642271454e-10)
(1.57258727565054e-11,-2.17420471063143e-10,2.23158637738939e-10)
(1.83379660205028e-11,-4.01735623815001e-10,1.71761771445546e-10)
(1.99093012355602e-11,-8.47983766567589e-10,9.74702670072489e-11)
(0,0,0)
(0,0,0)
(0,0,0)
(0,0,0)
(0,0,0)
(0,0,0)
(-2.13929690966938e-12,7.71029777348443e-13,4.69979216063404e-10)
(-2.96106329466546e-12,6.18339791053205e-13,4.70380363155453e-10)
(-8.29705928375439e-13,-1.79832299757696e-12,4.70907878855646e-10)
(2.07436034773041e-12,-6.94813673554842e-12,4.70488911917125e-10)
(5.92910807825616e-12,-1.94853945187376e-11,4.68201078001253e-10)
(1.1350629477682e-11,-4.3895570609237e-11,4.60983526282954e-10)
(1.50972886096705e-11,-8.99590758027611e-11,4.42485691332492e-10)
(1.85384762240817e-11,-1.67584803869476e-10,4.02260566494956e-10)
(2.2151292531922e-11,-3.29108283263307e-10,3.29726175652153e-10)
(2.31845548639069e-11,-7.51862137003629e-10,2.05699785245615e-10)
(0,0,0)
(0,0,0)
(0,0,0)
(0,0,0)
(0,0,0)
(0,0,0)
(-3.34320751205207e-12,5.86101732382161e-13,9.28686053739771e-10)
(-4.06487325523051e-12,8.41154747144026e-13,9.29390830330481e-10)
(-1.72158484346015e-12,-4.52146350933602e-13,9.3049194323825e-10)
(1.51973785581963e-12,-3.43223522466002e-12,9.29747058759342e-10)
(6.74386248567114e-12,-1.09764876234013e-11,9.2652016654944e-10)
(1.3241983771657e-11,-2.44128816041921e-11,9.16728606113781e-10)
(1.64884247583504e-11,-4.90213308095971e-11,8.94046945952477e-10)
(1.92967428964957e-11,-9.51697611499087e-11,8.4599347877488e-10)
(2.32305787688328e-11,-2.05222479761579e-10,7.50950099519383e-10)
(2.40297673674604e-11,-5.46322744661207e-10,5.46088754070266e-10)
(0,0,0)
(0,0,0)
(0,0,0)
(0,0,0)
(0,0,0)
(0,0,0)
(0,0,0)
(0,0,0)
(0,0,0)
(0,0,0)
(0,0,0)
(0,0,0)
(0,0,0)
(0,0,0)
(0,0,0)
(0,0,0)
(0,0,0)
(0,0,0)
(0,0,0)
(0,0,0)
(0,0,0)
(0,0,0)
(0,0,0)
(0,0,0)
(0,0,0)
(0,0,0)
(0,0,0)
(0,0,0)
(0,0,0)
(0,0,0)
(0,0,0)
(0,0,0)
(0,0,0)
(0,0,0)
(0,0,0)
(0,0,0)
(0,0,0)
(0,0,0)
(0,0,0)
(0,0,0)
(0,0,0)
(0,0,0)
(0,0,0)
(0,0,0)
(0,0,0)
(0,0,0)
(0,0,0)
(0,0,0)
(0,0,0)
(0,0,0)
(0,0,0)
(0,0,0)
(0,0,0)
(0,0,0)
(0,0,0)
(0,0,0)
(0,0,0)
(0,0,0)
(0,0,0)
(0,0,0)
(0,0,0)
(0,0,0)
(0,0,0)
(0,0,0)
(0,0,0)
(0,0,0)
(0,0,0)
(0,0,0)
(0,0,0)
(0,0,0)
(0,0,0)
(0,0,0)
(0,0,0)
(0,0,0)
(0,0,0)
(0,0,0)
(0,0,0)
(0,0,0)
(0,0,0)
(0,0,0)
(0,0,0)
(0,0,0)
(0,0,0)
(0,0,0)
(0,0,0)
(0,0,0)
(0,0,0)
(0,0,0)
(0,0,0)
(0,0,0)
(0,0,0)
(0,0,0)
(0,0,0)
(0,0,0)
(0,0,0)
(0,0,0)
(0,0,0)
(0,0,0)
(0,0,0)
(0,0,0)
(0,0,0)
(0,0,0)
(-4.36940863871043e-13,-1.42429798086325e-11,1.60748431030893e-11)
(-6.67515256647118e-13,-2.78692143605289e-11,1.44848458193003e-11)
(-8.00702484975341e-13,-4.20598924402708e-11,1.22258022157811e-11)
(-1.54030888722233e-12,-6.25508496132393e-11,9.66040014515913e-12)
(-2.4488759912337e-12,-9.15579929177364e-11,5.90878573936467e-12)
(-2.38147168328996e-12,-1.35295291429886e-10,1.31930783916474e-12)
(-1.24236202398999e-12,-2.00336219662561e-10,-2.49946505183192e-12)
(3.59493190353527e-13,-2.96140074903923e-10,-3.27760334167333e-12)
(1.90871756264336e-12,-4.32390894031081e-10,-2.71629087114474e-12)
(2.81486493773676e-12,-5.99579536328991e-10,-1.78670140308114e-12)
(0,0,0)
(0,0,0)
(0,0,0)
(0,0,0)
(0,0,0)
(0,0,0)
(-1.39275868899843e-12,-1.22095392675145e-11,3.17963893173954e-11)
(-2.62358097915704e-12,-2.49444566256551e-11,2.99934034480824e-11)
(-4.28919933023464e-12,-3.91294959453041e-11,2.6228177921026e-11)
(-5.77170173058924e-12,-5.88983426267653e-11,2.06818879240062e-11)
(-6.28493187525457e-12,-8.73174179836923e-11,1.28935687854723e-11)
(-5.37293025976838e-12,-1.31794062029608e-10,3.48933690107493e-12)
(-2.33906771888958e-12,-1.99922489782808e-10,-4.83367242453399e-12)
(2.07380844396132e-12,-2.97942262761502e-10,-6.34612583395342e-12)
(4.29961963293778e-12,-4.34722671023271e-10,-4.65488203020282e-12)
(4.89928597381498e-12,-6.02155145604496e-10,-2.57160232190169e-12)
(0,0,0)
(0,0,0)
(0,0,0)
(0,0,0)
(0,0,0)
(0,0,0)
(-2.00175736978836e-12,-1.01119135120614e-11,4.91489852349364e-11)
(-3.89081153446833e-12,-2.08343966879653e-11,4.70021987003008e-11)
(-6.79433799474906e-12,-3.3512284757137e-11,4.24512300196815e-11)
(-9.55652833176997e-12,-5.13947852894255e-11,3.49929979803067e-11)
(-1.05485709627e-11,-7.86970077481278e-11,2.41599082577706e-11)
(-8.90587571041454e-12,-1.24299328698103e-10,9.80904008419046e-12)
(-4.52149618448913e-12,-1.98897677634343e-10,-5.25853119098283e-12)
(3.42077956429155e-12,-3.01595406425778e-10,-6.87739055394059e-12)
(6.97660974740521e-12,-4.39355970780445e-10,-3.7980261697928e-12)
(7.9669028925368e-12,-6.0673928711053e-10,-1.57477773990706e-12)
(0,0,0)
(0,0,0)
(0,0,0)
(0,0,0)
(0,0,0)
(0,0,0)
(-2.94366204402504e-12,-7.64763832305445e-12,7.13727561129735e-11)
(-5.75224395496008e-12,-1.59954944137124e-11,6.87196694602544e-11)
(-9.03218494217183e-12,-2.59324346180217e-11,6.34144726665516e-11)
(-1.17804033550975e-11,-4.06589214783688e-11,5.55677062158239e-11)
(-1.3057453097012e-11,-6.50282683640928e-11,4.37188144584208e-11)
(-1.16341884855e-11,-1.09787855883501e-10,2.65202398530638e-11)
(-6.72955919891786e-12,-1.95543284233835e-10,4.40986992917038e-12)
(5.62574795998614e-12,-3.07624066845301e-10,3.53600786594939e-12)
(1.02660054236752e-11,-4.45255420884378e-10,5.01283241171952e-12)
(1.10876657858324e-11,-6.11218599781656e-10,3.36296289969334e-12)
(0,0,0)
(0,0,0)
(0,0,0)
(0,0,0)
(0,0,0)
(0,0,0)
(-2.85414208747098e-12,-5.11092818682355e-12,1.01004185840753e-10)
(-6.28813324990469e-12,-1.07101094290795e-11,9.83406378212989e-11)
(-8.9840863154701e-12,-1.77604680288166e-11,9.31722056991285e-11)
(-1.14471034854231e-11,-2.8362404917845e-11,8.63258005346929e-11)
(-1.32528124993441e-11,-4.69828464256179e-11,7.6861962121462e-11)
(-1.24984862876604e-11,-8.36443639598092e-11,6.61200684729345e-11)
(3.64871502617854e-12,-1.72860374640325e-10,6.98263859042569e-11)
(1.10338326155034e-11,-3.13542734327102e-10,4.61065520455902e-11)
(1.35236815377432e-11,-4.48751178914299e-10,3.0719361253895e-11)
(1.34054023647227e-11,-6.11493070807438e-10,1.58782731830816e-11)
(0,0,0)
(0,0,0)
(0,0,0)
(0,0,0)
(0,0,0)
(0,0,0)
(-1.7322579053954e-12,-2.5101190339916e-12,1.41452825092747e-10)
(-4.70015779344191e-12,-5.19604095150077e-12,1.39452019285531e-10)
(-6.48552170187413e-12,-9.79584996184072e-12,1.35899290096786e-10)
(-8.02758688122899e-12,-1.67283169368423e-11,1.31443912096864e-10)
(-8.77275081586602e-12,-3.0034341937238e-11,1.26142012961135e-10)
(-7.10352692672786e-12,-6.38020342821015e-11,1.19940660083313e-10)
(6.83668739516935e-12,-1.73148641990195e-10,1.21994311322343e-10)
(1.38771529819338e-11,-3.11172540368496e-10,9.86374794659307e-11)
(1.55137082401394e-11,-4.4071255470114e-10,6.85958841783915e-11)
(1.53790290010743e-11,-5.99811416109564e-10,3.54050096651343e-11)
(0,0,0)
(0,0,0)
(0,0,0)
(0,0,0)
(0,0,0)
(0,0,0)
(-1.11427072939295e-12,-3.92451096977438e-13,2.00753219276797e-10)
(-3.38992089714604e-12,-9.5364144876966e-13,1.99967322900165e-10)
(-3.64742908334124e-12,-3.68380854861885e-12,1.98903147182974e-10)
(-2.66329157194517e-12,-7.82445044487147e-12,1.98004625521878e-10)
(1.13568162301494e-12,-1.49709805742313e-11,1.99443865189272e-10)
(1.20375799655997e-11,-3.60133793302775e-11,2.03811520653172e-10)
(1.01527908828539e-11,-1.59444773035296e-10,1.80041010932319e-10)
(1.57011064369044e-11,-2.91166891403878e-10,1.75217227791662e-10)
(1.79613450373263e-11,-4.13166776119273e-10,1.21340580830178e-10)
(1.8923749351254e-11,-5.67752510970584e-10,6.2199698850183e-11)
(0,0,0)
(0,0,0)
(0,0,0)
(0,0,0)
(0,0,0)
(0,0,0)
(-1.25780938537098e-12,6.83090448062077e-13,2.90637902020232e-10)
(-3.01985823918499e-12,1.13208319267741e-12,2.91052161989296e-10)
(-2.28202516128179e-12,-8.38407278748e-13,2.92204597838743e-10)
(2.1025202795892e-13,-5.83033174664849e-12,2.93472874094174e-10)
(4.39486854078398e-12,-1.71912942217696e-11,2.95963997957466e-10)
(1.04247930940781e-11,-5.0616682233697e-11,2.9987956698265e-10)
(1.28417918630772e-11,-1.48057444353792e-10,2.95018448234208e-10)
(1.72870718556491e-11,-2.42159534158722e-10,2.52364780904619e-10)
(2.00021299065521e-11,-3.57854228348894e-10,1.83836137083889e-10)
(2.12579386800948e-11,-5.07810660395823e-10,9.88687117530411e-11)
(0,0,0)
(0,0,0)
(0,0,0)
(0,0,0)
(0,0,0)
(0,0,0)
(-2.35551595741912e-12,1.02257009314894e-12,4.2445964035791e-10)
(-3.71139395190585e-12,1.20233950421283e-12,4.24858976568317e-10)
(-1.75691563509077e-12,-3.97859887206197e-13,4.26188502706396e-10)
(8.46292752019842e-13,-5.1198417703163e-12,4.27627915759104e-10)
(4.63775290204331e-12,-1.70287571747197e-11,4.28086166301651e-10)
(1.0365775422777e-11,-4.59015869119387e-11,4.24739996265921e-10)
(1.43846684551556e-11,-1.05435445122455e-10,4.08163576085549e-10)
(1.86578243448778e-11,-1.75881832121701e-10,3.58790087163942e-10)
(2.22918794382293e-11,-2.75138043373767e-10,2.77112438358504e-10)
(2.3344947766832e-11,-4.10467809265402e-10,1.58729231788738e-10)
(0,0,0)
(0,0,0)
(0,0,0)
(0,0,0)
(0,0,0)
(0,0,0)
(-3.46188237152006e-12,9.29461568557234e-13,5.90032542610503e-10)
(-4.32483141594186e-12,8.64009783761316e-13,5.90537936147297e-10)
(-1.42884671528966e-12,-2.42506568257476e-13,5.91988031191057e-10)
(1.31439484051351e-12,-3.20761169400629e-12,5.9313189377003e-10)
(5.55893529864092e-12,-1.06881054212802e-11,5.91548679724195e-10)
(1.15107623279197e-11,-2.63683588298565e-11,5.82681641152166e-10)