/*--------------------------------*- C++ -*----------------------------------*\
| =========                 |                                                 |
| \\      /  F ield         | foam-extend: Open Source CFD                    |
|  \\    /   O peration     | Version:     4.0                                |
|   \\  /    A nd           | Web:         http://www.foam-extend.org         |
|    \\/     M anipulation  |                                                 |
\*---------------------------------------------------------------------------*/
FoamFile
{
    version 2.0;
    format ascii;
    class volVectorField;
    location "2092";
    object      H;
}
// * * * * * * * * * * * * * * * * * * * * * * * * * * * * * * * * * * * * * //

dimensions      [0 1 -1 0 0 0 0];

internalField   nonuniform List<vector>
4096
(
(0,0,0)
(0,0,0)
(0,0,0)
(0,0,0)
(0,0,0)
(0,0,0)
(0,0,0)
(0,0,0)
(0,0,0)
(0,0,0)
(0,0,0)
(0,0,0)
(0,0,0)
(0,0,0)
(0,0,0)
(0,0,0)
(0,0,0)
(0,0,0)
(0,0,0)
(0,0,0)
(0,0,0)
(0,0,0)
(0,0,0)
(0,0,0)
(0,0,0)
(0,0,0)
(0,0,0)
(0,0,0)
(0,0,0)
(0,0,0)
(0,0,0)
(0,0,0)
(0,0,0)
(0,0,0)
(0,0,0)
(0,0,0)
(0,0,0)
(0,0,0)
(0,0,0)
(0,0,0)
(0,0,0)
(0,0,0)
(0,0,0)
(0,0,0)
(0,0,0)
(0,0,0)
(0,0,0)
(0,0,0)
(0,0,0)
(0,0,0)
(0,0,0)
(0,0,0)
(0,0,0)
(0,0,0)
(0,0,0)
(0,0,0)
(0,0,0)
(0,0,0)
(0,0,0)
(0,0,0)
(0,0,0)
(0,0,0)
(0,0,0)
(0,0,0)
(0,0,0)
(0,0,0)
(0,0,0)
(0,0,0)
(0,0,0)
(0,0,0)
(0,0,0)
(0,0,0)
(0,0,0)
(0,0,0)
(0,0,0)
(0,0,0)
(0,0,0)
(0,0,0)
(0,0,0)
(0,0,0)
(0,0,0)
(0,0,0)
(0,0,0)
(0,0,0)
(0,0,0)
(0,0,0)
(0,0,0)
(0,0,0)
(0,0,0)
(0,0,0)
(0,0,0)
(0,0,0)
(0,0,0)
(0,0,0)
(0,0,0)
(0,0,0)
(0,0,0)
(0,0,0)
(0,0,0)
(0,0,0)
(0,0,0)
(0,0,0)
(0,0,0)
(0,0,0)
(0,0,0)
(0,0,0)
(0,0,0)
(0,0,0)
(0,0,0)
(0,0,0)
(0,0,0)
(0,0,0)
(0,0,0)
(0,0,0)
(0,0,0)
(0,0,0)
(0,0,0)
(0,0,0)
(0,0,0)
(0,0,0)
(0,0,0)
(0,0,0)
(0,0,0)
(0,0,0)
(0,0,0)
(0,0,0)
(0,0,0)
(0,0,0)
(0,0,0)
(0,0,0)
(0,0,0)
(0,0,0)
(0,0,0)
(0,0,0)
(0,0,0)
(0,0,0)
(0,0,0)
(0,0,0)
(0,0,0)
(0,0,0)
(0,0,0)
(0,0,0)
(0,0,0)
(0,0,0)
(0,0,0)
(0,0,0)
(0,0,0)
(0,0,0)
(0,0,0)
(0,0,0)
(0,0,0)
(0,0,0)
(0,0,0)
(0,0,0)
(0,0,0)
(0,0,0)
(0,0,0)
(0,0,0)
(0,0,0)
(0,0,0)
(0,0,0)
(0,0,0)
(0,0,0)
(0,0,0)
(0,0,0)
(0,0,0)
(0,0,0)
(0,0,0)
(0,0,0)
(0,0,0)
(0,0,0)
(0,0,0)
(0,0,0)
(0,0,0)
(0,0,0)
(0,0,0)
(0,0,0)
(0,0,0)
(0,0,0)
(0,0,0)
(0,0,0)
(0,0,0)
(0,0,0)
(0,0,0)
(0,0,0)
(0,0,0)
(0,0,0)
(0,0,0)
(0,0,0)
(0,0,0)
(0,0,0)
(0,0,0)
(0,0,0)
(0,0,0)
(0,0,0)
(0,0,0)
(0,0,0)
(0,0,0)
(0,0,0)
(0,0,0)
(0,0,0)
(0,0,0)
(0,0,0)
(0,0,0)
(0,0,0)
(0,0,0)
(0,0,0)
(0,0,0)
(0,0,0)
(0,0,0)
(0,0,0)
(0,0,0)
(0,0,0)
(0,0,0)
(0,0,0)
(0,0,0)
(0,0,0)
(0,0,0)
(0,0,0)
(0,0,0)
(0,0,0)
(0,0,0)
(0,0,0)
(0,0,0)
(0,0,0)
(0,0,0)
(0,0,0)
(0,0,0)
(0,0,0)
(0,0,0)
(0,0,0)
(0,0,0)
(0,0,0)
(0,0,0)
(0,0,0)
(0,0,0)
(0,0,0)
(0,0,0)
(0,0,0)
(0,0,0)
(0,0,0)
(0,0,0)
(0,0,0)
(0,0,0)
(0,0,0)
(0,0,0)
(0,0,0)
(0,0,0)
(0,0,0)
(0,0,0)
(0,0,0)
(0,0,0)
(0,0,0)
(0,0,0)
(0,0,0)
(0,0,0)
(0,0,0)
(0,0,0)
(0,0,0)
(0,0,0)
(0,0,0)
(0,0,0)
(0,0,0)
(0,0,0)
(0,0,0)
(0,0,0)
(0,0,0)
(0,0,0)
(0,0,0)
(0,0,0)
(0,0,0)
(0,0,0)
(0,0,0)
(0,0,0)
(0,0,0)
(0,0,0)
(0,0,0)
(0,0,0)
(0,0,0)
(0,0,0)
(0,0,0)
(0,0,0)
(0,0,0)
(0,0,0)
(0,0,0)
(0,0,0)
(0,0,0)
(0,0,0)
(0,0,0)
(0,0,0)
(0,0,0)
(0,0,0)
(0,0,0)
(0,0,0)
(0,0,0)
(0,0,0)
(0,0,0)
(0,0,0)
(0,0,0)
(0,0,0)
(0,0,0)
(0,0,0)
(0,0,0)
(0,0,0)
(0,0,0)
(0,0,0)
(0,0,0)
(0,0,0)
(0,0,0)
(0,0,0)
(0,0,0)
(0,0,0)
(0,0,0)
(0,0,0)
(0,0,0)
(0,0,0)
(0,0,0)
(0,0,0)
(0,0,0)
(0,0,0)
(0,0,0)
(0,0,0)
(0,0,0)
(0,0,0)
(0,0,0)
(0,0,0)
(0,0,0)
(0,0,0)
(0,0,0)
(0,0,0)
(0,0,0)
(0,0,0)
(0,0,0)
(0,0,0)
(0,0,0)
(0,0,0)
(0,0,0)
(0,0,0)
(0,0,0)
(0,0,0)
(0,0,0)
(0,0,0)
(0,0,0)
(0,0,0)
(0,0,0)
(0,0,0)
(0,0,0)
(0,0,0)
(0,0,0)
(0,0,0)
(0,0,0)
(0,0,0)
(0,0,0)
(0,0,0)
(0,0,0)
(0,0,0)
(0,0,0)
(0,0,0)
(0,0,0)
(0,0,0)
(0,0,0)
(0,0,0)
(0,0,0)
(0,0,0)
(0,0,0)
(0,0,0)
(0,0,0)
(0,0,0)
(0,0,0)
(0,0,0)
(0,0,0)
(0,0,0)
(0,0,0)
(0,0,0)
(0,0,0)
(0,0,0)
(0,0,0)
(0,0,0)
(0,0,0)
(0,0,0)
(0,0,0)
(0,0,0)
(0,0,0)
(0,0,0)
(0,0,0)
(0,0,0)
(0,0,0)
(0,0,0)
(0,0,0)
(0,0,0)
(0,0,0)
(0,0,0)
(0,0,0)
(0,0,0)
(0,0,0)
(0,0,0)
(0,0,0)
(0,0,0)
(0,0,0)
(0,0,0)
(0,0,0)
(0,0,0)
(0,0,0)
(0,0,0)
(0,0,0)
(0,0,0)
(0,0,0)
(0,0,0)
(0,0,0)
(0,0,0)
(0,0,0)
(0,0,0)
(0,0,0)
(0,0,0)
(0,0,0)
(0,0,0)
(0,0,0)
(0,0,0)
(0,0,0)
(0,0,0)
(0,0,0)
(0,0,0)
(0,0,0)
(0,0,0)
(0,0,0)
(0,0,0)
(0,0,0)
(0,0,0)
(0,0,0)
(0,0,0)
(0,0,0)
(0,0,0)
(0,0,0)
(0,0,0)
(0,0,0)
(0,0,0)
(0,0,0)
(0,0,0)
(0,0,0)
(0,0,0)
(0,0,0)
(0,0,0)
(0,0,0)
(0,0,0)
(0,0,0)
(0,0,0)
(0,0,0)
(0,0,0)
(0,0,0)
(0,0,0)
(0,0,0)
(0,0,0)
(0,0,0)
(0,0,0)
(0,0,0)
(0,0,0)
(0,0,0)
(0,0,0)
(0,0,0)
(0,0,0)
(0,0,0)
(0,0,0)
(0,0,0)
(0,0,0)
(0,0,0)
(0,0,0)
(0,0,0)
(0,0,0)
(0,0,0)
(0,0,0)
(0,0,0)
(0,0,0)
(0,0,0)
(0,0,0)
(0,0,0)
(0,0,0)
(0,0,0)
(0,0,0)
(0,0,0)
(0,0,0)
(0,0,0)
(0,0,0)
(0,0,0)
(0,0,0)
(0,0,0)
(0,0,0)
(0,0,0)
(0,0,0)
(0,0,0)
(0,0,0)
(0,0,0)
(0,0,0)
(0,0,0)
(0,0,0)
(0,0,0)
(0,0,0)
(0,0,0)
(0,0,0)
(0,0,0)
(0,0,0)
(0,0,0)
(0,0,0)
(0,0,0)
(0,0,0)
(0,0,0)
(0,0,0)
(0,0,0)
(0,0,0)
(0,0,0)
(0,0,0)
(0,0,0)
(0,0,0)
(0,0,0)
(0,0,0)
(0,0,0)
(0,0,0)
(0,0,0)
(0,0,0)
(0,0,0)
(0,0,0)
(0,0,0)
(0,0,0)
(0,0,0)
(0,0,0)
(0,0,0)
(0,0,0)
(0,0,0)
(0,0,0)
(0,0,0)
(0,0,0)
(0,0,0)
(0,0,0)
(0,0,0)
(0,0,0)
(0,0,0)
(0,0,0)
(0,0,0)
(0,0,0)
(0,0,0)
(0,0,0)
(0,0,0)
(0,0,0)
(0,0,0)
(0,0,0)
(0,0,0)
(0,0,0)
(0,0,0)
(0,0,0)
(0,0,0)
(0,0,0)
(0,0,0)
(0,0,0)
(0,0,0)
(0,0,0)
(0,0,0)
(0,0,0)
(0,0,0)
(0,0,0)
(0,0,0)
(0,0,0)
(0,0,0)
(0,0,0)
(0,0,0)
(0,0,0)
(0,0,0)
(0,0,0)
(0,0,0)
(0,0,0)
(0,0,0)
(0,0,0)
(0,0,0)
(0,0,0)
(0,0,0)
(0,0,0)
(0,0,0)
(0,0,0)
(0,0,0)
(0,0,0)
(0,0,0)
(0,0,0)
(0,0,0)
(0,0,0)
(0,0,0)
(0,0,0)
(0,0,0)
(0,0,0)
(0,0,0)
(0,0,0)
(0,0,0)
(0,0,0)
(0,0,0)
(0,0,0)
(0,0,0)
(0,0,0)
(0,0,0)
(0,0,0)
(0,0,0)
(0,0,0)
(0,0,0)
(0,0,0)
(0,0,0)
(0,0,0)
(0,0,0)
(0,0,0)
(0,0,0)
(0,0,0)
(0,0,0)
(0,0,0)
(0,0,0)
(0,0,0)
(0,0,0)
(0,0,0)
(0,0,0)
(0,0,0)
(0,0,0)
(0,0,0)
(0,0,0)
(0,0,0)
(0,0,0)
(0,0,0)
(0,0,0)
(0,0,0)
(0,0,0)
(0,0,0)
(0,0,0)
(0,0,0)
(0,0,0)
(0,0,0)
(0,0,0)
(0,0,0)
(0,0,0)
(0,0,0)
(0,0,0)
(0,0,0)
(0,0,0)
(0,0,0)
(0,0,0)
(0,0,0)
(0,0,0)
(0,0,0)
(0,0,0)
(0,0,0)
(0,0,0)
(0,0,0)
(0,0,0)
(0,0,0)
(0,0,0)
(0,0,0)
(0,0,0)
(0,0,0)
(0,0,0)
(0,0,0)
(0,0,0)
(0,0,0)
(0,0,0)
(0,0,0)
(0,0,0)
(0,0,0)
(0,0,0)
(0,0,0)
(0,0,0)
(0,0,0)
(0,0,0)
(0,0,0)
(0,0,0)
(0,0,0)
(0,0,0)
(0,0,0)
(0,0,0)
(0,0,0)
(0,0,0)
(0,0,0)
(0,0,0)
(0,0,0)
(0,0,0)
(0,0,0)
(0,0,0)
(0,0,0)
(0,0,0)
(0,0,0)
(0,0,0)
(0,0,0)
(0,0,0)
(0,0,0)
(0,0,0)
(0,0,0)
(0,0,0)
(0,0,0)
(0,0,0)
(0,0,0)
(0,0,0)
(0,0,0)
(0,0,0)
(0,0,0)
(0,0,0)
(0,0,0)
(0,0,0)
(0,0,0)
(0,0,0)
(0,0,0)
(0,0,0)
(0,0,0)
(0,0,0)
(0,0,0)
(0,0,0)
(0,0,0)
(0,0,0)
(0,0,0)
(0,0,0)
(0,0,0)
(0,0,0)
(0,0,0)
(0,0,0)
(0,0,0)
(0,0,0)
(0,0,0)
(0,0,0)
(0,0,0)
(0,0,0)
(0,0,0)
(0,0,0)
(0,0,0)
(0,0,0)
(0,0,0)
(0,0,0)
(0,0,0)
(0,0,0)
(0,0,0)
(0,0,0)
(0,0,0)
(0,0,0)
(0,0,0)
(0,0,0)
(0,0,0)
(0,0,0)
(0,0,0)
(0,0,0)
(0,0,0)
(0,0,0)
(0,0,0)
(0,0,0)
(0,0,0)
(0,0,0)
(0,0,0)
(0,0,0)
(0,0,0)
(0,0,0)
(0,0,0)
(0,0,0)
(0,0,0)
(0,0,0)
(0,0,0)
(0,0,0)
(0,0,0)
(0,0,0)
(0,0,0)
(0,0,0)
(0,0,0)
(0,0,0)
(0,0,0)
(0,0,0)
(0,0,0)
(0,0,0)
(0,0,0)
(0,0,0)
(0,0,0)
(0,0,0)
(0,0,0)
(0,0,0)
(0,0,0)
(0,0,0)
(0,0,0)
(0,0,0)
(0,0,0)
(0,0,0)
(0,0,0)
(0,0,0)
(0,0,0)
(0,0,0)
(0,0,0)
(0,0,0)
(0,0,0)
(0,0,0)
(0,0,0)
(0,0,0)
(0,0,0)
(0,0,0)
(0,0,0)
(0,0,0)
(0,0,0)
(0,0,0)
(0,0,0)
(0,0,0)
(0,0,0)
(0,0,0)
(0,0,0)
(0,0,0)
(0,0,0)
(0,0,0)
(0,0,0)
(0,0,0)
(0,0,0)
(0,0,0)
(0,0,0)
(0,0,0)
(0,0,0)
(0,0,0)
(0,0,0)
(0,0,0)
(0,0,0)
(0,0,0)
(0,0,0)
(0,0,0)
(0,0,0)
(0,0,0)
(0,0,0)
(0,0,0)
(0,0,0)
(0,0,0)
(9.39013461862433e-13,4.86799065413855e-13,2.6744231513176e-13)
(2.44995724700192e-12,1.6033433801369e-12,-1.94414965335042e-13)
(3.55818514970806e-12,3.9517784001083e-12,-5.45115855029899e-13)
(3.47801922703e-12,6.65491422514599e-12,-2.49343003129207e-13)
(3.71942407685104e-12,9.87629722583215e-12,2.62465859680007e-13)
(3.60672990741756e-12,1.60671515815799e-11,6.85237880868018e-13)
(2.58505181880543e-12,2.65217120294956e-11,9.84419645124289e-13)
(1.85184485890932e-12,4.27259966600576e-11,1.33118562422215e-12)
(-1.71001201883486e-13,7.01545244625526e-11,1.19709531625729e-12)
(-1.81604745659259e-12,1.0814130790909e-10,7.80825559159965e-13)
(0,0,0)
(0,0,0)
(0,0,0)
(0,0,0)
(0,0,0)
(0,0,0)
(2.48139293503877e-12,4.38625276723285e-13,-1.7573154557591e-12)
(5.19658890852337e-12,1.4241658419085e-12,-1.99931918560305e-12)
(7.46467559867249e-12,3.28730677134297e-12,-2.30287466386587e-12)
(7.75774935328658e-12,6.07861740564196e-12,-1.95565747952448e-12)
(7.42994749200493e-12,9.74728128564523e-12,-9.87897847315209e-13)
(6.73960514868413e-12,1.61826716824449e-11,1.42446070300373e-13)
(5.07037976198192e-12,2.67705067024953e-11,1.29379822724735e-12)
(3.2537833789288e-12,4.32878764927895e-11,2.14121046569516e-12)
(8.60138707205473e-13,7.0240901523108e-11,2.18153373143457e-12)
(-2.98109338438261e-15,1.08103572406572e-10,1.26843577867832e-12)
(0,0,0)
(0,0,0)
(0,0,0)
(0,0,0)
(0,0,0)
(0,0,0)
(3.64426137399744e-12,6.35760534178901e-13,-4.90263486891715e-12)
(6.61148769805039e-12,1.63473938212331e-12,-5.1521651255435e-12)
(9.36564745685978e-12,3.24493833767321e-12,-5.28808241347537e-12)
(1.03470761432385e-11,5.56079536696976e-12,-4.5833956946618e-12)
(1.00535563340628e-11,9.21840543172215e-12,-3.0379542463615e-12)
(9.30995032706778e-12,1.59856074815356e-11,-1.32393310605019e-12)
(7.92524261519099e-12,2.71096724800028e-11,4.53742133175903e-13)
(5.98796302177358e-12,4.3848241305023e-11,1.6971942296352e-12)
(4.14008059965212e-12,7.08072741751933e-11,1.96273639054148e-12)
(4.44746126138669e-12,1.08642983758967e-10,1.02849024377426e-12)
(0,0,0)
(0,0,0)
(0,0,0)
(0,0,0)
(0,0,0)
(0,0,0)
(4.00066567542887e-12,7.27193288587037e-13,-9.37800905310009e-12)
(8.01626623302939e-12,1.5928157064739e-12,-9.31434603723308e-12)
(1.14194331027832e-11,2.9164095396572e-12,-8.98202904287208e-12)
(1.31235613210276e-11,4.64534132892606e-12,-8.03971193880922e-12)
(1.36688413789435e-11,8.12162398723369e-12,-6.23116467118064e-12)
(1.30976791788447e-11,1.51252706502653e-11,-4.16664480648068e-12)
(1.18573079750466e-11,2.70639073563077e-11,-2.08835618138936e-12)
(1.0175790743229e-11,4.42738207054397e-11,-4.22425899520042e-13)
(8.03751845889863e-12,7.16701719544321e-11,5.00047780069469e-13)
(7.8950525378783e-12,1.09615423604202e-10,3.0051586239921e-13)
(0,0,0)
(0,0,0)
(0,0,0)
(0,0,0)
(0,0,0)
(0,0,0)
(4.5461294038232e-12,3.5816015690178e-13,-1.30588404216878e-11)
(9.21946980465251e-12,1.04753383790809e-12,-1.3022405166401e-11)
(1.2900730709866e-11,2.40290448606297e-12,-1.26628806704381e-11)
(1.51813065402163e-11,3.87196457034616e-12,-1.18985475714057e-11)
(1.67194011352554e-11,7.22907654725185e-12,-1.02553915770227e-11)
(1.67558638006772e-11,1.40546126204221e-11,-8.22642431414201e-12)
(1.61952252940672e-11,2.61442837732988e-11,-6.24211815049041e-12)
(1.56475038392865e-11,4.37068727404721e-11,-4.25525895624092e-12)
(1.36331896427514e-11,7.14964038738293e-11,-2.64458746718033e-12)
(1.28610939262439e-11,1.09743847864572e-10,-1.2732262672628e-12)
(0,0,0)
(0,0,0)
(0,0,0)
(0,0,0)
(0,0,0)
(0,0,0)
(4.162832814655e-12,3.00129003344862e-13,-1.82823496628899e-11)
(9.23958717483393e-12,7.01848554872603e-13,-1.86121948761934e-11)
(1.38197698859611e-11,1.858091418337e-12,-1.83830825416817e-11)
(1.71078027560568e-11,2.95902764226615e-12,-1.76827116297766e-11)
(2.0026360609804e-11,6.2356520378564e-12,-1.60844238149673e-11)
(2.16845722625251e-11,1.29824764117391e-11,-1.40344789497927e-11)
(2.12091832944266e-11,2.4693302371476e-11,-1.1866731271155e-11)
(2.16489919956116e-11,4.22361979884879e-11,-9.85696689715669e-12)
(2.06174468454512e-11,6.9769569085071e-11,-7.11910737237833e-12)
(1.90879764192309e-11,1.08010819143901e-10,-3.51765540220847e-12)
(0,0,0)
(0,0,0)
(0,0,0)
(0,0,0)
(0,0,0)
(0,0,0)
(4.21517888657119e-12,2.96785484697551e-13,-2.76233849692077e-11)
(9.16167652265505e-12,2.72546717122809e-13,-2.79148237399604e-11)
(1.36784301511405e-11,1.30946430155402e-12,-2.80168154605384e-11)
(1.85090494957203e-11,2.24398849927337e-12,-2.7644312290106e-11)
(2.28143491048946e-11,5.28744867923479e-12,-2.65529582453966e-11)
(2.59077888938597e-11,1.18268560190901e-11,-2.50356122902595e-11)
(2.69693954107073e-11,2.28394067446365e-11,-2.25526395995052e-11)
(2.81285628776382e-11,3.97634348885328e-11,-1.98917344039448e-11)
(2.76634424144736e-11,6.64032271458177e-11,-1.49843275961888e-11)
(2.61981994573322e-11,1.04047334602222e-10,-7.78582034570799e-12)
(0,0,0)
(0,0,0)
(0,0,0)
(0,0,0)
(0,0,0)
(0,0,0)
(4.18512613802109e-12,1.48029402984637e-14,-4.32636247439844e-11)
(9.08274648692109e-12,-2.28326720042433e-13,-4.29998211269499e-11)
(1.37884351244631e-11,6.99053704902232e-13,-4.3319468640985e-11)
(1.9169950468269e-11,1.86176965650221e-12,-4.36265176115071e-11)
(2.38021537672208e-11,4.7134866366088e-12,-4.34300823810453e-11)
(2.87273831485979e-11,1.04322634260894e-11,-4.25177264750036e-11)
(3.22888393862164e-11,1.99796179219268e-11,-3.9784835526171e-11)
(3.50124401010508e-11,3.46798174370583e-11,-3.48636431221215e-11)
(3.57123471479367e-11,5.9246431610356e-11,-2.68316752898879e-11)
(3.47762671073258e-11,9.56081739458212e-11,-1.51058015542756e-11)
(0,0,0)
(0,0,0)
(0,0,0)
(0,0,0)
(0,0,0)
(0,0,0)
(3.58363056709595e-12,-6.18594915092735e-13,-6.84691205792963e-11)
(8.89784872667068e-12,-6.10824264962922e-13,-6.87640039342608e-11)
(1.47090960413621e-11,1.44653740866407e-13,-6.97351145439074e-11)
(2.0705823295805e-11,1.37201179792526e-12,-7.05776673446393e-11)
(2.54923683280553e-11,3.68743186759769e-12,-7.06352360598161e-11)
(3.11574147350404e-11,7.70898067409519e-12,-6.9406918942914e-11)
(3.65027251186629e-11,1.49477011986753e-11,-6.62281960817778e-11)
(4.07102847941096e-11,2.65472495534315e-11,-5.94842653300466e-11)
(4.30734352064523e-11,4.73107762883914e-11,-4.78093392505992e-11)
(4.38821476480225e-11,7.98218910508473e-11,-2.86639385022737e-11)
(0,0,0)
(0,0,0)
(0,0,0)
(0,0,0)
(0,0,0)
(0,0,0)
(2.84618841019023e-12,-5.15150414853881e-13,-1.05417950549268e-10)
(8.27382294127105e-12,-2.65021669304955e-13,-1.06581385053329e-10)
(1.51492625117419e-11,2.9722392584874e-13,-1.08227609687595e-10)
(2.24511449691958e-11,1.11903785864357e-12,-1.09297484362168e-10)
(2.77274810176218e-11,2.22195805550714e-12,-1.09040480385977e-10)
(3.38888829112408e-11,4.12390420096589e-12,-1.07402494852684e-10)
(3.9554217707158e-11,8.16015134372573e-12,-1.04054307759039e-10)
(4.46387963548717e-11,1.48909210150551e-11,-9.61762923970651e-11)
(4.83153048068834e-11,2.8196677759083e-11,-8.10639299089072e-11)
(5.07309794829355e-11,5.11000498555903e-11,-5.22157194567097e-11)
(0,0,0)
(0,0,0)
(0,0,0)
(0,0,0)
(0,0,0)
(0,0,0)
(0,0,0)
(0,0,0)
(0,0,0)
(0,0,0)
(0,0,0)
(0,0,0)
(0,0,0)
(0,0,0)
(0,0,0)
(0,0,0)
(0,0,0)
(0,0,0)
(0,0,0)
(0,0,0)
(0,0,0)
(0,0,0)
(0,0,0)
(0,0,0)
(0,0,0)
(0,0,0)
(0,0,0)
(0,0,0)
(0,0,0)
(0,0,0)
(0,0,0)
(0,0,0)
(0,0,0)
(0,0,0)
(0,0,0)
(0,0,0)
(0,0,0)
(0,0,0)
(0,0,0)
(0,0,0)
(0,0,0)
(0,0,0)
(0,0,0)
(0,0,0)
(0,0,0)
(0,0,0)
(0,0,0)
(0,0,0)
(0,0,0)
(0,0,0)
(0,0,0)
(0,0,0)
(0,0,0)
(0,0,0)
(0,0,0)
(0,0,0)
(0,0,0)
(0,0,0)
(0,0,0)
(0,0,0)
(0,0,0)
(0,0,0)
(0,0,0)
(0,0,0)
(0,0,0)
(0,0,0)
(0,0,0)
(0,0,0)
(0,0,0)
(0,0,0)
(0,0,0)
(0,0,0)
(0,0,0)
(0,0,0)
(0,0,0)
(0,0,0)
(0,0,0)
(0,0,0)
(0,0,0)
(0,0,0)
(0,0,0)
(0,0,0)
(0,0,0)
(0,0,0)
(0,0,0)
(0,0,0)
(0,0,0)
(0,0,0)
(0,0,0)
(0,0,0)
(0,0,0)
(0,0,0)
(0,0,0)
(0,0,0)
(0,0,0)
(0,0,0)
(0,0,0)
(0,0,0)
(0,0,0)
(0,0,0)
(0,0,0)
(0,0,0)
(1.44904453101619e-12,1.47557833249606e-12,-2.32551941138366e-12)
(2.97983567492377e-12,3.68239891942399e-12,-3.23657795339703e-12)
(3.92688392655063e-12,7.85389247604406e-12,-3.65434981942743e-12)
(3.54250718372271e-12,1.30469954559179e-11,-2.70355977328966e-12)
(3.42566799580381e-12,1.88554356434425e-11,-1.09049298461913e-12)
(3.19202804232148e-12,2.88240342555479e-11,6.47500348371153e-13)
(1.98949116677331e-12,4.62942827766145e-11,1.892342084254e-12)
(1.42405533397524e-12,7.50422689538144e-11,2.70070377643149e-12)
(1.5889149431407e-13,1.30672611859179e-10,2.16952239233588e-12)
(-9.97486395357925e-13,2.57483027230737e-10,1.19361465490939e-12)
(0,0,0)
(0,0,0)
(0,0,0)
(0,0,0)
(0,0,0)
(0,0,0)
(2.52626140742819e-12,1.87835271909682e-12,-7.15083812366513e-12)
(5.28957084657498e-12,3.88040680276971e-12,-7.64649519174769e-12)
(7.15982684800942e-12,7.37183476486832e-12,-7.57368178917934e-12)
(7.30781175974167e-12,1.2340514927629e-11,-6.05197065517015e-12)
(6.82847942830938e-12,1.83848418321704e-11,-3.2613437717886e-12)
(5.78531719262017e-12,2.88634130759058e-11,-1.68077090472334e-13)
(3.88380174593691e-12,4.67863371008437e-11,2.6074351997592e-12)
(2.65309530117589e-12,7.63774850372359e-11,4.18890338908289e-12)
(1.20686400828298e-12,1.31634352046412e-10,3.67078859405778e-12)
(7.26043333130245e-13,2.58210363430358e-10,1.94915226703014e-12)
(0,0,0)
(0,0,0)
(0,0,0)
(0,0,0)
(0,0,0)
(0,0,0)
(3.80235887621656e-12,1.92399642940731e-12,-1.24761574474247e-11)
(6.78932866163684e-12,3.62326578995155e-12,-1.27815197716106e-11)
(8.9894895360783e-12,6.56791916396246e-12,-1.23442563132017e-11)
(9.71708873298746e-12,1.0767116196502e-11,-1.05224172172964e-11)
(9.43631663818831e-12,1.68277002434557e-11,-6.84747760803519e-12)
(8.3926119191085e-12,2.79756322281415e-11,-2.67080711555867e-12)
(6.72755564245871e-12,4.71914270759038e-11,1.29070627633023e-12)
(5.29684146030404e-12,7.78732560156286e-11,3.33520134987066e-12)
(4.21142896695096e-12,1.33195671409205e-10,3.03110853114808e-12)
(4.50351165974397e-12,2.59618768762819e-10,1.48371829885227e-12)
(0,0,0)
(0,0,0)
(0,0,0)
(0,0,0)
(0,0,0)
(0,0,0)
(4.30603579124641e-12,2.02097484826018e-12,-1.94492804328096e-11)
(8.22923110723104e-12,3.36768695495741e-12,-1.91139211972674e-11)
(1.09906210523069e-11,5.55476236994798e-12,-1.79519832286002e-11)
(1.20883908119835e-11,8.5808936439742e-12,-1.5755458569154e-11)
(1.24968689542188e-11,1.42768224699348e-11,-1.17663054097951e-11)
(1.20900485836104e-11,2.57006031096066e-11,-7.07738640934711e-12)
(1.1111001276169e-11,4.67944247824884e-11,-2.48385120249936e-12)
(9.82026502867919e-12,7.90930696118172e-11,5.05754114426933e-14)
(8.41081845761542e-12,1.35054720469192e-10,6.54350020202822e-13)
(8.06714414074207e-12,2.61359845232998e-10,4.06241969291444e-13)
(0,0,0)
(0,0,0)
(0,0,0)
(0,0,0)
(0,0,0)
(0,0,0)
(4.56772530209328e-12,1.2763198528385e-12,-2.62164612208168e-11)
(9.20563059172287e-12,2.48069533909429e-12,-2.57186916487773e-11)
(1.26812106785589e-11,4.3358264256586e-12,-2.42082873099916e-11)
(1.44510874739096e-11,6.42518297476879e-12,-2.19245986760678e-11)
(1.56838583817802e-11,1.16261015358563e-11,-1.84663296575458e-11)
(1.58436938457034e-11,2.27840695250428e-11,-1.40763829866195e-11)
(1.56593475016452e-11,4.52978336738154e-11,-1.01664361098127e-11)
(1.55075071024145e-11,7.93688750024486e-11,-6.7409742299004e-12)
(1.39886632315476e-11,1.35462010787882e-10,-4.54430304081108e-12)
(1.33208963792351e-11,2.61640365189652e-10,-2.23423707757015e-12)
(0,0,0)
(0,0,0)
(0,0,0)
(0,0,0)
(0,0,0)
(0,0,0)
(4.49602154660626e-12,6.1461368338442e-13,-3.50234667724252e-11)
(9.43977667807083e-12,1.54078303718886e-12,-3.49534323419428e-11)
(1.36680260908351e-11,2.88448855145731e-12,-3.3510032346726e-11)
(1.62245540842501e-11,4.11384045727404e-12,-3.12960235318762e-11)
(1.89246191032636e-11,8.73493548612663e-12,-2.85495176550194e-11)
(2.06724449765021e-11,2.0148988300985e-11,-2.47723591473255e-11)
(2.10533145473094e-11,4.40056198160619e-11,-2.01484354192961e-11)
(2.13838955708176e-11,7.77027888601053e-11,-1.69862468405328e-11)
(2.03823368144124e-11,1.32837401607437e-10,-1.25120528036862e-11)
(1.9533805558816e-11,2.58473812901226e-10,-6.46014079787453e-12)
(0,0,0)
(0,0,0)
(0,0,0)
(0,0,0)
(0,0,0)
(0,0,0)
(4.78860020172217e-12,6.16038681600288e-15,-5.00958919934019e-11)
(9.7645416803994e-12,1.81493219270346e-13,-5.01585658901501e-11)
(1.39163375773606e-11,1.11985919149404e-12,-4.91688724879559e-11)
(1.77999142937756e-11,2.07119663022877e-12,-4.78911622427905e-11)
(2.1870965192404e-11,6.20680335610553e-12,-4.63019702878884e-11)
(2.48194087961298e-11,1.71003318640371e-11,-4.38434576307502e-11)
(2.71682790379133e-11,4.08007505267854e-11,-3.82194967786693e-11)
(2.83047735211776e-11,7.30143567999246e-11,-3.48314196494502e-11)
(2.7621730699153e-11,1.26408820280434e-10,-2.63248961868771e-11)
(2.68515397685873e-11,2.50777509063133e-10,-1.39847237990714e-11)
(0,0,0)
(0,0,0)
(0,0,0)
(0,0,0)
(0,0,0)
(0,0,0)
(4.55472037637769e-12,-4.85073994516342e-13,-7.69044416124264e-11)
(9.78489154587712e-12,-1.10462313790322e-12,-7.69049630548203e-11)
(1.4649884059024e-11,-2.96401068314844e-13,-7.69247856977135e-11)
(1.94632730963844e-11,1.1574949482677e-12,-7.72592802339769e-11)
(2.39158526301651e-11,5.60872111432109e-12,-7.69608821658666e-11)
(2.87177749517859e-11,1.60671647650068e-11,-7.56425963473162e-11)
(3.23995637054474e-11,3.60406147581204e-11,-7.13059107290427e-11)
(3.5113040152262e-11,6.31993287273611e-11,-6.2961010892066e-11)
(3.59221287344688e-11,1.13184741021914e-10,-4.8398990395273e-11)
(3.54567484474299e-11,2.35603151105319e-10,-2.73172933146714e-11)
(0,0,0)
(0,0,0)
(0,0,0)
(0,0,0)
(0,0,0)
(0,0,0)
(3.77506942182157e-12,-1.01972800600796e-12,-1.28806993895471e-10)
(9.52315674066009e-12,-1.69832384444914e-12,-1.29717468729187e-10)
(1.53990786571135e-11,-8.84243491407415e-13,-1.31154247680877e-10)
(2.10163659502673e-11,5.43514215600445e-13,-1.32399406313828e-10)
(2.57295250232574e-11,4.36424194123755e-12,-1.32699449436779e-10)
(3.15637683470126e-11,1.25058972744905e-11,-1.31442286902313e-10)
(3.65463442218843e-11,2.67357317192177e-11,-1.26363722108547e-10)
(4.06916872530325e-11,4.8005763597376e-11,-1.14437439798979e-10)
(4.30421329874143e-11,9.17283891146454e-11,-9.33669139759485e-11)
(4.3940050341138e-11,2.07617674750074e-10,-5.7910089969708e-11)
(0,0,0)
(0,0,0)
(0,0,0)
(0,0,0)
(0,0,0)
(0,0,0)
(3.49447249939781e-12,-8.25504695278028e-13,-2.53421449117628e-10)
(9.65502590623188e-12,-1.21045132738231e-12,-2.55263337828332e-10)
(1.6516361112162e-11,-5.61729415346076e-13,-2.57792592123147e-10)
(2.33131788516483e-11,2.98015513248631e-13,-2.59247907071498e-10)
(2.83114535398272e-11,2.17510840707326e-12,-2.59261694124551e-10)
(3.46646000185515e-11,6.47834281972627e-12,-2.57820363925487e-10)
(3.98363536888951e-11,1.42621085275674e-11,-2.52125248798492e-10)
(4.44173548818166e-11,2.69480640852232e-11,-2.38138329970819e-10)
(4.76637721137699e-11,5.70028586870238e-11,-2.11040610504505e-10)
(4.96153098819105e-11,1.50467446522373e-10,-1.52616078883659e-10)
(0,0,0)
(0,0,0)
(0,0,0)
(0,0,0)
(0,0,0)
(0,0,0)
(0,0,0)
(0,0,0)
(0,0,0)
(0,0,0)
(0,0,0)
(0,0,0)
(0,0,0)
(0,0,0)
(0,0,0)
(0,0,0)
(0,0,0)
(0,0,0)
(0,0,0)
(0,0,0)
(0,0,0)
(0,0,0)
(0,0,0)
(0,0,0)
(0,0,0)
(0,0,0)
(0,0,0)
(0,0,0)
(0,0,0)
(0,0,0)
(0,0,0)
(0,0,0)
(0,0,0)
(0,0,0)
(0,0,0)
(0,0,0)
(0,0,0)
(0,0,0)
(0,0,0)
(0,0,0)
(0,0,0)
(0,0,0)
(0,0,0)
(0,0,0)
(0,0,0)
(0,0,0)
(0,0,0)
(0,0,0)
(0,0,0)
(0,0,0)
(0,0,0)
(0,0,0)
(0,0,0)
(0,0,0)
(0,0,0)
(0,0,0)
(0,0,0)
(0,0,0)
(0,0,0)
(0,0,0)
(0,0,0)
(0,0,0)
(0,0,0)
(0,0,0)
(0,0,0)
(0,0,0)
(0,0,0)
(0,0,0)
(0,0,0)
(0,0,0)
(0,0,0)
(0,0,0)
(0,0,0)
(0,0,0)
(0,0,0)
(0,0,0)
(0,0,0)
(0,0,0)
(0,0,0)
(0,0,0)
(0,0,0)
(0,0,0)
(0,0,0)
(0,0,0)
(0,0,0)
(0,0,0)
(0,0,0)
(0,0,0)
(0,0,0)
(0,0,0)
(0,0,0)
(0,0,0)
(0,0,0)
(0,0,0)
(0,0,0)
(0,0,0)
(0,0,0)
(0,0,0)
(0,0,0)
(0,0,0)
(0,0,0)
(0,0,0)
(1.95732868641324e-12,1.88333034397256e-12,-5.64090491993295e-12)
(3.199599657322e-12,4.89161679986413e-12,-5.91971294666243e-12)
(3.45815159218041e-12,1.07814487969662e-11,-5.37670757816338e-12)
(2.63592092359223e-12,1.76860273962291e-11,-3.62283081031805e-12)
(2.15826847382159e-12,2.53636153819074e-11,-1.37545444252084e-12)
(1.90780748623431e-12,3.71601687416405e-11,1.16729096814932e-12)
(6.89075149847411e-13,5.54410425115518e-11,3.41443637111976e-12)
(6.20020634690829e-13,8.20554749430858e-11,4.09415603921239e-12)
(1.73059044611835e-13,1.20037854451822e-10,3.22743358262738e-12)
(-5.31207940259788e-13,1.65464307280381e-10,1.75369591952633e-12)
(0,0,0)
(0,0,0)
(0,0,0)
(0,0,0)
(0,0,0)
(0,0,0)
(2.97627476485243e-12,2.67941915538561e-12,-1.32549259845998e-11)
(5.47389845611901e-12,5.20395457519365e-12,-1.2747854447954e-11)
(6.44203131390423e-12,1.01849129756327e-11,-1.11406129242004e-11)
(6.09058360846085e-12,1.667937001898e-11,-8.24081297519653e-12)
(5.29235433559342e-12,2.43911212798324e-11,-4.1377534221576e-12)
(3.89758575025125e-12,3.6682393224742e-11,5.65507609275535e-13)
(1.89724358049255e-12,5.58598851077468e-11,5.02550608828293e-12)
(1.67543911904849e-12,8.33262827303455e-11,6.41542012914268e-12)
(1.36718097245492e-12,1.21383081698915e-10,5.21303979765154e-12)
(1.26679026795277e-12,1.66929655544871e-10,2.75878952046315e-12)
(0,0,0)
(0,0,0)
(0,0,0)
(0,0,0)
(0,0,0)
(0,0,0)
(4.01074277961346e-12,2.30848201765075e-12,-2.14530338924217e-11)
(6.60764403929817e-12,4.25416007998289e-12,-2.04536817947587e-11)
(8.18080723478422e-12,8.51224740084916e-12,-1.84302687785553e-11)
(8.22837167561363e-12,1.43576374081658e-11,-1.51394215361552e-11)
(7.81052391917629e-12,2.19750958955914e-11,-9.58691925938958e-12)
(6.70612764571574e-12,3.47521697934944e-11,-2.72897092120563e-12)
(5.08006286327829e-12,5.66085048870662e-11,4.37148962453079e-12)
(4.38112068181358e-12,8.6250149531464e-11,6.20327716874957e-12)
(3.89977014025097e-12,1.24559874679477e-10,4.95476311368422e-12)
(4.24615348769208e-12,1.69814555486245e-10,2.58386281420448e-12)
(0,0,0)
(0,0,0)
(0,0,0)
(0,0,0)
(0,0,0)
(0,0,0)
(4.71533155042728e-12,1.61866343812072e-12,-2.98570900522099e-11)
(7.95428475560027e-12,2.95014768066314e-12,-2.84850595369277e-11)
(1.00130323365064e-11,6.04435679370782e-12,-2.60787649237894e-11)
(1.02549483211569e-11,1.02269118347296e-11,-2.24073378267885e-11)
(1.04586708885658e-11,1.6956647218657e-11,-1.61217727334079e-11)
(1.04130469607325e-11,2.98043666459815e-11,-7.80737531459807e-12)
(1.00731657711664e-11,5.69323999504198e-11,1.99030096021246e-12)
(8.94068502965311e-12,9.06042696467119e-11,3.41116583054912e-12)
(8.25163619019945e-12,1.28760901682672e-10,2.29723909885836e-12)
(8.19286615275218e-12,1.73054629307642e-10,1.29346154991604e-12)
(0,0,0)
(0,0,0)
(0,0,0)
(0,0,0)
(0,0,0)
(0,0,0)
(4.73166189907309e-12,5.19388632891962e-13,-3.7496968554766e-11)
(8.63513855584013e-12,1.30890073812097e-12,-3.63424808380314e-11)
(1.18488599175875e-11,3.25256749886259e-12,-3.39821720313406e-11)
(1.33041609731088e-11,5.40637720922308e-12,-3.00887758886229e-11)
(1.41850777615575e-11,1.03593159009365e-11,-2.44629947466139e-11)
(1.45688281919858e-11,2.16392579628612e-11,-1.74089101317984e-11)
(1.3526099478568e-11,5.35497180224039e-11,-1.26978048724155e-11)
(1.49769220556722e-11,9.56464951400314e-11,-6.37650839129685e-12)
(1.43032064503495e-11,1.31715632818059e-10,-4.60294908359229e-12)
(1.42532115896357e-11,1.74728465238865e-10,-2.37672720935785e-12)
(0,0,0)
(0,0,0)
(0,0,0)
(0,0,0)
(0,0,0)
(0,0,0)
(5.03444041326501e-12,-5.0725424422094e-13,-4.70335790597049e-11)
(9.35566650045223e-12,-3.68798566262779e-13,-4.63856148214077e-11)
(1.32186466357497e-11,4.59754046681659e-13,-4.44817160822646e-11)
(1.55206920357149e-11,1.09875065871593e-12,-4.12691035923281e-11)
(1.76755927245271e-11,4.33602755173791e-12,-3.72536756767766e-11)
(1.90971776855768e-11,1.57113405858756e-11,-3.14715863712413e-11)
(2.10959952582116e-11,5.61802634674207e-11,-2.28515490023455e-11)
(2.15981335934507e-11,9.5316093595808e-11,-2.01007960454088e-11)
(2.07590061363165e-11,1.29693220635772e-10,-1.53125481758599e-11)
(2.07699685981202e-11,1.71767001861364e-10,-8.31355539453205e-12)
(0,0,0)
(0,0,0)
(0,0,0)
(0,0,0)
(0,0,0)
(0,0,0)
(5.34250848042338e-12,-1.41284832954562e-12,-6.20073977234008e-11)
(1.00609646348045e-11,-1.99976993828298e-12,-6.19018067921384e-11)
(1.405488759207e-11,-1.96027070692376e-12,-6.08988607529613e-11)
(1.71244240208817e-11,-2.09740795227985e-12,-5.96049140026904e-11)
(2.00105347773142e-11,-8.41981325630945e-13,-5.8533758072944e-11)
(2.02286150428652e-11,6.77815949263784e-12,-5.72878590724623e-11)
(2.85403376775461e-11,5.18302873906815e-11,-4.03667992187913e-11)
(2.96132781306326e-11,8.97570620485613e-11,-4.4556041093818e-11)
(2.85056375703022e-11,1.21554438926901e-10,-3.23094866776242e-11)
(2.80411739278796e-11,1.6208202607188e-10,-1.70458940720374e-11)
(0,0,0)
(0,0,0)
(0,0,0)
(0,0,0)
(0,0,0)
(0,0,0)
(5.08989583055615e-12,-1.87085402294001e-12,-8.5935613717927e-11)
(1.0398414895423e-11,-3.19697938209437e-12,-8.6084997645992e-11)
(1.55722210176103e-11,-3.27840228858189e-12,-8.61668455569599e-11)
(1.97788557621596e-11,-2.66669704848693e-12,-8.69311930922857e-11)
(2.3842045983927e-11,6.7088071174919e-13,-8.75690303895435e-11)
(2.79423568243305e-11,1.32746975211653e-11,-8.80543075182559e-11)
(3.33595469074316e-11,4.86124317912388e-11,-8.40038416577747e-11)
(3.57445847842823e-11,7.43649698043884e-11,-7.22247627576875e-11)
(3.62967835614881e-11,1.04243889328266e-10,-5.25320268922495e-11)
(3.61249314886067e-11,1.43476316692501e-10,-2.83182869890245e-11)
(0,0,0)
(0,0,0)
(0,0,0)
(0,0,0)
(0,0,0)
(0,0,0)
(4.49132094469885e-12,-1.93849520040076e-12,-1.20325964765658e-10)
(1.04720631750968e-11,-3.45544935690463e-12,-1.21362919467086e-10)
(1.63217232146476e-11,-3.20644836870231e-12,-1.23060477933909e-10)
(2.15619077756492e-11,-2.19096539630584e-12,-1.24843824476007e-10)
(2.66614960233405e-11,1.78691100524164e-12,-1.25997084613157e-10)
(3.25127580076746e-11,1.25901506119804e-11,-1.25715495808984e-10)
(3.70936851038157e-11,3.30784133973117e-11,-1.20309565340373e-10)
(4.06788609411313e-11,5.27553464846594e-11,-1.05117484466054e-10)
(4.23108394095923e-11,7.902358341903e-11,-8.03249925831704e-11)
(4.31801885989756e-11,1.14650089702325e-10,-4.56666440642829e-11)
(0,0,0)
(0,0,0)
(0,0,0)
(0,0,0)
(0,0,0)
(0,0,0)
(4.51085651423269e-12,-1.14307857329626e-12,-1.63454171441156e-10)
(1.09738288732972e-11,-2.25019432059753e-12,-1.65076854724575e-10)
(1.74099466456091e-11,-1.98629725859958e-12,-1.68016974594811e-10)
(2.36249814176051e-11,-1.28649134226482e-12,-1.70301177997406e-10)
(2.90452317482323e-11,1.09591733264741e-12,-1.71319057124253e-10)
(3.5447827710717e-11,6.8594757075131e-12,-1.70349583989906e-10)
(4.01115433891825e-11,1.65323349115304e-11,-1.63482992865958e-10)
(4.426769949957e-11,2.77134317057443e-11,-1.468653562054e-10)
(4.62420991804621e-11,4.49116575267627e-11,-1.18526607637568e-10)
(4.74666775212752e-11,7.02643960755839e-11,-7.23448322898209e-11)