/*--------------------------------*- C++ -*----------------------------------*\
| =========                 |                                                 |
| \\      /  F ield         | foam-extend: Open Source CFD                    |
|  \\    /   O peration     | Version:     4.0                                |
|   \\  /    A nd           | Web:         http://www.foam-extend.org         |
|    \\/     M anipulation  |                                                 |
\*---------------------------------------------------------------------------*/
FoamFile
{
    version 2.0;
    format ascii;
    class volVectorField;
    location "2278";
    object      H;
}
// * * * * * * * * * * * * * * * * * * * * * * * * * * * * * * * * * * * * * //

dimensions      [0 1 -1 0 0 0 0];

internalField   nonuniform List<vector>
4096
(
(0,0,0)
(0,0,0)
(0,0,0)
(0,0,0)
(0,0,0)
(0,0,0)
(0,0,0)
(0,0,0)
(0,0,0)
(0,0,0)
(0,0,0)
(0,0,0)
(0,0,0)
(0,0,0)
(0,0,0)
(0,0,0)
(0,0,0)
(0,0,0)
(0,0,0)
(0,0,0)
(0,0,0)
(0,0,0)
(0,0,0)
(0,0,0)
(0,0,0)
(0,0,0)
(0,0,0)
(0,0,0)
(0,0,0)
(0,0,0)
(0,0,0)
(0,0,0)
(0,0,0)
(0,0,0)
(0,0,0)
(0,0,0)
(0,0,0)
(0,0,0)
(0,0,0)
(0,0,0)
(0,0,0)
(0,0,0)
(0,0,0)
(0,0,0)
(0,0,0)
(0,0,0)
(0,0,0)
(0,0,0)
(0,0,0)
(0,0,0)
(0,0,0)
(0,0,0)
(0,0,0)
(0,0,0)
(0,0,0)
(0,0,0)
(0,0,0)
(0,0,0)
(0,0,0)
(0,0,0)
(0,0,0)
(0,0,0)
(0,0,0)
(0,0,0)
(0,0,0)
(0,0,0)
(0,0,0)
(0,0,0)
(0,0,0)
(0,0,0)
(0,0,0)
(0,0,0)
(0,0,0)
(0,0,0)
(0,0,0)
(0,0,0)
(0,0,0)
(0,0,0)
(0,0,0)
(0,0,0)
(0,0,0)
(0,0,0)
(0,0,0)
(0,0,0)
(0,0,0)
(0,0,0)
(0,0,0)
(0,0,0)
(0,0,0)
(0,0,0)
(0,0,0)
(0,0,0)
(0,0,0)
(0,0,0)
(0,0,0)
(0,0,0)
(0,0,0)
(0,0,0)
(0,0,0)
(0,0,0)
(0,0,0)
(0,0,0)
(0,0,0)
(0,0,0)
(0,0,0)
(0,0,0)
(0,0,0)
(0,0,0)
(0,0,0)
(0,0,0)
(0,0,0)
(0,0,0)
(0,0,0)
(0,0,0)
(0,0,0)
(0,0,0)
(0,0,0)
(0,0,0)
(0,0,0)
(0,0,0)
(0,0,0)
(0,0,0)
(0,0,0)
(0,0,0)
(0,0,0)
(0,0,0)
(0,0,0)
(0,0,0)
(0,0,0)
(0,0,0)
(0,0,0)
(0,0,0)
(0,0,0)
(0,0,0)
(0,0,0)
(0,0,0)
(0,0,0)
(0,0,0)
(0,0,0)
(0,0,0)
(0,0,0)
(0,0,0)
(0,0,0)
(0,0,0)
(0,0,0)
(0,0,0)
(0,0,0)
(0,0,0)
(0,0,0)
(0,0,0)
(0,0,0)
(0,0,0)
(0,0,0)
(0,0,0)
(0,0,0)
(0,0,0)
(0,0,0)
(0,0,0)
(0,0,0)
(0,0,0)
(0,0,0)
(0,0,0)
(0,0,0)
(0,0,0)
(0,0,0)
(0,0,0)
(0,0,0)
(0,0,0)
(0,0,0)
(0,0,0)
(0,0,0)
(0,0,0)
(0,0,0)
(0,0,0)
(0,0,0)
(0,0,0)
(0,0,0)
(0,0,0)
(0,0,0)
(0,0,0)
(0,0,0)
(0,0,0)
(0,0,0)
(0,0,0)
(0,0,0)
(0,0,0)
(0,0,0)
(0,0,0)
(0,0,0)
(0,0,0)
(0,0,0)
(0,0,0)
(0,0,0)
(0,0,0)
(0,0,0)
(0,0,0)
(0,0,0)
(0,0,0)
(0,0,0)
(0,0,0)
(0,0,0)
(0,0,0)
(0,0,0)
(0,0,0)
(0,0,0)
(0,0,0)
(0,0,0)
(0,0,0)
(0,0,0)
(0,0,0)
(0,0,0)
(0,0,0)
(0,0,0)
(0,0,0)
(0,0,0)
(0,0,0)
(0,0,0)
(0,0,0)
(0,0,0)
(0,0,0)
(0,0,0)
(0,0,0)
(0,0,0)
(0,0,0)
(0,0,0)
(0,0,0)
(0,0,0)
(0,0,0)
(0,0,0)
(0,0,0)
(0,0,0)
(0,0,0)
(0,0,0)
(0,0,0)
(0,0,0)
(0,0,0)
(0,0,0)
(0,0,0)
(0,0,0)
(0,0,0)
(0,0,0)
(0,0,0)
(0,0,0)
(0,0,0)
(0,0,0)
(0,0,0)
(0,0,0)
(0,0,0)
(0,0,0)
(0,0,0)
(0,0,0)
(0,0,0)
(0,0,0)
(0,0,0)
(0,0,0)
(0,0,0)
(0,0,0)
(0,0,0)
(0,0,0)
(0,0,0)
(0,0,0)
(0,0,0)
(0,0,0)
(0,0,0)
(0,0,0)
(0,0,0)
(0,0,0)
(0,0,0)
(0,0,0)
(0,0,0)
(0,0,0)
(0,0,0)
(0,0,0)
(0,0,0)
(0,0,0)
(0,0,0)
(0,0,0)
(0,0,0)
(0,0,0)
(0,0,0)
(0,0,0)
(0,0,0)
(0,0,0)
(0,0,0)
(0,0,0)
(0,0,0)
(0,0,0)
(0,0,0)
(0,0,0)
(0,0,0)
(0,0,0)
(0,0,0)
(0,0,0)
(0,0,0)
(0,0,0)
(0,0,0)
(0,0,0)
(0,0,0)
(0,0,0)
(0,0,0)
(0,0,0)
(0,0,0)
(0,0,0)
(0,0,0)
(0,0,0)
(0,0,0)
(0,0,0)
(0,0,0)
(0,0,0)
(0,0,0)
(0,0,0)
(0,0,0)
(0,0,0)
(0,0,0)
(0,0,0)
(0,0,0)
(0,0,0)
(0,0,0)
(0,0,0)
(0,0,0)
(0,0,0)
(0,0,0)
(0,0,0)
(0,0,0)
(0,0,0)
(0,0,0)
(0,0,0)
(0,0,0)
(0,0,0)
(0,0,0)
(0,0,0)
(0,0,0)
(0,0,0)
(0,0,0)
(0,0,0)
(0,0,0)
(0,0,0)
(0,0,0)
(0,0,0)
(0,0,0)
(0,0,0)
(0,0,0)
(0,0,0)
(0,0,0)
(0,0,0)
(0,0,0)
(0,0,0)
(0,0,0)
(0,0,0)
(0,0,0)
(0,0,0)
(0,0,0)
(0,0,0)
(0,0,0)
(0,0,0)
(0,0,0)
(0,0,0)
(0,0,0)
(0,0,0)
(0,0,0)
(0,0,0)
(0,0,0)
(0,0,0)
(0,0,0)
(0,0,0)
(0,0,0)
(0,0,0)
(0,0,0)
(0,0,0)
(0,0,0)
(0,0,0)
(0,0,0)
(0,0,0)
(0,0,0)
(0,0,0)
(0,0,0)
(0,0,0)
(0,0,0)
(0,0,0)
(0,0,0)
(0,0,0)
(0,0,0)
(0,0,0)
(0,0,0)
(0,0,0)
(0,0,0)
(0,0,0)
(0,0,0)
(0,0,0)
(0,0,0)
(0,0,0)
(0,0,0)
(0,0,0)
(0,0,0)
(0,0,0)
(0,0,0)
(0,0,0)
(0,0,0)
(0,0,0)
(0,0,0)
(0,0,0)
(0,0,0)
(0,0,0)
(0,0,0)
(0,0,0)
(0,0,0)
(0,0,0)
(0,0,0)
(0,0,0)
(0,0,0)
(0,0,0)
(0,0,0)
(0,0,0)
(0,0,0)
(0,0,0)
(0,0,0)
(0,0,0)
(0,0,0)
(0,0,0)
(0,0,0)
(0,0,0)
(0,0,0)
(0,0,0)
(0,0,0)
(0,0,0)
(0,0,0)
(0,0,0)
(0,0,0)
(0,0,0)
(0,0,0)
(0,0,0)
(0,0,0)
(0,0,0)
(0,0,0)
(0,0,0)
(0,0,0)
(0,0,0)
(0,0,0)
(0,0,0)
(0,0,0)
(0,0,0)
(0,0,0)
(0,0,0)
(0,0,0)
(0,0,0)
(0,0,0)
(0,0,0)
(0,0,0)
(0,0,0)
(0,0,0)
(0,0,0)
(0,0,0)
(0,0,0)
(0,0,0)
(0,0,0)
(0,0,0)
(0,0,0)
(0,0,0)
(0,0,0)
(0,0,0)
(0,0,0)
(0,0,0)
(0,0,0)
(0,0,0)
(0,0,0)
(0,0,0)
(0,0,0)
(0,0,0)
(0,0,0)
(0,0,0)
(0,0,0)
(0,0,0)
(0,0,0)
(0,0,0)
(0,0,0)
(0,0,0)
(0,0,0)
(0,0,0)
(0,0,0)
(0,0,0)
(0,0,0)
(0,0,0)
(0,0,0)
(0,0,0)
(0,0,0)
(0,0,0)
(0,0,0)
(0,0,0)
(0,0,0)
(0,0,0)
(0,0,0)
(0,0,0)
(0,0,0)
(0,0,0)
(0,0,0)
(0,0,0)
(0,0,0)
(0,0,0)
(0,0,0)
(0,0,0)
(0,0,0)
(0,0,0)
(0,0,0)
(0,0,0)
(0,0,0)
(0,0,0)
(0,0,0)
(0,0,0)
(0,0,0)
(0,0,0)
(0,0,0)
(0,0,0)
(0,0,0)
(0,0,0)
(0,0,0)
(0,0,0)
(0,0,0)
(0,0,0)
(0,0,0)
(0,0,0)
(0,0,0)
(0,0,0)
(0,0,0)
(0,0,0)
(0,0,0)
(0,0,0)
(0,0,0)
(0,0,0)
(0,0,0)
(0,0,0)
(0,0,0)
(0,0,0)
(0,0,0)
(0,0,0)
(0,0,0)
(0,0,0)
(0,0,0)
(0,0,0)
(0,0,0)
(0,0,0)
(0,0,0)
(0,0,0)
(0,0,0)
(0,0,0)
(0,0,0)
(0,0,0)
(0,0,0)
(0,0,0)
(0,0,0)
(0,0,0)
(0,0,0)
(0,0,0)
(0,0,0)
(0,0,0)
(0,0,0)
(0,0,0)
(0,0,0)
(0,0,0)
(0,0,0)
(0,0,0)
(0,0,0)
(0,0,0)
(0,0,0)
(0,0,0)
(0,0,0)
(0,0,0)
(0,0,0)
(0,0,0)
(0,0,0)
(0,0,0)
(0,0,0)
(0,0,0)
(0,0,0)
(0,0,0)
(0,0,0)
(0,0,0)
(0,0,0)
(0,0,0)
(0,0,0)
(0,0,0)
(0,0,0)
(0,0,0)
(0,0,0)
(0,0,0)
(0,0,0)
(0,0,0)
(0,0,0)
(0,0,0)
(0,0,0)
(0,0,0)
(0,0,0)
(0,0,0)
(0,0,0)
(0,0,0)
(0,0,0)
(0,0,0)
(0,0,0)
(0,0,0)
(0,0,0)
(0,0,0)
(0,0,0)
(0,0,0)
(0,0,0)
(0,0,0)
(0,0,0)
(0,0,0)
(0,0,0)
(0,0,0)
(0,0,0)
(0,0,0)
(0,0,0)
(0,0,0)
(0,0,0)
(0,0,0)
(0,0,0)
(0,0,0)
(0,0,0)
(0,0,0)
(0,0,0)
(0,0,0)
(0,0,0)
(0,0,0)
(0,0,0)
(0,0,0)
(0,0,0)
(0,0,0)
(0,0,0)
(0,0,0)
(0,0,0)
(0,0,0)
(0,0,0)
(0,0,0)
(0,0,0)
(0,0,0)
(0,0,0)
(0,0,0)
(0,0,0)
(0,0,0)
(0,0,0)
(0,0,0)
(0,0,0)
(0,0,0)
(0,0,0)
(0,0,0)
(0,0,0)
(0,0,0)
(0,0,0)
(0,0,0)
(0,0,0)
(0,0,0)
(0,0,0)
(0,0,0)
(0,0,0)
(0,0,0)
(0,0,0)
(0,0,0)
(0,0,0)
(0,0,0)
(0,0,0)
(0,0,0)
(0,0,0)
(0,0,0)
(0,0,0)
(0,0,0)
(0,0,0)
(0,0,0)
(0,0,0)
(0,0,0)
(0,0,0)
(0,0,0)
(0,0,0)
(0,0,0)
(0,0,0)
(0,0,0)
(0,0,0)
(0,0,0)
(0,0,0)
(0,0,0)
(0,0,0)
(0,0,0)
(0,0,0)
(0,0,0)
(0,0,0)
(0,0,0)
(0,0,0)
(0,0,0)
(0,0,0)
(0,0,0)
(0,0,0)
(0,0,0)
(0,0,0)
(0,0,0)
(0,0,0)
(0,0,0)
(0,0,0)
(0,0,0)
(0,0,0)
(0,0,0)
(0,0,0)
(0,0,0)
(0,0,0)
(0,0,0)
(0,0,0)
(0,0,0)
(0,0,0)
(0,0,0)
(0,0,0)
(0,0,0)
(0,0,0)
(0,0,0)
(0,0,0)
(0,0,0)
(0,0,0)
(0,0,0)
(0,0,0)
(0,0,0)
(0,0,0)
(0,0,0)
(0,0,0)
(0,0,0)
(0,0,0)
(0,0,0)
(0,0,0)
(0,0,0)
(0,0,0)
(0,0,0)
(0,0,0)
(0,0,0)
(0,0,0)
(0,0,0)
(0,0,0)
(0,0,0)
(0,0,0)
(0,0,0)
(0,0,0)
(0,0,0)
(0,0,0)
(0,0,0)
(0,0,0)
(0,0,0)
(0,0,0)
(0,0,0)
(0,0,0)
(0,0,0)
(0,0,0)
(0,0,0)
(0,0,0)
(0,0,0)
(0,0,0)
(0,0,0)
(0,0,0)
(0,0,0)
(0,0,0)
(0,0,0)
(0,0,0)
(0,0,0)
(0,0,0)
(0,0,0)
(0,0,0)
(0,0,0)
(0,0,0)
(0,0,0)
(0,0,0)
(0,0,0)
(0,0,0)
(0,0,0)
(0,0,0)
(0,0,0)
(0,0,0)
(0,0,0)
(0,0,0)
(0,0,0)
(0,0,0)
(0,0,0)
(0,0,0)
(0,0,0)
(0,0,0)
(0,0,0)
(0,0,0)
(0,0,0)
(0,0,0)
(0,0,0)
(0,0,0)
(0,0,0)
(0,0,0)
(0,0,0)
(0,0,0)
(0,0,0)
(0,0,0)
(0,0,0)
(0,0,0)
(0,0,0)
(0,0,0)
(0,0,0)
(0,0,0)
(0,0,0)
(0,0,0)
(0,0,0)
(0,0,0)
(0,0,0)
(0,0,0)
(0,0,0)
(0,0,0)
(0,0,0)
(0,0,0)
(0,0,0)
(0,0,0)
(0,0,0)
(0,0,0)
(0,0,0)
(0,0,0)
(0,0,0)
(0,0,0)
(0,0,0)
(0,0,0)
(0,0,0)
(0,0,0)
(0,0,0)
(0,0,0)
(3.3845320924389e-12,1.2702158828878e-11,-1.64727476693057e-11)
(4.53530314683161e-12,2.67369824611021e-11,-1.51109826890857e-11)
(3.61850482100351e-12,4.49227151994713e-11,-1.30073514250185e-11)
(2.56959505747081e-12,7.08424329211961e-11,-1.07869353426496e-11)
(2.50553861737369e-13,1.10527123800465e-10,-8.07605364390757e-12)
(-2.00931094815165e-12,1.73103286258891e-10,-5.11354673878239e-12)
(-3.69128518810948e-12,2.76453850239748e-10,-2.8683957091668e-12)
(-4.59001848074414e-12,4.49261879993348e-10,-1.36456318230578e-12)
(-5.01649340441922e-12,7.38096563671292e-10,-5.0579625245165e-13)
(-4.61309268683826e-12,1.14083975106318e-09,-2.27809725667632e-13)
(0,0,0)
(0,0,0)
(0,0,0)
(0,0,0)
(0,0,0)
(0,0,0)
(5.27617508783384e-12,1.1932136372011e-11,-3.34579698998299e-11)
(8.05276616420922e-12,2.56711901464568e-11,-3.12026336219951e-11)
(7.06440867843454e-12,4.34588417307423e-11,-2.7302705814998e-11)
(4.4931326349458e-12,6.87104713414125e-11,-2.2881675858533e-11)
(8.76080569658589e-13,1.07701612919836e-10,-1.76175461072792e-11)
(-2.68159485081683e-12,1.70633420070078e-10,-1.21247749504777e-11)
(-4.85415166532265e-12,2.75107492455759e-10,-7.44855223284802e-12)
(-6.85416907338871e-12,4.48990554603433e-10,-4.19059870639066e-12)
(-8.69266453969088e-12,7.38249499309791e-10,-2.55005575011126e-12)
(-8.88553935540849e-12,1.14113552178431e-09,-1.39129273585452e-12)
(0,0,0)
(0,0,0)
(0,0,0)
(0,0,0)
(0,0,0)
(0,0,0)
(5.93844113831662e-12,1.04088677060801e-11,-5.20212257348971e-11)
(9.7970714228519e-12,2.30911353279302e-11,-4.97041191712289e-11)
(1.01512221396654e-11,4.00619169099581e-11,-4.5590147556395e-11)
(8.05303375026803e-12,6.39742651531618e-11,-4.00224578577704e-11)
(4.6508641949274e-12,1.01988785664982e-10,-3.30586604088286e-11)
(1.02563370579109e-12,1.65335861443874e-10,-2.5201144647074e-11)
(-2.88957850786753e-12,2.71965802692822e-10,-1.77428170557242e-11)
(-6.81194325241882e-12,4.48354440753207e-10,-1.22667283889679e-11)
(-9.13937182459302e-12,7.38098321393973e-10,-8.28427507424928e-12)
(-1.00528201750099e-11,1.14083342159438e-09,-4.42562601468798e-12)
(0,0,0)
(0,0,0)
(0,0,0)
(0,0,0)
(0,0,0)
(0,0,0)
(5.57695350012096e-12,9.0449724741605e-12,-7.72279248061962e-11)
(9.64341229414373e-12,2.03752401736753e-11,-7.51725637052771e-11)
(1.11690115139711e-11,3.57270176554479e-11,-7.14723562083346e-11)
(1.08683941448142e-11,5.76377166771049e-11,-6.57182958539843e-11)
(9.12309024013063e-12,9.39628178261102e-11,-5.81236052800608e-11)
(5.2541522079745e-12,1.57295084498761e-10,-4.8706452441633e-11)
(-1.71143205345408e-13,2.66252901247019e-10,-3.85656265662003e-11)
(-5.37301392510801e-12,4.45620176556973e-10,-2.95237041783588e-11)
(-8.33923754976723e-12,7.35793215463498e-10,-2.06388644941195e-11)
(-9.6430813905562e-12,1.13788409832824e-09,-1.0832205397097e-11)
(0,0,0)
(0,0,0)
(0,0,0)
(0,0,0)
(0,0,0)
(0,0,0)
(4.52512133507374e-12,7.59956019988577e-12,-1.1622239061688e-10)
(8.96270478175816e-12,1.72590593613638e-11,-1.14675929374067e-10)
(1.20832435031412e-11,3.03680197535985e-11,-1.11408314944644e-10)
(1.34217760825819e-11,4.98387005669486e-11,-1.05890595512049e-10)
(1.34267672577454e-11,8.35868024978014e-11,-9.83061211063222e-11)
(9.61098147753429e-12,1.45477742847911e-10,-8.88509856981559e-11)
(2.64912529384064e-12,2.56046673259939e-10,-7.77079378491033e-11)
(-2.98497706985464e-12,4.38368014915171e-10,-6.26310861664928e-11)
(-6.97704111505973e-12,7.28403585257335e-10,-4.43516114904376e-11)
(-8.93808290761819e-12,1.12944831606859e-09,-2.29850994572891e-11)
(0,0,0)
(0,0,0)
(0,0,0)
(0,0,0)
(0,0,0)
(0,0,0)
(3.57206521614392e-12,5.93393744557375e-12,-1.79321457659862e-10)
(7.57016467793498e-12,1.37560658701597e-11,-1.77917766137561e-10)
(1.14851324639151e-11,2.46551104885617e-11,-1.74891288969995e-10)
(1.36338722216304e-11,4.15201411911237e-11,-1.69901925593465e-10)
(1.45410811821172e-11,7.23383563350248e-11,-1.62609987093066e-10)
(1.13406066218652e-11,1.31736682473817e-10,-1.52468423783027e-10)
(4.78235598474254e-12,2.42722292706556e-10,-1.38213135506683e-10)
(-4.13544511608759e-14,4.23456487696051e-10,-1.16221453263596e-10)
(-3.63143270795639e-12,7.10143030093137e-10,-8.47521599899002e-11)
(-5.59650574743776e-12,1.10869975680134e-09,-4.4975151138417e-11)
(0,0,0)
(0,0,0)
(0,0,0)
(0,0,0)
(0,0,0)
(0,0,0)
(3.26007628580148e-12,4.394682927816e-12,-2.8018862317093e-10)
(6.99269169799946e-12,1.0303673856785e-11,-2.79167080869124e-10)
(1.09841522811298e-11,1.92921729487875e-11,-2.7698122886999e-10)
(1.33687927439187e-11,3.3643963762138e-11,-2.73005300124809e-10)
(1.37867034227396e-11,6.10039383590421e-11,-2.66313733420106e-10)
(1.13131726395846e-11,1.15528980640635e-10,-2.55111279513121e-10)
(7.88112511601226e-12,2.21545994833823e-10,-2.34951135292405e-10)
(5.08405992909818e-12,3.94285108686328e-10,-2.03294703892358e-10)
(1.73749862468203e-12,6.7271619860393e-10,-1.52453328151082e-10)
(-1.07230205486244e-12,1.0654613018194e-09,-8.3011827281282e-11)
(0,0,0)
(0,0,0)
(0,0,0)
(0,0,0)
(0,0,0)
(0,0,0)
(2.61586575614059e-12,3.55334081348861e-12,-4.50901766390913e-10)
(5.63033413875426e-12,7.80732393730407e-12,-4.50209882965468e-10)
(9.73275871805478e-12,1.49189256275733e-11,-4.4881388572671e-10)
(1.29226298723694e-11,2.69064653115235e-11,-4.45176202384639e-10)
(1.4560336364091e-11,5.07758089587657e-11,-4.38081939752835e-10)
(1.39544419248716e-11,9.8802980653164e-11,-4.24665900275698e-10)
(1.24917616273615e-11,1.90934092335016e-10,-3.98738668002704e-10)
(1.1379649440108e-11,3.44649843924283e-10,-3.51029440887412e-10)
(9.55250732981126e-12,6.04769947241945e-10,-2.72142701237721e-10)
(7.36198876454629e-12,9.83742260485882e-10,-1.5416656596608e-10)
(0,0,0)
(0,0,0)
(0,0,0)
(0,0,0)
(0,0,0)
(0,0,0)
(1.44955313261026e-12,2.78773538001471e-12,-7.36739465674386e-10)
(3.28010733774774e-12,5.69183429240432e-12,-7.35891222983648e-10)
(7.53539877196951e-12,1.05545327233461e-11,-7.34418843114125e-10)
(1.18831966601747e-11,1.96552463111803e-11,-7.30667482260752e-10)
(1.48022016890842e-11,3.78221109832053e-11,-7.22321593620714e-10)
(1.52209814815165e-11,7.45212753483874e-11,-7.05342686219444e-10)
(1.54899492501625e-11,1.44035246910688e-10,-6.71385497400605e-10)
(1.6427670590293e-11,2.66460647973203e-10,-6.06339867631292e-10)
(1.61927505130186e-11,4.87932658460155e-10,-4.90596270412398e-10)
(1.5712525466547e-11,8.30393360829848e-10,-2.94651678473959e-10)
(0,0,0)
(0,0,0)
(0,0,0)
(0,0,0)
(0,0,0)
(0,0,0)
(2.0363826600385e-12,1.24904425239987e-12,-1.13783756502929e-09)
(4.16212263626095e-12,2.72402764652285e-12,-1.13734315933254e-09)
(7.43514881119128e-12,5.42509595529803e-12,-1.13559876374607e-09)
(1.16847656877306e-11,1.06630268193506e-11,-1.13119127318263e-09)
(1.46982109783924e-11,2.04705278546134e-11,-1.12103088895068e-09)
(1.59120986728015e-11,4.05930986068789e-11,-1.10138338271041e-09)
(1.72443991533455e-11,7.91374063866454e-11,-1.06167875172097e-09)
(1.9361787666239e-11,1.51158893952988e-10,-9.8296686385594e-10)
(2.07913142491192e-11,2.92855643611603e-10,-8.31349604420632e-10)
(2.21550593376468e-11,5.36190440931874e-10,-5.37323804016122e-10)
(0,0,0)
(0,0,0)
(0,0,0)
(0,0,0)
(0,0,0)
(0,0,0)
(0,0,0)
(0,0,0)
(0,0,0)
(0,0,0)
(0,0,0)
(0,0,0)
(0,0,0)
(0,0,0)
(0,0,0)
(0,0,0)
(0,0,0)
(0,0,0)
(0,0,0)
(0,0,0)
(0,0,0)
(0,0,0)
(0,0,0)
(0,0,0)
(0,0,0)
(0,0,0)
(0,0,0)
(0,0,0)
(0,0,0)
(0,0,0)
(0,0,0)
(0,0,0)
(0,0,0)
(0,0,0)
(0,0,0)
(0,0,0)
(0,0,0)
(0,0,0)
(0,0,0)
(0,0,0)
(0,0,0)
(0,0,0)
(0,0,0)
(0,0,0)
(0,0,0)
(0,0,0)
(0,0,0)
(0,0,0)
(0,0,0)
(0,0,0)
(0,0,0)
(0,0,0)
(0,0,0)
(0,0,0)
(0,0,0)
(0,0,0)
(0,0,0)
(0,0,0)
(0,0,0)
(0,0,0)
(0,0,0)
(0,0,0)
(0,0,0)
(0,0,0)
(0,0,0)
(0,0,0)
(0,0,0)
(0,0,0)
(0,0,0)
(0,0,0)
(0,0,0)
(0,0,0)
(0,0,0)
(0,0,0)
(0,0,0)
(0,0,0)
(0,0,0)
(0,0,0)
(0,0,0)
(0,0,0)
(0,0,0)
(0,0,0)
(0,0,0)
(0,0,0)
(0,0,0)
(0,0,0)
(0,0,0)
(0,0,0)
(0,0,0)
(0,0,0)
(0,0,0)
(0,0,0)
(0,0,0)
(0,0,0)
(0,0,0)
(0,0,0)
(0,0,0)
(0,0,0)
(0,0,0)
(0,0,0)
(0,0,0)
(0,0,0)
(2.792789569083e-12,2.27603958626751e-11,-2.98010088107938e-11)
(3.49746419740653e-12,4.95569568313213e-11,-2.80512234217349e-11)
(2.86196220734243e-12,8.3561859037144e-11,-2.46859031654617e-11)
(1.99067493851058e-12,1.3050348080138e-10,-2.01164139602892e-11)
(1.13557837190844e-13,2.00556125380701e-10,-1.41636626061868e-11)
(-1.78459578893164e-12,3.09904873807096e-10,-7.9164572590421e-12)
(-3.84875993091342e-12,4.86172573428316e-10,-2.9860481642339e-12)
(-5.17746002084502e-12,7.86309388980114e-10,-5.61936396198846e-13)
(-5.44741557005399e-12,1.3630379507598e-09,-1.05137066345033e-14)
(-5.13667313419036e-12,2.68273500584356e-09,-1.15988675144025e-13)
(0,0,0)
(0,0,0)
(0,0,0)
(0,0,0)
(0,0,0)
(0,0,0)
(4.54410747593103e-12,2.1632293493749e-11,-6.0404729194469e-11)
(6.73289317574243e-12,4.71123525154644e-11,-5.69684796214931e-11)
(6.04030354276288e-12,7.97795936622451e-11,-5.05435987078244e-11)
(3.96520907193252e-12,1.25178632281005e-10,-4.18608064203976e-11)
(1.09613666771108e-12,1.94436405742738e-10,-3.07781492584939e-11)
(-2.06025894226682e-12,3.04746167172845e-10,-1.87310928922946e-11)
(-4.97041542893712e-12,4.83738732266735e-10,-8.25402705963501e-12)
(-7.85859817920698e-12,7.86393881763151e-10,-2.90955298239916e-12)
(-9.70024963770845e-12,1.36422277289228e-09,-1.56309279670694e-12)
(-9.97473190109097e-12,2.68402575752376e-09,-9.6218670443582e-13)
(0,0,0)
(0,0,0)
(0,0,0)
(0,0,0)
(0,0,0)
(0,0,0)
(4.98522980656887e-12,1.92047961564854e-11,-9.61225365855164e-11)
(8.39899496227808e-12,4.22229318553716e-11,-9.18574831921167e-11)
(8.91843169556632e-12,7.25530713533232e-11,-8.40072855584235e-11)
(7.42578477738985e-12,1.15136762843467e-10,-7.27010648567544e-11)
(4.81931627199136e-12,1.82679835577841e-10,-5.78218406824859e-11)
(1.60808305955696e-12,2.9399273701574e-10,-3.97104204963182e-11)
(-2.65276572879331e-12,4.78681288084787e-10,-2.21912360776272e-11)
(-8.06013237105955e-12,7.86941150390864e-10,-1.35949973388884e-11)
(-1.06929149539063e-11,1.3659131744756e-09,-9.67418603391837e-12)
(-1.15291229237274e-11,2.6855057113734e-09,-5.44048090981279e-12)
(0,0,0)
(0,0,0)
(0,0,0)
(0,0,0)
(0,0,0)
(0,0,0)
(4.96700467347582e-12,1.60746678249516e-11,-1.43382037537466e-10)
(9.05938560950963e-12,3.61039349813179e-11,-1.39688936684159e-10)
(1.07739490614628e-11,6.28977421686136e-11,-1.31996965314573e-10)
(1.10727196810496e-11,1.0128428600942e-10,-1.19810840837936e-10)
(1.00819527300044e-11,1.64651267773108e-10,-1.02848312385542e-10)
(6.93066798340362e-12,2.75279631618999e-10,-8.07024335364125e-11)
(9.93162393862609e-13,4.68288442397359e-10,-5.7167445596103e-11)
(-7.00569196745712e-12,7.85786531997516e-10,-4.29180824096659e-11)
(-1.07562664401904e-11,1.36558996089107e-09,-3.13674923689629e-11)
(-1.20395045271666e-11,2.68361569823673e-09,-1.70870435641215e-11)
(0,0,0)
(0,0,0)
(0,0,0)
(0,0,0)
(0,0,0)
(0,0,0)
(4.64428284657291e-12,1.30560455483421e-11,-2.13916248839811e-10)
(9.19808384353736e-12,2.9540113621606e-11,-2.10749140676967e-10)
(1.22784333355816e-11,5.16932181135907e-11,-2.03738793401107e-10)
(1.41558610526762e-11,8.44266996435363e-11,-1.92578709665068e-10)
(1.52200780123652e-11,1.40522707403254e-10,-1.76862428011843e-10)
(1.22089940025725e-11,2.45759150367007e-10,-1.57689088650114e-10)
(8.96654164619251e-13,4.44933770577906e-10,-1.4036027288568e-10)
(-6.35292452658354e-12,7.779035343687e-10,-1.09571808117797e-10)
(-1.00829979840661e-11,1.3568908975354e-09,-7.71353145910034e-11)
(-1.11746230981088e-11,2.67123325939997e-09,-4.02820624323338e-11)
(0,0,0)
(0,0,0)
(0,0,0)
(0,0,0)
(0,0,0)
(0,0,0)
(3.70762821160118e-12,1.03282851206636e-11,-3.21964699793767e-10)
(7.99607952374277e-12,2.34054236321202e-11,-3.19368305049997e-10)
(1.18587066271547e-11,4.0947543055758e-11,-3.13542545742176e-10)
(1.42181111502277e-11,6.74241922568442e-11,-3.045854842862e-10)
(1.57339358480725e-11,1.15951479276941e-10,-2.91784921142744e-10)
(1.32930201786728e-11,2.16345860812213e-10,-2.74049923763044e-10)
(3.96697161443774e-12,4.24566554272583e-10,-2.51302688032302e-10)
(-2.33926871511238e-12,7.5568745158114e-10,-2.09656727459426e-10)
(-5.98161007034326e-12,1.3273499337327e-09,-1.51097338291047e-10)
(-7.33320190373522e-12,2.63590986226832e-09,-7.95202953572875e-11)
(0,0,0)
(0,0,0)
(0,0,0)
(0,0,0)
(0,0,0)
(0,0,0)
(3.07987609832251e-12,7.65556732153634e-12,-4.92706524636801e-10)
(7.3031896183469e-12,1.73903466272071e-11,-4.91104474433749e-10)
(1.13814708571636e-11,3.11309196592618e-11,-4.87154441398072e-10)
(1.34147244898242e-11,5.20182889133394e-11,-4.80749422973807e-10)
(1.2812378916051e-11,9.25178304510305e-11,-4.71753182311211e-10)
(7.87902840636505e-12,1.82337547153436e-10,-4.56023149546596e-10)
(6.83659621482501e-12,3.8805461112784e-10,-4.17389081458314e-10)
(3.87794894971107e-12,7.04938815288768e-10,-3.65976269285785e-10)
(2.42249116548976e-13,1.26149092447763e-09,-2.70916175557005e-10)
(-2.36508800209563e-12,2.56006665857658e-09,-1.45993887151518e-10)
(0,0,0)
(0,0,0)
(0,0,0)
(0,0,0)
(0,0,0)
(0,0,0)
(2.68958776416903e-12,5.45891553931212e-12,-7.86778141004347e-10)
(6.34982654489684e-12,1.23425539813586e-11,-7.86010380686579e-10)
(1.04594682802145e-11,2.3373902347346e-11,-7.83757450406854e-10)
(1.30795862409095e-11,4.14880682569542e-11,-7.7845698235716e-10)
(1.40979948624898e-11,7.89067256541249e-11,-7.6948795571085e-10)
(1.23089149566789e-11,1.62372022268177e-10,-7.51556181605209e-10)
(1.16813799364284e-11,3.37121344805678e-10,-7.10229600565395e-10)
(1.06821057413163e-11,6.12441313667676e-10,-6.24229135880944e-10)
(8.41366084012139e-12,1.13910320179275e-09,-4.81545479539798e-10)
(6.54432245392322e-12,2.41557018081033e-09,-2.73898881670015e-10)
(0,0,0)
(0,0,0)
(0,0,0)
(0,0,0)
(0,0,0)
(0,0,0)
(2.14000156948734e-12,3.83501746978261e-12,-1.35786832227496e-09)
(4.77553411410618e-12,8.42628316014645e-12,-1.35708653685504e-09)
(8.91347468664705e-12,1.6352151585871e-11,-1.35516099611592e-09)
(1.25295275119698e-11,3.09210512801807e-11,-1.349356178461e-09)
(1.51748774164198e-11,6.09404839087012e-11,-1.33717537509548e-09)
(1.51919694041649e-11,1.2534559119832e-10,-1.31131358210627e-09)
(1.53421600048934e-11,2.51518563368738e-10,-1.25507159682e-09)
(1.59858273916063e-11,4.7074998963223e-10,-1.14053496466557e-09)
(1.53251734231266e-11,9.32911193579718e-10,-9.37058943321032e-10)
(1.52637668906694e-11,2.14259398817649e-09,-5.85556072382756e-10)
(0,0,0)
(0,0,0)
(0,0,0)
(0,0,0)
(0,0,0)
(0,0,0)
(2.79102121568495e-12,1.73751768943411e-12,-2.67466995965572e-09)
(5.14175469631695e-12,4.09207249014985e-12,-2.67436460730241e-09)
(8.45275420304115e-12,8.57152289430432e-12,-2.67250828685883e-09)
(1.21874082751314e-11,1.71697894738889e-11,-2.66549286045407e-09)
(1.55212325927289e-11,3.38284483004896e-11,-2.64931168039288e-09)
(1.68005662902344e-11,6.88659897196979e-11,-2.61699616174872e-09)
(1.76699176749428e-11,1.36906449130957e-10,-2.54932721423469e-09)
(1.89034221839646e-11,2.67830532557885e-10,-2.41248321234589e-09)
(1.96211574562134e-11,5.8240068912963e-10,-2.14385808644347e-09)
(2.10216962534946e-11,1.55814944381176e-09,-1.56002665982605e-09)
(0,0,0)
(0,0,0)
(0,0,0)
(0,0,0)
(0,0,0)
(0,0,0)
(0,0,0)
(0,0,0)
(0,0,0)
(0,0,0)
(0,0,0)
(0,0,0)
(0,0,0)
(0,0,0)
(0,0,0)
(0,0,0)
(0,0,0)
(0,0,0)
(0,0,0)
(0,0,0)
(0,0,0)
(0,0,0)
(0,0,0)
(0,0,0)
(0,0,0)
(0,0,0)
(0,0,0)
(0,0,0)
(0,0,0)
(0,0,0)
(0,0,0)
(0,0,0)
(0,0,0)
(0,0,0)
(0,0,0)
(0,0,0)
(0,0,0)
(0,0,0)
(0,0,0)
(0,0,0)
(0,0,0)
(0,0,0)
(0,0,0)
(0,0,0)
(0,0,0)
(0,0,0)
(0,0,0)
(0,0,0)
(0,0,0)
(0,0,0)
(0,0,0)
(0,0,0)
(0,0,0)
(0,0,0)
(0,0,0)
(0,0,0)
(0,0,0)
(0,0,0)
(0,0,0)
(0,0,0)
(0,0,0)
(0,0,0)
(0,0,0)
(0,0,0)
(0,0,0)
(0,0,0)
(0,0,0)
(0,0,0)
(0,0,0)
(0,0,0)
(0,0,0)
(0,0,0)
(0,0,0)
(0,0,0)
(0,0,0)
(0,0,0)
(0,0,0)
(0,0,0)
(0,0,0)
(0,0,0)
(0,0,0)
(0,0,0)
(0,0,0)
(0,0,0)
(0,0,0)
(0,0,0)
(0,0,0)
(0,0,0)
(0,0,0)
(0,0,0)
(0,0,0)
(0,0,0)
(0,0,0)
(0,0,0)
(0,0,0)
(0,0,0)
(0,0,0)
(0,0,0)
(0,0,0)
(0,0,0)
(0,0,0)
(0,0,0)
(2.17110654893891e-12,3.11157353359463e-11,-3.9920322241337e-11)
(2.57674825664528e-12,6.65577973275183e-11,-3.73749655537887e-11)
(2.07473837777947e-12,1.10693510608734e-10,-3.27389163733738e-11)
(1.362772105046e-12,1.70597683588842e-10,-2.57870505407651e-11)
(-1.39278722162126e-14,2.57459823059038e-10,-1.66224174333557e-11)
(-1.55629824950998e-12,3.85789228192589e-10,-6.42570821262807e-12)
(-3.83903053778415e-12,5.74975064043746e-10,1.99606070909347e-12)
(-5.81337549340171e-12,8.51072629316671e-10,4.88942209512872e-12)
(-6.52676273398994e-12,1.24591512292024e-09,4.14379255578444e-12)
(-6.54341348968309e-12,1.72653306004901e-09,2.11885205664283e-12)
(0,0,0)
(0,0,0)
(0,0,0)
(0,0,0)
(0,0,0)
(0,0,0)
(3.53535523975964e-12,2.97539080792371e-11,-8.04691873370411e-11)
(5.19743292151613e-12,6.32185213443843e-11,-7.54636207911761e-11)
(4.58403356333146e-12,1.05304045315298e-10,-6.68817447780634e-11)
(2.924421348436e-12,1.62863146355354e-10,-5.40580150285606e-11)
(8.05650466310098e-13,2.48321687878211e-10,-3.6569331522311e-11)
(-1.78389461767101e-12,3.78074676448515e-10,-1.51978200827512e-11)
(-5.25744532536915e-12,5.73085815724494e-10,4.62283247821536e-12)
(-9.75232699133844e-12,8.53622471408096e-10,9.91225296047114e-12)
(-1.19915573133506e-11,1.2497032291139e-09,7.00788074052293e-12)
(-1.24168724549437e-11,1.73038327127203e-09,3.08168802600834e-12)
(0,0,0)
(0,0,0)
(0,0,0)
(0,0,0)
(0,0,0)
(0,0,0)
(3.85030474270728e-12,2.64102667869467e-11,-1.28447326500367e-10)
(6.66779420374883e-12,5.6557362669284e-11,-1.22304839855839e-10)
(7.26754017923315e-12,9.47856191527201e-11,-1.11287227280461e-10)
(6.39903743646968e-12,1.47575354527921e-10,-9.39126736358551e-11)
(4.73646389059326e-12,2.29139291084985e-10,-6.86059700832152e-11)
(2.8020040375621e-12,3.60447210177683e-10,-3.351557010615e-11)
(-8.56158779227815e-13,5.70391470310745e-10,4.63223807692179e-12)
(-1.08263252836974e-11,8.61123292259533e-10,9.35757275285222e-12)
(-1.46034064924594e-11,1.25728594712466e-09,3.06547620565422e-12)
(-1.50795906975925e-11,1.73643382317776e-09,-4.45532716016959e-13)
(0,0,0)
(0,0,0)
(0,0,0)
(0,0,0)
(0,0,0)
(0,0,0)
(4.29252609600924e-12,2.17119760362168e-11,-1.91092636536086e-10)
(7.93123560081877e-12,4.74502682597867e-11,-1.85689286181301e-10)
(9.79234863920345e-12,7.96365719551101e-11,-1.74209381978859e-10)
(1.09677775937549e-11,1.24451720904501e-10,-1.54642862476416e-10)
(1.20646342515269e-11,1.96226794007978e-10,-1.24394145879786e-10)
(1.29161612944712e-11,3.23621923503847e-10,-7.8737403481547e-11)
(1.00984710271405e-11,5.62344989984463e-10,-1.84516666703314e-11)
(-1.06732843789647e-11,8.74841942398562e-10,-1.659951250285e-11)
(-1.63376518889853e-11,1.26709373479876e-09,-2.02881517730251e-11)
(-1.67441092551792e-11,1.74046436960404e-09,-1.40038736869325e-11)
(0,0,0)
(0,0,0)
(0,0,0)
(0,0,0)
(0,0,0)
(0,0,0)
(4.20493511103593e-12,1.72907816661561e-11,-2.78695544399782e-10)
(8.32242655801624e-12,3.75022818134883e-11,-2.73784966373372e-10)
(1.18640246562221e-11,6.17029374662874e-11,-2.63075892221125e-10)
(1.54420867864833e-11,9.5087002219961e-11,-2.45448261587562e-10)
(2.06179667778521e-11,1.49044482573481e-10,-2.19288572877971e-10)
(2.42934677918841e-11,2.52467444504203e-10,-1.87544188689859e-10)
(-9.52459429874664e-12,4.99801482626224e-10,-1.90908009193613e-10)
(-1.65733352658663e-11,8.89029304876655e-10,-1.25442112542878e-10)
(-1.7395286338382e-11,1.27046978147726e-09,-8.63330186422355e-11)
(-1.61332883992892e-11,1.73234314238338e-09,-4.57399906261268e-11)
(0,0,0)
(0,0,0)
(0,0,0)
(0,0,0)
(0,0,0)
(0,0,0)
(3.7839512674764e-12,1.30545860958058e-11,-4.02599006493949e-10)
(8.18539722058646e-12,2.76472465522304e-11,-3.98908258852925e-10)
(1.27182685674352e-11,4.43102281757998e-11,-3.90700016312309e-10)
(1.68234513515707e-11,6.61815095945826e-11,-3.77945464062634e-10)
(2.14325872932069e-11,1.04173473141905e-10,-3.60171864661501e-10)
(2.45540981068648e-11,1.97568872413025e-10,-3.36904971111711e-10)
(-1.16704581338846e-12,5.0076182288811e-10,-3.29868489029891e-10)
(-1.01500215917628e-11,8.7686731089962e-10,-2.63555063218367e-10)
(-1.16996437483405e-11,1.2418277906356e-09,-1.84573372309025e-10)
(-1.10102935701518e-11,1.69273219963505e-09,-9.54193485766173e-11)
(0,0,0)
(0,0,0)
(0,0,0)
(0,0,0)
(0,0,0)
(0,0,0)
(3.67447767812452e-12,9.30230453127155e-12,-5.81729359656404e-10)
(8.4009492279775e-12,1.89797549147704e-11,-5.79519862918627e-10)
(1.27334697448894e-11,2.97619724339007e-11,-5.74931913856048e-10)
(1.49487044836429e-11,4.20230996984679e-11,-5.69123797820582e-10)
(1.06934509486435e-11,6.17004889438234e-11,-5.66650528327526e-10)
(-1.07895147969525e-11,1.1869749182426e-10,-5.69061216090355e-10)
(6.35705036478885e-12,4.59123543941689e-10,-4.89061432580527e-10)
(1.31535684137742e-12,8.186274939383e-10,-4.72310381206534e-10)
(-2.29231660360525e-12,1.16206221507531e-09,-3.29697278880103e-10)
(-3.86249738686782e-12,1.60158112257802e-09,-1.69935587712309e-10)
(0,0,0)
(0,0,0)
(0,0,0)
(0,0,0)
(0,0,0)
(0,0,0)
(3.54572551628243e-12,6.31078214194155e-12,-8.46994037215144e-10)
(8.01316708652789e-12,1.29508018722194e-11,-8.46124002224301e-10)
(1.21807509912415e-11,2.1512359086357e-11,-8.4409615478033e-10)
(1.46775765725251e-11,3.41817582061762e-11,-8.40952515259558e-10)
(1.4132462501499e-11,6.37648320549561e-11,-8.40202714276967e-10)
(8.0087649870602e-12,1.52577325039217e-10,-8.41176792402879e-10)
(1.12836966889824e-11,4.18346688997569e-10,-8.17087627451424e-10)
(9.68977343441769e-12,6.78440973128262e-10,-6.96860733063268e-10)
(6.95907118374476e-12,1.0053858087921e-09,-5.0941498647133e-10)
(5.62163341834071e-12,1.43294785113522e-09,-2.75163714529897e-10)
(0,0,0)
(0,0,0)
(0,0,0)
(0,0,0)
(0,0,0)
(0,0,0)
(3.45571592975792e-12,4.29895600480462e-12,-1.23551715477211e-09)
(7.18420404487575e-12,8.95670494525388e-12,-1.23466983587463e-09)
(1.08892857238798e-11,1.57439225296179e-11,-1.23259292642173e-09)
(1.40999859528355e-11,2.85273344008628e-11,-1.22788542716549e-09)
(1.64251200358279e-11,5.86724365507838e-11,-1.22001592683453e-09)
(1.54295855961295e-11,1.33619591331962e-10,-1.2011937657123e-09)
(1.54176420881708e-11,2.94329579001647e-10,-1.14703140929136e-09)
(1.54292631203671e-11,4.91594932669245e-10,-1.00775944244533e-09)
(1.43328069356792e-11,7.72689920017804e-10,-7.80272162945049e-10)
(1.41522388725211e-11,1.15916788472528e-09,-4.48144213507642e-10)
(0,0,0)
(0,0,0)
(0,0,0)
(0,0,0)
(0,0,0)
(0,0,0)
(4.2231865511976e-12,2.11462833420803e-12,-1.71305198045681e-09)
(7.37750674258968e-12,4.61884322889816e-12,-1.71232720337899e-09)
(1.00088506930049e-11,8.72502620060283e-12,-1.71004353325922e-09)
(1.31760176875092e-11,1.71482718321483e-11,-1.70347670041683e-09)
(1.70341622494128e-11,3.52255424372236e-11,-1.68863251429756e-09)
(1.79976084953408e-11,7.59397632018605e-11,-1.65623209151347e-09)
(1.77323649175339e-11,1.53619436206916e-10,-1.58284463416594e-09)
(1.81088288382034e-11,2.65026974368111e-10,-1.42953843300992e-09)