/*--------------------------------*- C++ -*----------------------------------*\
| =========                 |                                                 |
| \\      /  F ield         | foam-extend: Open Source Cstd::filesystem::create_directory();FD                    |
|  \\    /   O peration     | Version:     4.0                                |
|   \\  /    A nd           | Web:         http://www.foam-extend.org         |
|    \\/     M anipulation  |                                                 |
\*---------------------------------------------------------------------------*/
FoamFile
{
    version 2.0;
    format ascii;
    class volVectorField;
    location "Data/1774";
    object      H;
}
// * * * * * * * * * * * * * * * * * * * * * * * * * * * * * * * * * * * * * //

dimensions      [0 1 -1 0 0 0 0];

internalField   nonuniform List<vector>
4096
(
(0,0,0)
(0,0,0)
(0,0,0)
(0,0,0)
(0,0,0)
(0,0,0)
(0,0,0)
(0,0,0)
(0,0,0)
(0,0,0)
(0,0,0)
(0,0,0)
(0,0,0)
(0,0,0)
(0,0,0)
(0,0,0)
(0,0,0)
(0,0,0)
(0,0,0)
(0,0,0)
(0,0,0)
(0,0,0)
(0,0,0)
(0,0,0)
(0,0,0)
(0,0,0)
(0,0,0)
(0,0,0)
(0,0,0)
(0,0,0)
(0,0,0)
(0,0,0)
(0,0,0)
(0,0,0)
(0,0,0)
(0,0,0)
(0,0,0)
(0,0,0)
(0,0,0)
(0,0,0)
(0,0,0)
(0,0,0)
(0,0,0)
(0,0,0)
(0,0,0)
(0,0,0)
(0,0,0)
(0,0,0)
(0,0,0)
(0,0,0)
(0,0,0)
(0,0,0)
(0,0,0)
(0,0,0)
(0,0,0)
(0,0,0)
(0,0,0)
(0,0,0)
(0,0,0)
(0,0,0)
(0,0,0)
(0,0,0)
(0,0,0)
(0,0,0)
(0,0,0)
(0,0,0)
(0,0,0)
(0,0,0)
(0,0,0)
(0,0,0)
(0,0,0)
(0,0,0)
(0,0,0)
(0,0,0)
(0,0,0)
(0,0,0)
(0,0,0)
(0,0,0)
(0,0,0)
(0,0,0)
(0,0,0)
(0,0,0)
(0,0,0)
(0,0,0)
(0,0,0)
(0,0,0)
(0,0,0)
(0,0,0)
(0,0,0)
(0,0,0)
(0,0,0)
(0,0,0)
(0,0,0)
(0,0,0)
(0,0,0)
(0,0,0)
(0,0,0)
(0,0,0)
(0,0,0)
(0,0,0)
(0,0,0)
(0,0,0)
(0,0,0)
(0,0,0)
(0,0,0)
(0,0,0)
(0,0,0)
(0,0,0)
(0,0,0)
(0,0,0)
(0,0,0)
(0,0,0)
(0,0,0)
(0,0,0)
(0,0,0)
(0,0,0)
(0,0,0)
(0,0,0)
(0,0,0)
(0,0,0)
(0,0,0)
(0,0,0)
(0,0,0)
(0,0,0)
(0,0,0)
(0,0,0)
(0,0,0)
(0,0,0)
(0,0,0)
(0,0,0)
(0,0,0)
(0,0,0)
(0,0,0)
(0,0,0)
(0,0,0)
(0,0,0)
(0,0,0)
(0,0,0)
(0,0,0)
(0,0,0)
(0,0,0)
(0,0,0)
(0,0,0)
(0,0,0)
(0,0,0)
(0,0,0)
(0,0,0)
(0,0,0)
(0,0,0)
(0,0,0)
(0,0,0)
(0,0,0)
(0,0,0)
(0,0,0)
(0,0,0)
(0,0,0)
(0,0,0)
(0,0,0)
(0,0,0)
(0,0,0)
(0,0,0)
(0,0,0)
(0,0,0)
(0,0,0)
(0,0,0)
(0,0,0)
(0,0,0)
(0,0,0)
(0,0,0)
(0,0,0)
(0,0,0)
(0,0,0)
(0,0,0)
(0,0,0)
(0,0,0)
(0,0,0)
(0,0,0)
(0,0,0)
(0,0,0)
(0,0,0)
(0,0,0)
(0,0,0)
(0,0,0)
(0,0,0)
(0,0,0)
(0,0,0)
(0,0,0)
(0,0,0)
(0,0,0)
(0,0,0)
(0,0,0)
(0,0,0)
(0,0,0)
(0,0,0)
(0,0,0)
(0,0,0)
(0,0,0)
(0,0,0)
(0,0,0)
(0,0,0)
(0,0,0)
(0,0,0)
(0,0,0)
(0,0,0)
(0,0,0)
(0,0,0)
(0,0,0)
(0,0,0)
(0,0,0)
(0,0,0)
(0,0,0)
(0,0,0)
(0,0,0)
(0,0,0)
(0,0,0)
(0,0,0)
(0,0,0)
(0,0,0)
(0,0,0)
(0,0,0)
(0,0,0)
(0,0,0)
(0,0,0)
(0,0,0)
(0,0,0)
(0,0,0)
(0,0,0)
(0,0,0)
(0,0,0)
(0,0,0)
(0,0,0)
(0,0,0)
(0,0,0)
(0,0,0)
(0,0,0)
(0,0,0)
(0,0,0)
(0,0,0)
(0,0,0)
(0,0,0)
(0,0,0)
(0,0,0)
(0,0,0)
(0,0,0)
(0,0,0)
(0,0,0)
(0,0,0)
(0,0,0)
(0,0,0)
(0,0,0)
(0,0,0)
(0,0,0)
(0,0,0)
(0,0,0)
(0,0,0)
(0,0,0)
(0,0,0)
(0,0,0)
(0,0,0)
(0,0,0)
(0,0,0)
(0,0,0)
(0,0,0)
(0,0,0)
(0,0,0)
(0,0,0)
(0,0,0)
(0,0,0)
(0,0,0)
(0,0,0)
(0,0,0)
(0,0,0)
(0,0,0)
(0,0,0)
(0,0,0)
(0,0,0)
(0,0,0)
(0,0,0)
(0,0,0)
(0,0,0)
(0,0,0)
(0,0,0)
(0,0,0)
(0,0,0)
(0,0,0)
(0,0,0)
(0,0,0)
(0,0,0)
(0,0,0)
(0,0,0)
(0,0,0)
(0,0,0)
(0,0,0)
(0,0,0)
(0,0,0)
(0,0,0)
(0,0,0)
(0,0,0)
(0,0,0)
(0,0,0)
(0,0,0)
(0,0,0)
(0,0,0)
(0,0,0)
(0,0,0)
(0,0,0)
(0,0,0)
(0,0,0)
(0,0,0)
(0,0,0)
(0,0,0)
(0,0,0)
(0,0,0)
(0,0,0)
(0,0,0)
(0,0,0)
(0,0,0)
(0,0,0)
(0,0,0)
(0,0,0)
(0,0,0)
(0,0,0)
(0,0,0)
(0,0,0)
(0,0,0)
(0,0,0)
(0,0,0)
(0,0,0)
(0,0,0)
(0,0,0)
(0,0,0)
(0,0,0)
(0,0,0)
(0,0,0)
(0,0,0)
(0,0,0)
(0,0,0)
(0,0,0)
(0,0,0)
(0,0,0)
(0,0,0)
(0,0,0)
(0,0,0)
(0,0,0)
(0,0,0)
(0,0,0)
(0,0,0)
(0,0,0)
(0,0,0)
(0,0,0)
(0,0,0)
(0,0,0)
(0,0,0)
(0,0,0)
(0,0,0)
(0,0,0)
(0,0,0)
(0,0,0)
(0,0,0)
(0,0,0)
(0,0,0)
(0,0,0)
(0,0,0)
(0,0,0)
(0,0,0)
(0,0,0)
(0,0,0)
(0,0,0)
(0,0,0)
(0,0,0)
(0,0,0)
(0,0,0)
(0,0,0)
(0,0,0)
(0,0,0)
(0,0,0)
(0,0,0)
(0,0,0)
(0,0,0)
(0,0,0)
(0,0,0)
(0,0,0)
(0,0,0)
(0,0,0)
(0,0,0)
(0,0,0)
(0,0,0)
(0,0,0)
(0,0,0)
(0,0,0)
(0,0,0)
(0,0,0)
(0,0,0)
(0,0,0)
(0,0,0)
(0,0,0)
(0,0,0)
(0,0,0)
(0,0,0)
(0,0,0)
(0,0,0)
(0,0,0)
(0,0,0)
(0,0,0)
(0,0,0)
(0,0,0)
(0,0,0)
(0,0,0)
(0,0,0)
(0,0,0)
(0,0,0)
(0,0,0)
(0,0,0)
(0,0,0)
(0,0,0)
(0,0,0)
(0,0,0)
(0,0,0)
(0,0,0)
(0,0,0)
(0,0,0)
(0,0,0)
(0,0,0)
(0,0,0)
(0,0,0)
(0,0,0)
(0,0,0)
(0,0,0)
(0,0,0)
(0,0,0)
(0,0,0)
(0,0,0)
(0,0,0)
(0,0,0)
(0,0,0)
(0,0,0)
(0,0,0)
(0,0,0)
(0,0,0)
(0,0,0)
(0,0,0)
(0,0,0)
(0,0,0)
(0,0,0)
(0,0,0)
(0,0,0)
(0,0,0)
(0,0,0)
(0,0,0)
(0,0,0)
(0,0,0)
(0,0,0)
(0,0,0)
(0,0,0)
(0,0,0)
(0,0,0)
(0,0,0)
(0,0,0)
(0,0,0)
(0,0,0)
(0,0,0)
(0,0,0)
(0,0,0)
(0,0,0)
(0,0,0)
(0,0,0)
(0,0,0)
(0,0,0)
(0,0,0)
(0,0,0)
(0,0,0)
(0,0,0)
(0,0,0)
(0,0,0)
(0,0,0)
(0,0,0)
(0,0,0)
(0,0,0)
(0,0,0)
(0,0,0)
(0,0,0)
(0,0,0)
(0,0,0)
(0,0,0)
(0,0,0)
(0,0,0)
(0,0,0)
(0,0,0)
(0,0,0)
(0,0,0)
(0,0,0)
(0,0,0)
(0,0,0)
(0,0,0)
(0,0,0)
(0,0,0)
(0,0,0)
(0,0,0)
(0,0,0)
(0,0,0)
(0,0,0)
(0,0,0)
(0,0,0)
(0,0,0)
(0,0,0)
(0,0,0)
(0,0,0)
(0,0,0)
(0,0,0)
(0,0,0)
(0,0,0)
(0,0,0)
(0,0,0)
(0,0,0)
(0,0,0)
(0,0,0)
(0,0,0)
(0,0,0)
(0,0,0)
(0,0,0)
(0,0,0)
(0,0,0)
(0,0,0)
(0,0,0)
(0,0,0)
(0,0,0)
(0,0,0)
(0,0,0)
(0,0,0)
(0,0,0)
(0,0,0)
(0,0,0)
(0,0,0)
(0,0,0)
(0,0,0)
(0,0,0)
(0,0,0)
(0,0,0)
(0,0,0)
(0,0,0)
(0,0,0)
(0,0,0)
(0,0,0)
(0,0,0)
(0,0,0)
(0,0,0)
(0,0,0)
(0,0,0)
(0,0,0)
(0,0,0)
(0,0,0)
(0,0,0)
(0,0,0)
(0,0,0)
(0,0,0)
(0,0,0)
(0,0,0)
(0,0,0)
(0,0,0)
(0,0,0)
(0,0,0)
(0,0,0)
(0,0,0)
(0,0,0)
(0,0,0)
(0,0,0)
(0,0,0)
(0,0,0)
(0,0,0)
(0,0,0)
(0,0,0)
(0,0,0)
(0,0,0)
(0,0,0)
(0,0,0)
(0,0,0)
(0,0,0)
(0,0,0)
(0,0,0)
(0,0,0)
(0,0,0)
(0,0,0)
(0,0,0)
(0,0,0)
(0,0,0)
(0,0,0)
(0,0,0)
(0,0,0)
(0,0,0)
(0,0,0)
(0,0,0)
(0,0,0)
(0,0,0)
(0,0,0)
(0,0,0)
(0,0,0)
(0,0,0)
(0,0,0)
(0,0,0)
(0,0,0)
(0,0,0)
(0,0,0)
(0,0,0)
(0,0,0)
(0,0,0)
(0,0,0)
(0,0,0)
(0,0,0)
(0,0,0)
(0,0,0)
(0,0,0)
(0,0,0)
(0,0,0)
(0,0,0)
(0,0,0)
(0,0,0)
(0,0,0)
(0,0,0)
(0,0,0)
(0,0,0)
(0,0,0)
(0,0,0)
(0,0,0)
(0,0,0)
(0,0,0)
(0,0,0)
(0,0,0)
(0,0,0)
(0,0,0)
(0,0,0)
(0,0,0)
(0,0,0)
(0,0,0)
(0,0,0)
(0,0,0)
(0,0,0)
(0,0,0)
(0,0,0)
(0,0,0)
(0,0,0)
(0,0,0)
(0,0,0)
(0,0,0)
(0,0,0)
(0,0,0)
(0,0,0)
(0,0,0)
(0,0,0)
(0,0,0)
(0,0,0)
(0,0,0)
(0,0,0)
(0,0,0)
(0,0,0)
(0,0,0)
(0,0,0)
(0,0,0)
(0,0,0)
(0,0,0)
(0,0,0)
(0,0,0)
(0,0,0)
(0,0,0)
(0,0,0)
(0,0,0)
(0,0,0)
(0,0,0)
(0,0,0)
(0,0,0)
(0,0,0)
(0,0,0)
(0,0,0)
(0,0,0)
(0,0,0)
(0,0,0)
(0,0,0)
(0,0,0)
(0,0,0)
(0,0,0)
(0,0,0)
(0,0,0)
(0,0,0)
(0,0,0)
(0,0,0)
(0,0,0)
(0,0,0)
(0,0,0)
(0,0,0)
(0,0,0)
(0,0,0)
(0,0,0)
(0,0,0)
(0,0,0)
(0,0,0)
(0,0,0)
(0,0,0)
(0,0,0)
(0,0,0)
(0,0,0)
(0,0,0)
(0,0,0)
(0,0,0)
(0,0,0)
(0,0,0)
(0,0,0)
(0,0,0)
(0,0,0)
(0,0,0)
(0,0,0)
(0,0,0)
(0,0,0)
(0,0,0)
(0,0,0)
(0,0,0)
(0,0,0)
(0,0,0)
(0,0,0)
(0,0,0)
(0,0,0)
(0,0,0)
(0,0,0)
(0,0,0)
(0,0,0)
(0,0,0)
(0,0,0)
(0,0,0)
(0,0,0)
(0,0,0)
(0,0,0)
(0,0,0)
(0,0,0)
(0,0,0)
(0,0,0)
(0,0,0)
(0,0,0)
(0,0,0)
(0,0,0)
(0,0,0)
(0,0,0)
(0,0,0)
(0,0,0)
(0,0,0)
(0,0,0)
(0,0,0)
(0,0,0)
(0,0,0)
(0,0,0)
(0,0,0)
(0,0,0)
(0,0,0)
(0,0,0)
(0,0,0)
(0,0,0)
(0,0,0)
(0,0,0)
(0,0,0)
(0,0,0)
(0,0,0)
(0,0,0)
(0,0,0)
(0,0,0)
(0,0,0)
(0,0,0)
(0,0,0)
(0,0,0)
(0,0,0)
(0,0,0)
(0,0,0)
(0,0,0)
(0,0,0)
(0,0,0)
(0,0,0)
(0,0,0)
(0,0,0)
(0,0,0)
(0,0,0)
(0,0,0)
(0,0,0)
(0,0,0)
(0,0,0)
(0,0,0)
(0,0,0)
(0,0,0)
(0,0,0)
(0,0,0)
(0,0,0)
(0,0,0)
(0,0,0)
(0,0,0)
(0,0,0)
(0,0,0)
(0,0,0)
(0,0,0)
(0,0,0)
(0,0,0)
(0,0,0)
(0,0,0)
(0,0,0)
(0,0,0)
(0,0,0)
(0,0,0)
(0,0,0)
(0,0,0)
(0,0,0)
(0,0,0)
(0,0,0)
(0,0,0)
(0,0,0)
(0,0,0)
(0,0,0)
(0,0,0)
(0,0,0)
(0,0,0)
(0,0,0)
(0,0,0)
(0,0,0)
(0,0,0)
(0,0,0)
(0,0,0)
(-4.68300822674996e-14,-1.4362501404159e-11,1.41258991043521e-11)
(9.01540673345244e-14,-3.04084009209819e-11,1.36820732051637e-11)
(1.98362310257807e-13,-4.92241925682845e-11,1.23798927630915e-11)
(4.78583237987359e-13,-7.66084647750214e-11,1.04124352799856e-11)
(9.94916360622791e-13,-1.17625735248239e-10,7.96595235031883e-12)
(2.96492535421649e-12,-1.82207334536357e-10,5.3734420035219e-12)
(5.33263480268612e-12,-2.87645623533546e-10,2.88892340304697e-12)
(7.46381122126819e-12,-4.6593774708677e-10,1.14607050343689e-12)
(8.33293981532833e-12,-7.62640956973913e-10,4.12476121264671e-13)
(8.00804242130803e-12,-1.17531261166771e-09,-1.15293800827931e-13)
(0,0,0)
(0,0,0)
(0,0,0)
(0,0,0)
(0,0,0)
(0,0,0)
(2.54162085545492e-13,-1.38049610763555e-11,3.1203238299785e-11)
(5.6047373101525e-13,-2.90496883911356e-11,2.97463420973579e-11)
(3.16198325330352e-13,-4.73148012886146e-11,2.69647348915703e-11)
(5.42175386708663e-13,-7.43325102004166e-11,2.32981092119956e-11)
(1.61374832140082e-12,-1.14897854526092e-10,1.8037233457376e-11)
(4.89322920377198e-12,-1.79575885538075e-10,1.23398610971487e-11)
(9.17465351583707e-12,-2.85850164978155e-10,7.2201920047154e-12)
(1.31483348102887e-11,-4.64954458531175e-10,3.7894193267208e-12)
(1.51514749351547e-11,-7.61807001006185e-10,1.96216586464046e-12)
(1.52798452303045e-11,-1.17477378307173e-09,6.29337272556159e-13)
(0,0,0)
(0,0,0)
(0,0,0)
(0,0,0)
(0,0,0)
(0,0,0)
(-5.87038730583644e-13,-1.2585504730305e-11,5.13461576727817e-11)
(-9.35428651514737e-13,-2.62996775179042e-11,4.93963325252235e-11)
(-1.54048672451144e-12,-4.36930877775826e-11,4.57527969944099e-11)
(-8.82767760455855e-13,-6.93078760154579e-11,4.06076134487624e-11)
(7.58907046553058e-13,-1.09091007227751e-10,3.32037063791494e-11)
(5.2721973912605e-12,-1.74176003211411e-10,2.47768411150827e-11)
(1.07628367701806e-11,-2.82082000885622e-10,1.69214560413519e-11)
(1.58675727913858e-11,-4.62848665665432e-10,1.1721097045147e-11)
(1.88374700352787e-11,-7.60254916512339e-10,7.45008786170962e-12)
(1.98469057001234e-11,-1.17349312625848e-09,3.33632929559342e-12)
(0,0,0)
(0,0,0)
(0,0,0)
(0,0,0)
(0,0,0)
(0,0,0)
(-1.20241624537783e-12,-1.11681747369728e-11,7.84308225629736e-11)
(-1.89466066932387e-12,-2.30604483919606e-11,7.61698192593626e-11)
(-2.15282935654903e-12,-3.89637461227064e-11,7.20447479963302e-11)
(-6.54225915675957e-13,-6.20826109397921e-11,6.57318345361664e-11)
(2.13550817562308e-12,-1.00229273009415e-10,5.75427310546932e-11)
(6.94877810516071e-12,-1.65225758135202e-10,4.82275582358979e-11)
(1.23272075612977e-11,-2.75689224133816e-10,3.82461650163643e-11)
(1.79697980383429e-11,-4.58816513318819e-10,2.9607853836238e-11)
(2.22253453551289e-11,-7.56743413788948e-10,2.05992850428874e-11)
(2.36718640438035e-11,-1.17029026917064e-09,1.06316046072009e-11)
(0,0,0)
(0,0,0)
(0,0,0)
(0,0,0)
(0,0,0)
(0,0,0)
(-8.82963487767294e-13,-9.42761611372678e-12,1.18549717881319e-10)
(-5.16372444999267e-13,-1.94630920296986e-11,1.16045086313402e-10)
(-2.12648683118296e-13,-3.3050772210804e-11,1.12201864474128e-10)
(1.26413195071776e-12,-5.34266255920669e-11,1.06461507170054e-10)
(5.12347041457839e-12,-8.89979046813609e-11,9.9074633885785e-11)
(1.02782158543838e-11,-1.52299422396254e-10,9.05209636500425e-11)
(1.60816066008471e-11,-2.64736622224864e-10,8.01982102768162e-11)
(2.07340314371101e-11,-4.50582425950514e-10,6.51368199826679e-11)
(2.42098499481204e-11,-7.47846219777108e-10,4.62948739672587e-11)
(2.50981073705654e-11,-1.16010739439938e-09,2.43288119511618e-11)
(0,0,0)
(0,0,0)
(0,0,0)
(0,0,0)
(0,0,0)
(0,0,0)
(-6.664238746928e-14,-7.39897015480164e-12,1.8084414001878e-10)
(1.8990546263379e-12,-1.60028373689556e-11,1.78850915500825e-10)
(3.81860865710524e-12,-2.73037900959779e-11,1.75557505010932e-10)
(6.2833612728704e-12,-4.4793125130513e-11,1.70782803686292e-10)
(1.07034001795047e-11,-7.71354089334091e-11,1.64527591965419e-10)
(1.56917371000491e-11,-1.38238186788195e-10,1.56073460661147e-10)
(2.03357540853529e-11,-2.51305085577837e-10,1.42577805331418e-10)
(2.35196966181419e-11,-4.34966051361032e-10,1.19868863187227e-10)
(2.59394180375111e-11,-7.28485633462013e-10,8.72736289162269e-11)
(2.66747371006689e-11,-1.13756074730647e-09,4.63816848144534e-11)
(0,0,0)
(0,0,0)
(0,0,0)
(0,0,0)
(0,0,0)
(0,0,0)
(7.77096404256765e-13,-5.77612281966384e-12,2.83015792871511e-10)
(3.71481680871057e-12,-1.27827557118639e-11,2.81781684832156e-10)
(7.72947087202833e-12,-2.19659029998457e-11,2.79004519467238e-10)
(1.17084161294309e-11,-3.67255812125993e-11,2.75047976741017e-10)
(1.67315821033338e-11,-6.53083844219464e-11,2.69539857569038e-10)
(2.15756137127606e-11,-1.21488818740755e-10,2.60089764469616e-10)
(2.49406470250407e-11,-2.29720873387116e-10,2.40816464307446e-10)
(2.68710099285318e-11,-4.0521184194321e-10,2.08065037253233e-10)
(2.84929466222537e-11,-6.89923229070206e-10,1.5542481385725e-10)
(2.9133686051923e-11,-1.09255577250292e-09,8.43366247765752e-11)
(0,0,0)
(0,0,0)
(0,0,0)
(0,0,0)
(0,0,0)
(0,0,0)
(2.10916857570698e-12,-4.58871638759251e-12,4.57849950816375e-10)
(5.13129304647069e-12,-9.75465583033409e-12,4.56735289088152e-10)
(9.79204570126601e-12,-1.71313095455457e-11,4.54303462698627e-10)
(1.40928757467304e-11,-2.97400392741109e-11,4.50562547465669e-10)
(1.94153700922734e-11,-5.47788823811605e-11,4.44170685144605e-10)
(2.37105747004499e-11,-1.03734697238253e-10,4.31896034072399e-10)
(2.67328120871396e-11,-1.96877153420834e-10,4.06447742220899e-10)
(2.78281143301978e-11,-3.53541880863374e-10,3.57879548011555e-10)
(2.90565840252623e-11,-6.20206947394889e-10,2.7720852275003e-10)
(2.96667138269824e-11,-1.00904450971614e-09,1.56965320454372e-10)
(0,0,0)
(0,0,0)
(0,0,0)
(0,0,0)
(0,0,0)
(0,0,0)
(2.88480590490752e-12,-3.41619305769062e-12,7.52373077819724e-10)
(5.48017483168737e-12,-6.97050824996874e-12,7.5100172776512e-10)
(9.98532522748605e-12,-1.22091067278811e-11,7.48041049095763e-10)
(1.45185935505643e-11,-2.16436110327668e-11,7.43621545111635e-10)
(1.97426425385083e-11,-4.08169598607284e-11,7.35288324255854e-10)
(2.3617900332009e-11,-7.75985330062723e-11,7.18495981077924e-10)
(2.65501527038721e-11,-1.47295440538184e-10,6.84507239067032e-10)
(2.84575107104297e-11,-2.72780286368698e-10,6.18792804560854e-10)
(3.02173110523846e-11,-5.00695134839653e-10,5.01326362329063e-10)
(3.20053628395733e-11,-8.52752269587414e-10,3.01351276551336e-10)
(0,0,0)
(0,0,0)
(0,0,0)
(0,0,0)
(0,0,0)
(0,0,0)
(2.93517096727321e-12,-1.84872019100195e-12,1.1658195671976e-09)
(5.44563621616687e-12,-3.62605851676719e-12,1.16394095055246e-09)
(1.00344019498023e-11,-6.44950383978102e-12,1.16040575973957e-09)
(1.50007364368173e-11,-1.16455800368827e-11,1.15541124943758e-09)
(1.98535934522067e-11,-2.21050064803131e-11,1.14580906179019e-09)
(2.41535258255367e-11,-4.20672931171862e-11,1.12572290489307e-09)
(2.68812553324386e-11,-8.07085267903368e-11,1.08547355916747e-09)
(2.91363180007909e-11,-1.55095805993296e-10,1.00590146414629e-09)
(3.13750535210691e-11,-3.0117594354354e-10,8.51471682557558e-10)
(3.46448942869617e-11,-5.51553454382374e-10,5.50330968320151e-10)
(0,0,0)
(0,0,0)
(0,0,0)
(0,0,0)
(0,0,0)
(0,0,0)
(0,0,0)
(0,0,0)
(0,0,0)
(0,0,0)
(0,0,0)
(0,0,0)
(0,0,0)
(0,0,0)
(0,0,0)
(0,0,0)
(0,0,0)
(0,0,0)
(0,0,0)
(0,0,0)
(0,0,0)
(0,0,0)
(0,0,0)
(0,0,0)
(0,0,0)
(0,0,0)
(0,0,0)
(0,0,0)
(0,0,0)
(0,0,0)
(0,0,0)
(0,0,0)
(0,0,0)
(0,0,0)
(0,0,0)
(0,0,0)
(0,0,0)
(0,0,0)
(0,0,0)
(0,0,0)
(0,0,0)
(0,0,0)
(0,0,0)
(0,0,0)
(0,0,0)
(0,0,0)
(0,0,0)
(0,0,0)
(0,0,0)
(0,0,0)
(0,0,0)
(0,0,0)
(0,0,0)
(0,0,0)
(0,0,0)
(0,0,0)
(0,0,0)
(0,0,0)
(0,0,0)
(0,0,0)
(0,0,0)
(0,0,0)
(0,0,0)
(0,0,0)
(0,0,0)
(0,0,0)
(0,0,0)
(0,0,0)
(0,0,0)
(0,0,0)
(0,0,0)
(0,0,0)
(0,0,0)
(0,0,0)
(0,0,0)
(0,0,0)
(0,0,0)
(0,0,0)
(0,0,0)
(0,0,0)
(0,0,0)
(0,0,0)
(0,0,0)
(0,0,0)
(0,0,0)
(0,0,0)
(0,0,0)
(0,0,0)
(0,0,0)
(0,0,0)
(0,0,0)
(0,0,0)
(0,0,0)
(0,0,0)
(0,0,0)
(0,0,0)
(0,0,0)
(0,0,0)
(0,0,0)
(0,0,0)
(0,0,0)
(0,0,0)
(-1.60544510885842e-13,-2.67767775852122e-11,2.65827462423522e-11)
(3.36219795579695e-14,-5.64381621235682e-11,2.55135871616924e-11)
(2.56428513667033e-13,-9.22837390087106e-11,2.3074609439841e-11)
(6.49111593047637e-13,-1.41570883879868e-10,1.91672490066919e-11)
(8.59545985232387e-13,-2.1382598062384e-10,1.40657323433242e-11)
(2.81799495644736e-12,-3.26232021650538e-10,8.00205899238008e-12)
(5.28002914697229e-12,-5.0649583687067e-10,2.72266281715409e-12)
(7.21411704766371e-12,-8.14603158214727e-10,5.75982245153496e-15)
(8.02675376938119e-12,-1.40670694333021e-09,-6.50952126253937e-13)
(7.35392002404364e-12,-2.76379758124159e-09,-6.50686846790317e-13)
(0,0,0)
(0,0,0)
(0,0,0)
(0,0,0)
(0,0,0)
(0,0,0)
(4.91601941923717e-13,-2.57198145083418e-11,5.63928496007764e-11)
(5.92070063575241e-13,-5.40580197081432e-11,5.4180269736201e-11)
(3.61110493882758e-13,-8.85407495594667e-11,4.94161954957611e-11)
(7.78416956367092e-13,-1.36794167443106e-10,4.19568171881441e-11)
(1.50427338328491e-12,-2.08238669691586e-10,3.13310829162788e-11)
(4.6130159695235e-12,-3.21058873595934e-10,1.88505364476238e-11)
(8.83726210118129e-12,-5.035665835909e-10,7.7590772667751e-12)
(1.28697954068749e-11,-8.1413245883514e-10,2.32916357010815e-12)
(1.49322190337633e-11,-1.40705487963475e-09,8.38924627148522e-13)
(1.46285256898057e-11,-2.7644418661597e-09,2.6633229596178e-13)
(0,0,0)
(0,0,0)
(0,0,0)
(0,0,0)
(0,0,0)
(0,0,0)
(-5.45435763564299e-14,-2.36915727404333e-11,9.2757963497804e-11)
(-5.31122246640508e-13,-4.93009464272116e-11,8.96132507463041e-11)
(-1.12464483372425e-12,-8.12855797764018e-11,8.29741814513323e-11)
(-7.04125766508005e-13,-1.26573168657751e-10,7.24127269778831e-11)
(3.24038092232606e-13,-1.9618783014255e-10,5.71748545564443e-11)
(4.17733738878006e-12,-3.09913184061085e-10,3.84351628504665e-11)
(9.57041901460595e-12,-4.97659150752014e-10,2.03657156872139e-11)
(1.61064296280882e-11,-8.13141291002111e-10,1.22651591042332e-11)
(1.94397258777342e-11,-1.40717444051483e-09,8.64899983970452e-12)
(1.9980377907693e-11,-2.764369090638e-09,4.66427641490298e-12)
(0,0,0)
(0,0,0)
(0,0,0)
(0,0,0)
(0,0,0)
(0,0,0)
(-6.81971565013824e-13,-2.11162806112377e-11,1.42429748713816e-10)
(-1.36694576855535e-12,-4.33098593987003e-11,1.38632354928463e-10)
(-1.75288980829453e-12,-7.14992655270209e-11,1.30993986993757e-10)
(-1.12110778192021e-12,-1.11432649680795e-10,1.18454925160506e-10)
(2.19312666354795e-13,-1.76663458847603e-10,1.0094293708234e-10)
(4.00383558575578e-12,-2.89795138208124e-10,7.90868747325292e-11)
(1.00129168324337e-11,-4.86366580852195e-10,5.57513801932534e-11)
(1.87442794634632e-11,-8.10479019299426e-10,4.2206691624516e-11)
(2.32958317794346e-11,-1.40485231572845e-09,3.09844351596234e-11)
(2.41205938805545e-11,-2.76096576920027e-09,1.69518145786213e-11)
(0,0,0)
(0,0,0)
(0,0,0)
(0,0,0)
(0,0,0)
(0,0,0)
(-4.06977878775384e-13,-1.77196459445285e-11,2.14546435357916e-10)
(-1.33405266470271e-13,-3.62556767374452e-11,2.1064988958538e-10)
(-2.19273493872612e-13,-5.93087032402438e-11,2.03328493803492e-10)
(1.7504773431396e-14,-9.26380020087338e-11,1.9157160995048e-10)
(1.81464490238089e-12,-1.50727433958944e-10,1.76080646566182e-10)
(6.53973361952597e-12,-2.58119364477255e-10,1.58676252933033e-10)
(1.77114602480063e-11,-4.60786463802364e-10,1.4357594502263e-10)
(2.39596028632082e-11,-8.00879576448659e-10,1.12683488683583e-10)
(2.68153256490817e-11,-1.39403070784824e-09,7.94022325028313e-11)
(2.68802722283568e-11,-2.74641440764334e-09,4.17869930007945e-11)
(0,0,0)
(0,0,0)
(0,0,0)
(0,0,0)
(0,0,0)
(0,0,0)
(3.03734795347203e-13,-1.39869076037614e-11,3.23034274684179e-10)
(1.97238345913779e-12,-2.89456089701593e-11,3.19797908933157e-10)
(3.25542288560746e-12,-4.6862285753786e-11,3.13835618391913e-10)
(4.47102907583563e-12,-7.39270263746572e-11,3.04851231998848e-10)
(7.33050697232204e-12,-1.24722481422718e-10,2.93143237129149e-10)
(1.24380243823154e-11,-2.27912037374436e-10,2.78364880813763e-10)
(2.14604840388594e-11,-4.3980453395358e-10,2.58362061929485e-10)
(2.63607214713178e-11,-7.76738863276342e-10,2.16076492170995e-10)
(2.82689577474182e-11,-1.36236440801811e-09,1.55795878364098e-10)
(2.80514471118427e-11,-2.70859521029475e-09,8.23168840607394e-11)
(0,0,0)
(0,0,0)
(0,0,0)
(0,0,0)
(0,0,0)
(0,0,0)
(8.23798011539729e-13,-1.06753247120314e-11,4.96082886971772e-10)
(3.46388229209996e-12,-2.21625048721595e-11,4.93757453513618e-10)
(6.85142014395128e-12,-3.57829700410027e-11,4.89154886312099e-10)
(1.0230993362916e-11,-5.74085880156439e-11,4.8344549921859e-10)
(1.56521731619922e-11,-1.00476699115122e-10,4.76618351281982e-10)
(2.30947923724513e-11,-1.93198977334341e-10,4.64103906525182e-10)
(2.48483541130223e-11,-4.02877912390885e-10,4.27858443308415e-10)
(2.78412722445148e-11,-7.24811785201857e-10,3.75286980862465e-10)
(2.98648540272485e-11,-1.29433965210046e-09,2.77389131706522e-10)
(2.99590480423091e-11,-2.6294185186931e-09,1.49525716516547e-10)
(0,0,0)
(0,0,0)
(0,0,0)
(0,0,0)
(0,0,0)
(0,0,0)
(2.05130697402761e-12,-8.14502259168926e-12,7.98198857513257e-10)
(4.77897185563101e-12,-1.65897194027266e-11,7.96542910748663e-10)
(8.61075811656306e-12,-2.74915612063825e-11,7.92931122482157e-10)
(1.23883098264506e-11,-4.63128118917456e-11,7.88044590637448e-10)
(1.77280986440209e-11,-8.6233721346702e-11,7.81048299445016e-10)
(2.30227023199993e-11,-1.72184166975572e-10,7.65777248238349e-10)
(2.57192934138595e-11,-3.49309335771355e-10,7.25483120153994e-10)
(2.77375450968725e-11,-6.28887697055495e-10,6.37277265988737e-10)
(2.97879737658432e-11,-1.16857797160668e-09,4.91200585376922e-10)
(3.03397941519901e-11,-2.48130371358636e-09,2.79563864172656e-10)
(0,0,0)
(0,0,0)
(0,0,0)
(0,0,0)
(0,0,0)
(0,0,0)
(2.68868309282343e-12,-5.91446482863774e-12,1.38684272885991e-09)
(5.09640376784312e-12,-1.17522365532254e-11,1.38496595290514e-09)
(8.64522632351651e-12,-1.97839990391094e-11,1.38065752712726e-09)
(1.2853783410465e-11,-3.47576843063923e-11,1.37402241913635e-09)
(1.78230323360365e-11,-6.66988952621605e-11,1.36258999437117e-09)
(2.207540245379e-11,-1.32433462972426e-10,1.33781807622542e-09)
(2.56776734622002e-11,-2.59807839019817e-10,1.28145552708002e-09)
(2.82394725668053e-11,-4.82705594029061e-10,1.16512834482163e-09)
(3.06732055339279e-11,-9.57493390318474e-10,9.58392520537803e-10)
(3.21578241859907e-11,-2.20279800037254e-09,5.99672231066358e-10)
(0,0,0)
(0,0,0)
(0,0,0)
(0,0,0)
(0,0,0)
(0,0,0)
(2.96506742141142e-12,-3.28000625949323e-12,2.74378254523152e-09)
(5.3547685122918e-12,-6.21032946660991e-12,2.74103358693133e-09)
(8.57940841200264e-12,-1.0408585779179e-11,2.7357962702936e-09)
(1.2957344047326e-11,-1.8993039146e-11,2.7279116846754e-09)
(1.78347438690084e-11,-3.68586968083405e-11,2.71314627657315e-09)
(2.23355784339374e-11,-7.26191942675521e-11,2.68141507280365e-09)
(2.57448235632792e-11,-1.41572375235192e-10,2.61319690745414e-09)
(2.84702935962712e-11,-2.75204604325023e-10,2.47434255855527e-09)
(3.13398242149378e-11,-5.9875203148187e-10,2.20041398916271e-09)
(3.34224082248444e-11,-1.60344009382061e-09,1.60229198816886e-09)
(0,0,0)
(0,0,0)
(0,0,0)
(0,0,0)
(0,0,0)
(0,0,0)
(0,0,0)
(0,0,0)
(0,0,0)
(0,0,0)
(0,0,0)
(0,0,0)
(0,0,0)
(0,0,0)
(0,0,0)
(0,0,0)
(0,0,0)
(0,0,0)
(0,0,0)
(0,0,0)
(0,0,0)
(0,0,0)
(0,0,0)
(0,0,0)
(0,0,0)
(0,0,0)
(0,0,0)
(0,0,0)
(0,0,0)
(0,0,0)
(0,0,0)
(0,0,0)
(0,0,0)
(0,0,0)
(0,0,0)
(0,0,0)
(0,0,0)
(0,0,0)
(0,0,0)
(0,0,0)
(0,0,0)
(0,0,0)
(0,0,0)
(0,0,0)
(0,0,0)
(0,0,0)
(0,0,0)
(0,0,0)
(0,0,0)
(0,0,0)
(0,0,0)
(0,0,0)
(0,0,0)
(0,0,0)
(0,0,0)
(0,0,0)
(0,0,0)
(0,0,0)
(0,0,0)
(0,0,0)
(0,0,0)
(0,0,0)
(0,0,0)
(0,0,0)
(0,0,0)
(0,0,0)
(0,0,0)
(0,0,0)
(0,0,0)
(0,0,0)
(0,0,0)
(0,0,0)
(0,0,0)
(0,0,0)
(0,0,0)
(0,0,0)
(0,0,0)
(0,0,0)
(0,0,0)
(0,0,0)
(0,0,0)
(0,0,0)
(0,0,0)
(0,0,0)
(0,0,0)
(0,0,0)
(0,0,0)
(0,0,0)
(0,0,0)
(0,0,0)
(0,0,0)
(0,0,0)
(0,0,0)
(0,0,0)
(0,0,0)
(0,0,0)
(0,0,0)
(0,0,0)
(0,0,0)
(0,0,0)
(0,0,0)
(0,0,0)
(-1.48348507109103e-13,-3.57740422634326e-11,3.48627795747492e-11)
(9.24572857711984e-14,-7.49753770738565e-11,3.30695076016481e-11)
(4.20799498162203e-13,-1.23101813965492e-10,2.95810107209436e-11)
(9.7391181981728e-13,-1.86516194517499e-10,2.40153125959718e-11)
(1.33590840362642e-12,-2.75722817998341e-10,1.61259675321424e-11)
(2.92424307750877e-12,-4.06985022286777e-10,5.92519378878075e-12)
(5.06767886128651e-12,-6.00091769886639e-10,-2.84204293462333e-12)
(7.4001296167252e-12,-8.82047256734579e-10,-6.01688518060332e-12)
(8.37442479454802e-12,-1.28590347912075e-09,-5.07238782680914e-12)
(7.34751809529492e-12,-1.77754919672385e-09,-2.76379172157711e-12)
(0,0,0)
(0,0,0)
(0,0,0)
(0,0,0)
(0,0,0)
(0,0,0)
(6.75940038440671e-13,-3.45562747444866e-11,7.36309141925099e-11)
(5.99071022573067e-13,-7.19272554404475e-11,7.049461658701e-11)
(5.6531901732638e-13,-1.17830627325642e-10,6.37742041027545e-11)
(1.18315244369742e-12,-1.79162244440759e-10,5.25016229943315e-11)
(1.93398030282615e-12,-2.67013689248719e-10,3.58586942630292e-11)
(4.55878561589773e-12,-3.99647768041652e-10,1.40363970037574e-11)
(8.35974295758774e-12,-5.97949730152814e-10,-6.27493766086168e-12)
(1.3368866518208e-11,-8.84097027707252e-10,-1.131402932505e-11)
(1.56243722450466e-11,-1.28879231846513e-09,-8.00701186560448e-12)
(1.48220824641167e-11,-1.78037636167862e-09,-3.767681866895e-12)
(0,0,0)
(0,0,0)
(0,0,0)
(0,0,0)
(0,0,0)
(0,0,0)
(5.1487704395308e-13,-3.18721056785601e-11,1.22150725991113e-10)
(1.16860020979293e-13,-6.54757047801762e-11,1.17632791678636e-10)
(-3.49504609343537e-13,-1.06900164619381e-10,1.08075801160201e-10)
(-6.06772322420026e-13,-1.63282739447489e-10,9.19574695124563e-11)
(-4.60641496759468e-13,-2.47253294019694e-10,6.69957102722204e-11)
(2.12873869905888e-12,-3.81664657707002e-10,3.11105126435819e-11)
(6.37840569871422e-12,-5.94833701461469e-10,-8.05547117155526e-12)
(1.70603171889667e-11,-8.90606210584837e-10,-1.1630734917383e-11)
(2.11023245170219e-11,-1.29519169616818e-09,-4.23105521843441e-12)
(2.12413328842072e-11,-1.78516729878308e-09,-3.27736510516069e-13)
(0,0,0)
(0,0,0)
(0,0,0)
(0,0,0)
(0,0,0)
(0,0,0)
(-2.81212446824672e-13,-2.78578487571279e-11,1.8630417962821e-10)
(-7.82760494004068e-13,-5.64432305619656e-11,1.80863378726127e-10)
(-1.40439026237934e-12,-9.14144840053576e-11,1.69986286701868e-10)
(-2.40376737661133e-12,-1.38889194620109e-10,1.51322802568811e-10)
(-3.86064987185962e-12,-2.12839817412641e-10,1.21707942935245e-10)
(-4.33644360626527e-12,-3.43308571431258e-10,7.59562561006804e-11)
(-2.02251164855729e-12,-5.86216228082436e-10,1.43586550778412e-11)
(2.03670930780289e-11,-9.03604274036455e-10,1.54938995210178e-11)
(2.65068444804691e-11,-1.30379576673668e-09,2.02773515736454e-11)
(2.65210469017062e-11,-1.78846021775692e-09,1.39447254068189e-11)
(0,0,0)
(0,0,0)
(0,0,0)
(0,0,0)
(0,0,0)
(0,0,0)
(-2.43170446959929e-13,-2.28606080583276e-11,2.76307553841217e-10)
(-1.2207725121416e-13,-4.61021888175331e-11,2.70832555857408e-10)
(-9.0880712833924e-13,-7.28979053977464e-11,2.60038454486909e-10)
(-3.20250747633337e-12,-1.08403763261707e-10,2.42641516567696e-10)
(-6.78591399972661e-12,-1.64275194106441e-10,2.17615855472009e-10)
(-8.56728557373687e-12,-2.68599421379138e-10,1.88278465224709e-10)
(2.76219867374608e-11,-5.15528082089411e-10,1.9734895236355e-10)
(3.31001458715332e-11,-9.15912817994637e-10,1.31311832260792e-10)
(3.27642653225822e-11,-1.30553022215606e-09,9.01810690348631e-11)
(3.08480678801865e-11,-1.77917343113183e-09,4.76556451317866e-11)
(0,0,0)
(0,0,0)
(0,0,0)
(0,0,0)
(0,0,0)
(0,0,0)
(2.28517655488276e-13,-1.78571051160094e-11,4.03550253784309e-10)
(1.1515699020462e-12,-3.55308990641952e-11,3.98518017723706e-10)
(1.16049356548064e-12,-5.40192636958995e-11,3.89824787185233e-10)
(-3.39414412308112e-13,-7.82600800746589e-11,3.77727346206117e-10)
(-2.13691902079807e-12,-1.18634410323986e-10,3.61593598456206e-10)
(-2.27221677363529e-12,-2.13563060153264e-10,3.41789771222113e-10)
(2.68194322353493e-11,-5.18285473666603e-10,3.42259580894845e-10)
(3.4714257202963e-11,-9.01436148258281e-10,2.75725147564329e-10)
(3.37231961337974e-11,-1.27429236819425e-09,1.92406367256274e-10)
(3.11916395699972e-11,-1.73706462171752e-09,9.9493271054657e-11)
(0,0,0)
(0,0,0)
(0,0,0)
(0,0,0)
(0,0,0)
(0,0,0)
(6.18929350078657e-13,-1.31652747654576e-11,5.8578669210338e-10)
(2.49366402349619e-12,-2.59455397127184e-11,5.82115099993248e-10)
(4.26939840300272e-12,-3.80743396190017e-11,5.76494761870842e-10)
(5.96236517576575e-12,-5.25500331345166e-11,5.71926360067256e-10)
(1.39236401506918e-11,-7.4824498094031e-11,5.71994430196387e-10)
(3.83254452300664e-11,-1.33399916156513e-10,5.78336039340217e-10)
(2.38512399395343e-11,-4.77720002855193e-10,5.03910561554711e-10)
(2.98150332537297e-11,-8.42899526554732e-10,4.87091144198449e-10)
(3.1966588723862e-11,-1.19193680050067e-09,3.3876647871529e-10)
(3.13699594525057e-11,-1.64247305410876e-09,1.74451449031948e-10)
(0,0,0)
(0,0,0)
(0,0,0)
(0,0,0)
(0,0,0)
(0,0,0)
(1.47669597597052e-12,-9.62926453701956e-12,8.56652351534813e-10)
(3.55327727262728e-12,-1.87989723552637e-11,8.54606693580478e-10)
(5.7897277933658e-12,-2.85354047044208e-11,8.51209368824214e-10)
(7.82947343489026e-12,-4.28392903513628e-11,8.48808288925785e-10)
(1.34643237652649e-11,-7.49214007293198e-11,8.50109560310261e-10)
(2.3566126401567e-11,-1.65751986947009e-10,8.54690645482328e-10)
(2.44236508275267e-11,-4.3337662810842e-10,8.35021302148923e-10)
(2.76321226811158e-11,-6.97035748398088e-10,7.11633913122651e-10)
(3.03401136823897e-11,-1.03057807419255e-09,5.18981669252452e-10)
(3.13979451113282e-11,-1.46985623402544e-09,2.8020063256627e-10)
(0,0,0)
(0,0,0)
(0,0,0)
(0,0,0)
(0,0,0)
(0,0,0)
(1.93100047830655e-12,-7.15766970110647e-12,1.25429407349916e-09)
(3.86292245902016e-12,-1.34598063619404e-11,1.2522275619932e-09)
(5.904921055129e-12,-2.1079870509208e-11,1.24846764336033e-09)
(8.52156301539638e-12,-3.49127158943698e-11,1.2437268429934e-09)
(1.27547520284107e-11,-6.72300849167011e-11,1.23675196084395e-09)
(1.86236828939049e-11,-1.43730182579456e-10,1.21937317743604e-09)
(2.37693919359449e-11,-3.05561884524393e-10,1.16606084174401e-09)
(2.74743071453147e-11,-5.04548342172862e-10,1.02482983637724e-09)
(3.06521361696168e-11,-7.92402887617062e-10,7.94025689515768e-10)
(3.24721487003364e-11,-1.19029711626875e-09,4.56578225221908e-10)
(0,0,0)
(0,0,0)
(0,0,0)
(0,0,0)
(0,0,0)
(0,0,0)
(2.43401946147912e-12,-4.04804275231625e-12,1.74515009998277e-09)
(4.3817556831457e-12,-7.31617726973079e-12,1.74256165187324e-09)
(6.05540825157093e-12,-1.14260040183722e-11,1.73805827792445e-09)
(8.72971300309868e-12,-2.02627521170966e-11,1.73152528444041e-09)
(1.27072508305973e-11,-3.98650095253817e-11,1.7180539990832e-09)
(1.79345495154975e-11,-8.16109207480132e-11,1.68630245680707e-09)
(2.30267972271525e-11,-1.6028591745355e-10,1.61239413512364e-09)
(2.71942586627268e-11,-2.72639589379698e-10,1.4566195892354e-09)