/*--------------------------------*- C++ -*----------------------------------*\
| =========                 |                                                 |
| \\      /  F ield         | foam-extend: Open Source CFD                    |
|  \\    /   O peration     | Version:     4.0                                |
|   \\  /    A nd           | Web:         http://www.foam-extend.org         |
|    \\/     M anipulation  |                                                 |
\*---------------------------------------------------------------------------*/
FoamFile
{
    version 2.0;
    format ascii;
    class volVectorField;
    location "1351";
    object      E;
}
// * * * * * * * * * * * * * * * * * * * * * * * * * * * * * * * * * * * * * //

dimensions      [0 1 -1 0 0 0 0];

internalField   nonuniform List<vector>
4096
(
(0,0,0)
(0,0,0)
(0,0,0)
(0,0,0)
(0,0,0)
(0,0,0)
(0,0,0)
(0,0,0)
(0,0,0)
(0,0,0)
(0,0,0)
(0,0,0)
(0,0,0)
(0,0,0)
(0,0,0)
(0,0,0)
(0,0,0)
(0,0,0)
(0,0,0)
(0,0,0)
(0,0,0)
(0,0,0)
(0,0,0)
(0,0,0)
(0,0,0)
(0,0,0)
(0,0,0)
(0,0,0)
(0,0,0)
(0,0,0)
(0,0,0)
(0,0,0)
(0,0,0)
(0,0,0)
(0,0,0)
(0,0,0)
(0,0,0)
(0,0,0)
(0,0,0)
(0,0,0)
(0,0,0)
(0,0,0)
(0,0,0)
(0,0,0)
(0,0,0)
(0,0,0)
(0,0,0)
(0,0,0)
(0,0,0)
(0,0,0)
(0,0,0)
(0,0,0)
(0,0,0)
(0,0,0)
(0,0,0)
(0,0,0)
(0,0,0)
(0,0,0)
(0,0,0)
(0,0,0)
(0,0,0)
(0,0,0)
(0,0,0)
(0,0,0)
(0,0,0)
(0,0,0)
(0,0,0)
(0,0,0)
(0,0,0)
(0,0,0)
(0,0,0)
(0,0,0)
(0,0,0)
(0,0,0)
(0,0,0)
(0,0,0)
(0,0,0)
(0,0,0)
(0,0,0)
(0,0,0)
(0,0,0)
(0,0,0)
(0,0,0)
(0,0,0)
(0,0,0)
(0,0,0)
(0,0,0)
(0,0,0)
(0,0,0)
(0,0,0)
(0,0,0)
(0,0,0)
(0,0,0)
(0,0,0)
(0,0,0)
(0,0,0)
(0,0,0)
(0,0,0)
(0,0,0)
(0,0,0)
(0,0,0)
(0,0,0)
(0,0,0)
(0,0,0)
(0,0,0)
(0,0,0)
(0,0,0)
(0,0,0)
(0,0,0)
(0,0,0)
(0,0,0)
(0,0,0)
(0,0,0)
(0,0,0)
(0,0,0)
(0,0,0)
(0,0,0)
(0,0,0)
(0,0,0)
(0,0,0)
(0,0,0)
(0,0,0)
(0,0,0)
(0,0,0)
(0,0,0)
(0,0,0)
(0,0,0)
(0,0,0)
(0,0,0)
(0,0,0)
(0,0,0)
(0,0,0)
(0,0,0)
(0,0,0)
(0,0,0)
(0,0,0)
(0,0,0)
(0,0,0)
(0,0,0)
(0,0,0)
(0,0,0)
(0,0,0)
(0,0,0)
(0,0,0)
(0,0,0)
(0,0,0)
(0,0,0)
(0,0,0)
(0,0,0)
(0,0,0)
(0,0,0)
(0,0,0)
(0,0,0)
(0,0,0)
(0,0,0)
(0,0,0)
(0,0,0)
(0,0,0)
(0,0,0)
(0,0,0)
(0,0,0)
(0,0,0)
(0,0,0)
(0,0,0)
(0,0,0)
(0,0,0)
(0,0,0)
(0,0,0)
(0,0,0)
(0,0,0)
(0,0,0)
(0,0,0)
(0,0,0)
(0,0,0)
(0,0,0)
(0,0,0)
(0,0,0)
(0,0,0)
(0,0,0)
(0,0,0)
(0,0,0)
(0,0,0)
(0,0,0)
(0,0,0)
(0,0,0)
(0,0,0)
(0,0,0)
(0,0,0)
(0,0,0)
(0,0,0)
(0,0,0)
(0,0,0)
(0,0,0)
(0,0,0)
(0,0,0)
(0,0,0)
(0,0,0)
(0,0,0)
(0,0,0)
(0,0,0)
(0,0,0)
(0,0,0)
(0,0,0)
(0,0,0)
(0,0,0)
(0,0,0)
(0,0,0)
(0,0,0)
(0,0,0)
(0,0,0)
(0,0,0)
(0,0,0)
(0,0,0)
(0,0,0)
(0,0,0)
(0,0,0)
(0,0,0)
(0,0,0)
(0,0,0)
(0,0,0)
(0,0,0)
(0,0,0)
(0,0,0)
(0,0,0)
(0,0,0)
(0,0,0)
(0,0,0)
(0,0,0)
(0,0,0)
(0,0,0)
(0,0,0)
(0,0,0)
(0,0,0)
(0,0,0)
(0,0,0)
(0,0,0)
(0,0,0)
(0,0,0)
(0,0,0)
(0,0,0)
(0,0,0)
(0,0,0)
(0,0,0)
(0,0,0)
(0,0,0)
(0,0,0)
(0,0,0)
(0,0,0)
(0,0,0)
(0,0,0)
(0,0,0)
(0,0,0)
(0,0,0)
(0,0,0)
(0,0,0)
(0,0,0)
(0,0,0)
(0,0,0)
(0,0,0)
(0,0,0)
(0,0,0)
(0,0,0)
(0,0,0)
(0,0,0)
(0,0,0)
(0,0,0)
(0,0,0)
(0,0,0)
(0,0,0)
(0,0,0)
(0,0,0)
(0,0,0)
(0,0,0)
(0,0,0)
(0,0,0)
(0,0,0)
(0,0,0)
(0,0,0)
(0,0,0)
(0,0,0)
(0,0,0)
(0,0,0)
(0,0,0)
(0,0,0)
(0,0,0)
(0,0,0)
(0,0,0)
(0,0,0)
(0,0,0)
(0,0,0)
(0,0,0)
(0,0,0)
(0,0,0)
(0,0,0)
(0,0,0)
(0,0,0)
(0,0,0)
(0,0,0)
(0,0,0)
(0,0,0)
(0,0,0)
(0,0,0)
(0,0,0)
(0,0,0)
(0,0,0)
(0,0,0)
(0,0,0)
(0,0,0)
(0,0,0)
(0,0,0)
(0,0,0)
(0,0,0)
(0,0,0)
(0,0,0)
(0,0,0)
(0,0,0)
(0,0,0)
(0,0,0)
(0,0,0)
(0,0,0)
(0,0,0)
(0,0,0)
(0,0,0)
(0,0,0)
(0,0,0)
(0,0,0)
(0,0,0)
(0,0,0)
(0,0,0)
(0,0,0)
(0,0,0)
(0,0,0)
(0,0,0)
(0,0,0)
(0,0,0)
(0,0,0)
(0,0,0)
(0,0,0)
(0,0,0)
(0,0,0)
(0,0,0)
(0,0,0)
(0,0,0)
(0,0,0)
(0,0,0)
(0,0,0)
(0,0,0)
(0,0,0)
(0,0,0)
(0,0,0)
(0,0,0)
(0,0,0)
(0,0,0)
(0,0,0)
(0,0,0)
(0,0,0)
(0,0,0)
(0,0,0)
(0,0,0)
(0,0,0)
(0,0,0)
(0,0,0)
(0,0,0)
(0,0,0)
(0,0,0)
(0,0,0)
(0,0,0)
(0,0,0)
(0,0,0)
(0,0,0)
(0,0,0)
(0,0,0)
(0,0,0)
(0,0,0)
(0,0,0)
(0,0,0)
(0,0,0)
(0,0,0)
(0,0,0)
(0,0,0)
(0,0,0)
(0,0,0)
(0,0,0)
(0,0,0)
(0,0,0)
(0,0,0)
(0,0,0)
(0,0,0)
(0,0,0)
(0,0,0)
(0,0,0)
(0,0,0)
(0,0,0)
(0,0,0)
(0,0,0)
(0,0,0)
(0,0,0)
(0,0,0)
(0,0,0)
(0,0,0)
(0,0,0)
(0,0,0)
(0,0,0)
(0,0,0)
(0,0,0)
(0,0,0)
(0,0,0)
(0,0,0)
(0,0,0)
(0,0,0)
(0,0,0)
(0,0,0)
(0,0,0)
(0,0,0)
(0,0,0)
(0,0,0)
(0,0,0)
(0,0,0)
(0,0,0)
(0,0,0)
(0,0,0)
(0,0,0)
(0,0,0)
(0,0,0)
(0,0,0)
(0,0,0)
(0,0,0)
(0,0,0)
(0,0,0)
(0,0,0)
(0,0,0)
(0,0,0)
(0,0,0)
(0,0,0)
(0,0,0)
(0,0,0)
(0,0,0)
(0,0,0)
(0,0,0)
(0,0,0)
(0,0,0)
(0,0,0)
(0,0,0)
(0,0,0)
(0,0,0)
(0,0,0)
(0,0,0)
(0,0,0)
(0,0,0)
(0,0,0)
(0,0,0)
(0,0,0)
(0,0,0)
(0,0,0)
(0,0,0)
(0,0,0)
(0,0,0)
(0,0,0)
(0,0,0)
(0,0,0)
(0,0,0)
(0,0,0)
(0,0,0)
(0,0,0)
(0,0,0)
(0,0,0)
(0,0,0)
(0,0,0)
(0,0,0)
(0,0,0)
(0,0,0)
(0,0,0)
(0,0,0)
(0,0,0)
(0,0,0)
(0,0,0)
(0,0,0)
(0,0,0)
(0,0,0)
(0,0,0)
(0,0,0)
(0,0,0)
(0,0,0)
(0,0,0)
(0,0,0)
(0,0,0)
(0,0,0)
(0,0,0)
(0,0,0)
(0,0,0)
(0,0,0)
(0,0,0)
(0,0,0)
(0,0,0)
(0,0,0)
(0,0,0)
(0,0,0)
(0,0,0)
(0,0,0)
(0,0,0)
(0,0,0)
(0,0,0)
(0,0,0)
(0,0,0)
(0,0,0)
(0,0,0)
(0,0,0)
(0,0,0)
(0,0,0)
(0,0,0)
(0,0,0)
(0,0,0)
(0,0,0)
(0,0,0)
(0,0,0)
(0,0,0)
(0,0,0)
(0,0,0)
(0,0,0)
(0,0,0)
(0,0,0)
(0,0,0)
(0,0,0)
(0,0,0)
(0,0,0)
(0,0,0)
(0,0,0)
(0,0,0)
(0,0,0)
(0,0,0)
(0,0,0)
(0,0,0)
(0,0,0)
(0,0,0)
(0,0,0)
(0,0,0)
(0,0,0)
(0,0,0)
(0,0,0)
(0,0,0)
(0,0,0)
(0,0,0)
(0,0,0)
(0,0,0)
(0,0,0)
(0,0,0)
(0,0,0)
(0,0,0)
(0,0,0)
(0,0,0)
(0,0,0)
(0,0,0)
(0,0,0)
(0,0,0)
(0,0,0)
(0,0,0)
(0,0,0)
(0,0,0)
(0,0,0)
(0,0,0)
(0,0,0)
(0,0,0)
(0,0,0)
(0,0,0)
(0,0,0)
(0,0,0)
(0,0,0)
(0,0,0)
(0,0,0)
(0,0,0)
(0,0,0)
(0,0,0)
(0,0,0)
(0,0,0)
(0,0,0)
(0,0,0)
(0,0,0)
(0,0,0)
(0,0,0)
(0,0,0)
(0,0,0)
(0,0,0)
(0,0,0)
(0,0,0)
(0,0,0)
(0,0,0)
(0,0,0)
(0,0,0)
(0,0,0)
(0,0,0)
(0,0,0)
(0,0,0)
(0,0,0)
(0,0,0)
(0,0,0)
(0,0,0)
(0,0,0)
(0,0,0)
(0,0,0)
(0,0,0)
(0,0,0)
(0,0,0)
(0,0,0)
(0,0,0)
(0,0,0)
(0,0,0)
(0,0,0)
(0,0,0)
(0,0,0)
(0,0,0)
(0,0,0)
(0,0,0)
(0,0,0)
(0,0,0)
(0,0,0)
(0,0,0)
(0,0,0)
(0,0,0)
(0,0,0)
(0,0,0)
(0,0,0)
(0,0,0)
(0,0,0)
(0,0,0)
(0,0,0)
(0,0,0)
(0,0,0)
(0,0,0)
(0,0,0)
(0,0,0)
(0,0,0)
(0,0,0)
(0,0,0)
(0,0,0)
(0,0,0)
(0,0,0)
(0,0,0)
(0,0,0)
(0,0,0)
(0,0,0)
(0,0,0)
(0,0,0)
(0,0,0)
(0,0,0)
(0,0,0)
(0,0,0)
(0,0,0)
(0,0,0)
(0,0,0)
(0,0,0)
(0,0,0)
(0,0,0)
(0,0,0)
(0,0,0)
(0,0,0)
(0,0,0)
(0,0,0)
(0,0,0)
(0,0,0)
(0,0,0)
(0,0,0)
(0,0,0)
(0,0,0)
(0,0,0)
(0,0,0)
(0,0,0)
(0,0,0)
(0,0,0)
(0,0,0)
(0,0,0)
(0,0,0)
(0,0,0)
(0,0,0)
(0,0,0)
(0,0,0)
(0,0,0)
(0,0,0)
(0,0,0)
(0,0,0)
(0,0,0)
(0,0,0)
(0,0,0)
(0,0,0)
(0,0,0)
(0,0,0)
(0,0,0)
(0,0,0)
(0,0,0)
(0,0,0)
(0,0,0)
(0,0,0)
(0,0,0)
(0,0,0)
(0,0,0)
(0,0,0)
(0,0,0)
(0,0,0)
(0,0,0)
(0,0,0)
(0,0,0)
(0,0,0)
(0,0,0)
(0,0,0)
(0,0,0)
(0,0,0)
(0,0,0)
(0,0,0)
(0,0,0)
(0,0,0)
(0,0,0)
(0,0,0)
(0,0,0)
(0,0,0)
(0,0,0)
(0,0,0)
(0,0,0)
(0,0,0)
(0,0,0)
(0,0,0)
(0,0,0)
(0,0,0)
(0,0,0)
(0,0,0)
(0,0,0)
(0,0,0)
(0,0,0)
(0,0,0)
(0,0,0)
(0,0,0)
(0,0,0)
(0,0,0)
(0,0,0)
(0,0,0)
(0,0,0)
(0,0,0)
(0,0,0)
(0,0,0)
(0,0,0)
(0,0,0)
(0,0,0)
(0,0,0)
(0,0,0)
(0,0,0)
(0,0,0)
(0,0,0)
(0,0,0)
(0,0,0)
(0,0,0)
(0,0,0)
(0,0,0)
(0,0,0)
(0,0,0)
(0,0,0)
(0,0,0)
(0,0,0)
(0,0,0)
(0,0,0)
(0,0,0)
(0,0,0)
(0,0,0)
(0,0,0)
(0,0,0)
(0,0,0)
(0,0,0)
(0,0,0)
(0,0,0)
(0,0,0)
(0,0,0)
(0,0,0)
(0,0,0)
(0,0,0)
(0,0,0)
(0,0,0)
(0,0,0)
(0,0,0)
(0,0,0)
(0,0,0)
(0,0,0)
(0,0,0)
(0,0,0)
(0,0,0)
(0,0,0)
(0,0,0)
(0,0,0)
(0,0,0)
(0,0,0)
(0,0,0)
(0,0,0)
(0,0,0)
(0,0,0)
(0,0,0)
(0,0,0)
(0,0,0)
(0,0,0)
(0,0,0)
(0,0,0)
(0,0,0)
(0,0,0)
(0,0,0)
(0,0,0)
(0,0,0)
(0,0,0)
(0,0,0)
(0,0,0)
(0,0,0)
(0,0,0)
(0,0,0)
(0,0,0)
(0,0,0)
(0,0,0)
(0,0,0)
(0,0,0)
(0,0,0)
(0,0,0)
(0,0,0)
(0,0,0)
(0,0,0)
(0,0,0)
(0,0,0)
(-145346.414677675,77316.8825940506,68029.5320836245)
(-153665.378404591,74169.0527035216,147525.857784694)
(-173044.094846877,67521.9620694867,253047.990562084)
(-209713.153951131,57043.0117155134,405718.132797704)
(-275792.417212838,42914.4116652556,638596.138345293)
(-394438.778151209,26691.8995289844,1006343.0169675)
(-609248.923676396,11947.5176757597,1603644.42296818)
(-997428.85920216,2956.19670854864,2598117.08546178)
(-1645169.71425796,-21.3328190678165,4243308.13253886)
(-2292296.00430359,-248.235024979729,6535852.37186742)
(0,0,0)
(0,0,0)
(0,0,0)
(0,0,0)
(0,0,0)
(0,0,0)
(-153683.470724241,166172.732629789,64827.6206885028)
(-162114.146174278,160197.472953131,140913.346613175)
(-181803.97653402,147542.853340705,242696.431875973)
(-219333.322385432,127370.325792707,391702.440184215)
(-287249.47531346,99462.0073237541,622404.319839174)
(-408747.168355506,66282.2520942357,991561.135629436)
(-625934.495266883,34922.4745244577,1594520.67404759)
(-1012645.20246458,15123.0135736746,2594999.05964701)
(-1655304.1652033,7368.39328554821,4242913.49874576)
(-2297024.82309855,3761.80678949784,6535928.28002975)
(0,0,0)
(0,0,0)
(0,0,0)
(0,0,0)
(0,0,0)
(0,0,0)
(-172827.816473597,280172.540719742,58828.0083836425)
(-181439.982298913,272152.462397529,128313.001238159)
(-201756.298247465,255008.01750602,222604.135320313)
(-241162.168179214,227212.275586863,363924.353705372)
(-313411.469892838,187482.754719842,589315.076202123)
(-442434.360416569,137828.477593151,960203.211119777)
(-667080.247056364,87609.1570734535,1574596.77562715)
(-1050524.56743055,53208.6501272001,2587035.70650415)
(-1679683.57967125,35069.5096718592,4239018.16978916)
(-2308055.58340546,19005.0539041719,6531830.50607991)
(0,0,0)
(0,0,0)
(0,0,0)
(0,0,0)
(0,0,0)
(0,0,0)
(-208613.236654764,438017.201251298,50768.5761232091)
(-217370.924117708,429080.40578495,111211.556853499)
(-238468.378738172,409868.845578512,194819.107519173)
(-280593.530188092,378298.308170763,324326.605123361)
(-359999.316035454,331974.188704327,539834.487174333)
(-503456.894026002,271070.256889363,910049.601904117)
(-745896.79754362,203481.467675337,1540074.08884586)
(-1123803.45910082,148388.59072735,2568697.60734651)
(-1724383.91048777,105457.554852449,4222693.47265365)
(-2327545.57382969,56759.913090168,6512484.18729742)
(0,0,0)
(0,0,0)
(0,0,0)
(0,0,0)
(0,0,0)
(0,0,0)
(-272799.831949676,669070.790103696,41746.2430972772)
(-281503.855971681,660343.900876479,91986.6039774273)
(-303021.645502862,641654.840599398,163222.254459403)
(-347400.357087622,610862.705185063,278058.214532728)
(-434195.561988148,565228.947123259,478999.018101949)
(-595538.601925426,503136.69955671,842471.177360013)
(-865989.798820695,427069.668556994,1484872.77529905)
(-1235434.79339167,343048.709566567,2525647.44985153)
(-1789370.429023,246613.371303858,4173862.06242317)
(-2355728.38184436,130738.118482853,6455612.23887484)
(0,0,0)
(0,0,0)
(0,0,0)
(0,0,0)
(0,0,0)
(0,0,0)
(-388546.880732241,1024634.17743413,32983.4934018104)
(-396825.901322846,1016833.40097901,73319.8946221209)
(-417646.721860061,1000178.32784137,132443.129240208)
(-461565.6166413,972426.896561865,232444.554504703)
(-549262.445897242,929945.671502139,416990.276023064)
(-713659.358879187,867309.21958326,766477.114875709)
(-984932.827309814,777646.396884368,1400833.21385817)
(-1337628.93108934,652326.870042172,2429183.9844719)
(-1859824.5587701,477679.48090182,4057942.43364408)
(-2391235.58114339,255021.982565559,6324894.15070467)
(0,0,0)
(0,0,0)
(0,0,0)
(0,0,0)
(0,0,0)
(0,0,0)
(-600905.532473687,1600342.96512885,25196.7447789673)
(-608238.445292226,1593582.31453587,56686.276514333)
(-626937.688928839,1579057.04836295,104745.244921602)
(-667066.073031784,1554269.78198715,189968.43252811)
(-748531.994033806,1514022.8111606,354423.286903459)
(-903013.14859259,1447826.71867262,676918.936406676)
(-1157599.20491019,1336573.23143903,1275591.3067622)
(-1478295.3870199,1151585.21861328,2254628.345211)
(-1964793.17015124,861703.527156691,3835397.46910731)
(-2449148.54507603,469531.963893051,6070036.03285589)
(0,0,0)
(0,0,0)
(0,0,0)
(0,0,0)
(0,0,0)
(0,0,0)
(-989262.27332392,2571150.40271076,18454.8357420044)
(-995129.50420294,2564989.90178334,42176.7526974818)
(-1010211.85314737,2551474.27482801,79971.3793797929)
(-1042850.17539274,2527369.22585757,149722.11090209)
(-1109809.4392641,2485226.16775327,288328.19357351)
(-1238239.70090406,2408586.24774665,565808.365403541)
(-1451462.38971933,2263113.68059598,1090730.3059659)
(-1711101.43532817,1988519.57637276,1964897.38353459)
(-2155374.25752613,1538492.83517198,3443482.33304544)
(-2559881.46672168,872060.371900963,5600835.39175916)
(0,0,0)
(0,0,0)
(0,0,0)
(0,0,0)
(0,0,0)
(0,0,0)
(-1639556.78814944,4198349.25956988,12357.9312903025)
(-1643563.06511759,4192166.52441505,28744.373776186)
(-1653822.70632631,4178117.68931649,55923.6656139823)
(-1675777.01231669,4151402.51507607,107667.388712176)
(-1720018.90124823,4101004.74661471,211907.711098988)
(-1803133.29063899,4003094.79155361,420532.457931005)
(-1942721.23109448,3810093.3607789,816274.008842565)
(-2150119.80538323,3439832.43718158,1515080.95341698)
(-2506821.80443835,2782958.82874039,2777436.76428689)
(-2752996.68903323,1673296.66418605,4729197.16103504)
(0,0,0)
(0,0,0)
(0,0,0)
(0,0,0)
(0,0,0)
(0,0,0)
(-2289671.68933661,6481732.69303667,6288.25586979922)
(-2291677.0389502,6475314.55235294,14817.2668821278)
(-2296784.44719588,6460364.2189924,29355.1844021138)
(-2307578.6449464,6430853.16820056,57483.1762240447)
(-2329004.83161124,6373197.1170133,114295.637436702)
(-2369028.48055194,6258640.29644468,227778.613097562)
(-2438887.9140317,6030595.30137621,446164.586531942)
(-2556607.57486166,5584203.91395404,858400.684621094)
(-2752333.76426642,4725544.34934693,1668148.92828095)
(-2771899.50389937,3056972.85076647,3056372.24559991)
(0,0,0)
(0,0,0)
(0,0,0)
(0,0,0)
(0,0,0)
(0,0,0)
(0,0,0)
(0,0,0)
(0,0,0)
(0,0,0)
(0,0,0)
(0,0,0)
(0,0,0)
(0,0,0)
(0,0,0)
(0,0,0)
(0,0,0)
(0,0,0)
(0,0,0)
(0,0,0)
(0,0,0)
(0,0,0)
(0,0,0)
(0,0,0)
(0,0,0)
(0,0,0)
(0,0,0)
(0,0,0)
(0,0,0)
(0,0,0)
(0,0,0)
(0,0,0)
(0,0,0)
(0,0,0)
(0,0,0)
(0,0,0)
(0,0,0)
(0,0,0)
(0,0,0)
(0,0,0)
(0,0,0)
(0,0,0)
(0,0,0)
(0,0,0)
(0,0,0)
(0,0,0)
(0,0,0)
(0,0,0)
(0,0,0)
(0,0,0)
(0,0,0)
(0,0,0)
(0,0,0)
(0,0,0)
(0,0,0)
(0,0,0)
(0,0,0)
(0,0,0)
(0,0,0)
(0,0,0)
(0,0,0)
(0,0,0)
(0,0,0)
(0,0,0)
(0,0,0)
(0,0,0)
(0,0,0)
(0,0,0)
(0,0,0)
(0,0,0)
(0,0,0)
(0,0,0)
(0,0,0)
(0,0,0)
(0,0,0)
(0,0,0)
(0,0,0)
(0,0,0)
(0,0,0)
(0,0,0)
(0,0,0)
(0,0,0)
(0,0,0)
(0,0,0)
(0,0,0)
(0,0,0)
(0,0,0)
(0,0,0)
(0,0,0)
(0,0,0)
(0,0,0)
(0,0,0)
(0,0,0)
(0,0,0)
(0,0,0)
(0,0,0)
(0,0,0)
(0,0,0)
(0,0,0)
(0,0,0)
(0,0,0)
(0,0,0)
(21498354.1703013,68894.6113636005,59633.3688581275)
(21484377.7506722,65675.9849959506,128142.819985994)
(21452165.343062,58730.5327266233,216431.414551048)
(21391899.4128439,47414.9888835693,339632.424073046)
(21284653.1528708,31446.5685986428,519968.850591454)
(21093834.4474488,12358.6132395438,791565.576952451)
(20743813.269781,-4744.15661495216,1215476.1053106)
(20052169.7623227,-12257.2360923334,1950363.28507863)
(18491478.7951031,-10169.0138687689,3596112.35478699)
(14253032.2309029,-4991.40026411915,8828004.08504524)
(0,0,0)
(0,0,0)
(0,0,0)
(0,0,0)
(0,0,0)
(0,0,0)
(21484129.2994847,146944.047058797,56366.3592965493)
(21470094.4113835,140843.556917055,121218.795018389)
(21437578.860203,127584.90633478,205210.149873817)
(21376164.9397733,105554.385160342,323801.056638925)
(21265962.9229663,73299.879885143,500963.91227336)
(21069770.1541229,32575.2777417017,774458.490493411)
(20714383.0450782,-6237.28831387165,1207862.64704796)
(20025610.7245535,-22768.4742440823,1952346.5233823)
(18474982.352268,-17036.893596549,3601156.45083937)
(14245817.270588,-7280.27247259471,8832831.79456183)
(0,0,0)
(0,0,0)
(0,0,0)
(0,0,0)
(0,0,0)
(0,0,0)
(21451735.1303906,244391.309235222,50218.3561599864)
(21437633.467334,236232.797303734,107984.231341051)
(21404477.5953352,218320.009100781,183243.800193081)
(21340371.4274612,187812.358306113,291680.796607553)
(21222529.534703,140930.444147575,460337.792949847)
(21010266.6752471,76816.5263926496,735624.073835865)
(20634549.6897099,8800.5320328493,1191184.88192353)
(19952338.6150494,-20081.7637162801,1957863.55411653)
(18432387.0085082,-9630.67176332645,3610615.3093045)
(14228171.1544377,-472.471956454097,8839809.33614589)
(0,0,0)
(0,0,0)
(0,0,0)
(0,0,0)
(0,0,0)
(0,0,0)
(21392060.103559,373939.214413368,42007.319808734)
(21377980.7422351,365021.256871934,90095.7590884772)
(21344027.5712018,345399.441542151,152748.941907845)
(21275730.1887773,311547.996056627,244918.150392575)
(21143843.0559026,257853.383824054,396381.403978713)
(20895290.5475051,179052.37500924,667626.679031679)
(20457156.4952159,83447.007127611,1162155.47637809)
(19785627.1134386,36787.5604059663,1968084.14491709)
(18346330.0901381,40495.024604338,3619473.01312412)
(14195141.1981787,28580.8788858579,8839961.45547413)
(0,0,0)
(0,0,0)
(0,0,0)
(0,0,0)
(0,0,0)
(0,0,0)
(21286958.3081809,553384.184604733,33025.4548786942)
(21273226.2599465,545084.385942028,70460.7750911049)
(21239099.3932214,527102.385045677,118865.358063986)
(21167247.0759121,496747.449315273,191247.037006199)
(21019288.6185538,450212.034923472,317632.770565552)
(20716305.7907701,385060.460238973,572008.857840916)
(20138133.3546406,308172.461040046,1115388.81566788)
(19476440.9748253,240889.634930029,1971639.53812754)
(18211381.9964529,176208.111748418,3607402.59070805)
(14145964.6804566,95262.6633029474,8811256.30919064)
(0,0,0)
(0,0,0)
(0,0,0)
(0,0,0)
(0,0,0)
(0,0,0)
(21100124.937388,812251.040816756,24689.8908683785)
(21087309.9464077,805388.1190085,52478.8752720366)
(21054798.0540569,790870.788559027,88494.2610424316)
(20984287.9211758,766919.374867193,144697.362874087)
(20834652.6380298,730681.754656585,252541.124414552)
(20523013.7517087,677990.760771393,495166.27849487)
(19937501.696519,605023.262010266,1048109.51889649)
(19304991.7642755,511685.95626466,1906921.06739756)
(18096383.7749927,372723.871445014,3526425.53913881)
(14089541.2460897,197119.269608562,8716020.67080089)
(0,0,0)
(0,0,0)
(0,0,0)
(0,0,0)
(0,0,0)
(0,0,0)
(20753767.1001835,1211972.05963737,17834.9137228418)
(20742595.4027461,1206647.03203677,37970.7178568519)
(20713783.2637677,1195744.6800882,64604.4388318733)
(20649779.8126428,1178425.83848135,108480.654743774)
(20510260.2917893,1152685.70383176,199912.98494612)
(20212257.0491517,1112577.22303865,422284.890135222)
(19644398.2837237,1042711.26382567,954827.964886616)
(19073633.9429679,918773.817342754,1768039.33902144)
(17926134.6357577,671106.122267722,3350957.8474904)
(13993287.9882559,358783.597450387,8519085.55151739)
(0,0,0)
(0,0,0)
(0,0,0)
(0,0,0)
(0,0,0)
(0,0,0)
(20061544.4284861,1920813.41324937,12580.5097786902)
(20052718.3642386,1916486.50694832,27121.7316262361)
(20029759.5876389,1907777.75268806,47345.7834407238)
(19978049.7654988,1894324.30008762,82775.9461436195)
(19863072.6777173,1874897.92191554,159910.176279019)
(19610283.6223993,1843605.45273228,352587.188482743)
(19113260.9907014,1771764.1367455,831039.500342781)
(18741002.1654669,1549402.35315261,1520535.92893839)
(17582651.9619756,1186950.18420906,3038894.21269585)
(13770530.5067096,678889.233805879,8160605.16810973)
(0,0,0)
(0,0,0)
(0,0,0)
(0,0,0)
(0,0,0)
(0,0,0)
(18496956.9550691,3548170.30035904,8357.9348724559)
(18491013.4824796,3543971.48781831,18524.9716059928)
(18475670.0445431,3535047.17333446,33991.3652908153)
(18441825.9038789,3519476.6401288,63464.6742546541)
(18369852.1913975,3491886.84872659,128833.219998447)
(18223456.8868391,3437088.69366394,280988.366789386)
(17959573.3254653,3313814.80996856,608871.702207288)
(17588850.1907788,3033217.30717213,1158315.31722646)
(16542174.0741649,2537297.98908775,2531200.19894521)
(13092968.8277532,1654266.56085394,7482085.92031129)
(0,0,0)
(0,0,0)
(0,0,0)
(0,0,0)
(0,0,0)
(0,0,0)
(14255094.8016808,8771342.47261165,4289.90193058997)
(14252151.1961227,8766914.03699992,9747.68287674367)
(14244616.2246669,8757032.57409144,18590.1754575881)
(14228343.1588122,8738289.47840111,36084.0986273691)
(14194879.3433799,8702025.8729411,74289.4646224487)
(14129095.9568442,8627526.46316199,157955.822929005)
(14007294.2997016,8469353.17737437,328463.80699053)
(13773995.7105567,8140668.94115472,662637.452790195)
(13093532.7311009,7477745.84125929,1648551.67045197)
(10646199.4640716,5828740.64501608,5828207.1835195)
(0,0,0)
(0,0,0)
(0,0,0)
(0,0,0)
(0,0,0)
(0,0,0)
(0,0,0)
(0,0,0)
(0,0,0)
(0,0,0)
(0,0,0)
(0,0,0)
(0,0,0)
(0,0,0)
(0,0,0)
(0,0,0)
(0,0,0)
(0,0,0)
(0,0,0)
(0,0,0)
(0,0,0)
(0,0,0)
(0,0,0)
(0,0,0)
(0,0,0)
(0,0,0)
(0,0,0)
(0,0,0)
(0,0,0)
(0,0,0)
(0,0,0)
(0,0,0)
(0,0,0)
(0,0,0)
(0,0,0)
(0,0,0)
(0,0,0)
(0,0,0)
(0,0,0)
(0,0,0)
(0,0,0)
(0,0,0)
(0,0,0)
(0,0,0)
(0,0,0)
(0,0,0)
(0,0,0)
(0,0,0)
(0,0,0)
(0,0,0)
(0,0,0)
(0,0,0)
(0,0,0)
(0,0,0)
(0,0,0)
(0,0,0)
(0,0,0)
(0,0,0)
(0,0,0)
(0,0,0)
(0,0,0)
(0,0,0)
(0,0,0)
(0,0,0)
(0,0,0)
(0,0,0)
(0,0,0)
(0,0,0)
(0,0,0)
(0,0,0)
(0,0,0)
(0,0,0)
(0,0,0)
(0,0,0)
(0,0,0)
(0,0,0)
(0,0,0)
(0,0,0)
(0,0,0)
(0,0,0)
(0,0,0)
(0,0,0)
(0,0,0)
(0,0,0)
(0,0,0)
(0,0,0)
(0,0,0)
(0,0,0)
(0,0,0)
(0,0,0)
(0,0,0)
(0,0,0)
(0,0,0)
(0,0,0)
(0,0,0)
(0,0,0)
(0,0,0)
(0,0,0)
(0,0,0)
(0,0,0)
(0,0,0)
(0,0,0)
(-374040.218074167,54577.0560950849,45588.7670796809)
(-389467.157655858,51317.2865591947,95887.823647935)
(-424443.905200811,44081.431085136,156187.075625053)
(-488159.564232727,31649.4869234624,232368.000577622)
(-597152.371620899,12769.6416666436,329175.31820199)
(-779072.562034177,-11648.88216068,441502.644645086)
(-1076496.44603379,-34103.5568767629,523687.35213603)
(-1547159.50947531,-38753.9956849879,389542.054418471)
(-2222075.21398803,-26627.1817597329,-642505.319931388)
(-2724058.01385823,-12198.0465322366,-5425445.59383859)
(0,0,0)
(0,0,0)
(0,0,0)
(0,0,0)
(0,0,0)
(0,0,0)
(-390333.168924098,114496.37039619,42314.588907006)
(-405527.794303133,108331.963744146,88693.5522079652)
(-440160.433237957,94448.5443225147,143837.167210937)
(-503954.302159108,69756.0944002436,213621.23646595)
(-614635.381561706,29911.6526525284,304848.964807385)
(-801508.177598944,-26834.5607481832,419084.409916109)
(-1105902.48053579,-85964.4946686828,519002.308121322)
(-1572022.25806161,-95949.719506795,401602.449357562)
(-2234543.5855066,-59585.7658696196,-628141.593958525)
(-2728453.17367679,-24926.1077060347,-5413371.65372058)
(0,0,0)
(0,0,0)
(0,0,0)
(0,0,0)
(0,0,0)
(0,0,0)
(-426892.170297721,184790.119008502,36104.9868753988)
(-441581.798742813,176612.934337011,74810.7171586896)
(-475587.16081073,157911.705849562,119183.746576872)
(-539996.023629388,123221.08711153,173857.639755516)
(-656402.834279601,62318.2220101457,248154.874179928)
(-862507.843466288,-38075.3662671336,359941.633211625)
(-1204116.3361386,-168517.665879386,508932.265070197)
(-1657965.08779916,-186751.488792455,437809.172003659)
(-2272234.02014644,-95675.9556552357,-593708.17475671)
(-2740506.19866524,-33518.541819783,-5388666.95274068)
(0,0,0)
(0,0,0)
(0,0,0)
(0,0,0)
(0,0,0)
(0,0,0)
(-492318.665815024,269033.829613194,27906.4935686901)
(-506239.707630465,260392.726554722,56118.5860157948)
(-539267.502736263,240595.308567366,84501.4920353462)
(-604963.577939466,203168.966366845,113018.814296159)
(-734298.615627234,133421.647882477,147828.494752987)
(-996826.414389787,181.676217160916,229459.848962931)
(-1509245.28465403,-235459.725717139,490575.123469943)
(-1939155.86600658,-272321.292879009,528699.341801015)
(-2366640.70943399,-94411.2071196555,-531823.172363062)
(-2766402.15711084,-20594.7033722964,-5355432.22072171)
(0,0,0)
(0,0,0)
(0,0,0)
(0,0,0)
(0,0,0)
(0,0,0)
(-602206.222186651,366706.188801382,19263.6059787242)
(-614969.505065784,359291.329284884,36332.2030601552)
(-646164.364198551,342898.908242936,47063.7956038655)
(-711860.817690054,313846.138597097,43265.9517751882)
(-856481.03396769,265626.77459182,14601.9123866175)
(-1226764.9732906,191837.37056788,-6211.58310402277)
(-2437056.42849008,107651.878930848,453638.030177973)
(-2890418.49127974,69462.9964317635,706484.641771549)
(-2551848.98304586,61232.1922316136,-458156.343281486)
(-2808895.08821357,38856.0842980246,-5334975.92748216)
(0,0,0)
(0,0,0)
(0,0,0)
(0,0,0)
(0,0,0)
(0,0,0)
(-783192.224106854,465904.279034322,11890.5060612737)
(-794383.742801517,460654.425440789,19992.5339139112)
(-822352.702581606,449800.330974078,18013.3026205708)
(-883444.42387251,432359.166353007,-4995.94528770264)
(-1024031.49264758,406259.339784083,-59172.9450031988)
(-1393418.95295789,367246.487148671,-90377.9221180114)
(-2545034.2863375,311957.902457079,415623.472011576)
(-2960753.55053314,280313.624943532,698289.593107909)
(-2638230.13742492,202439.587979837,-480532.455423385)
(-2851392.0193334,100848.91011105,-5373820.58101397)
(0,0,0)
(0,0,0)
(0,0,0)
(0,0,0)
(0,0,0)
(0,0,0)
(-1078923.14855895,519673.044739986,6692.91783613285)
(-1088145.30499828,516677.075811977,9182.41000871906)
(-1111676.62019662,511597.58534207,616.474404309964)
(-1164944.3964524,506570.071548326,-31098.7868964443)
(-1294051.53041716,505409.115495614,-98165.3056021378)
(-1655814.33636726,510561.149846295,-145637.147981438)
(-2857057.11921439,511545.889098209,384001.703114848)
(-3240872.22735308,586106.650437323,620486.28274133)
(-2768740.80703132,327545.539344807,-581972.791035232)
(-2921531.37051536,135960.934481557,-5474494.0218352)
(0,0,0)
(0,0,0)
(0,0,0)
(0,0,0)
(0,0,0)
(0,0,0)
(-1550859.14707165,356063.137090751,3784.91800628962)
(-1557823.51987884,354594.904702045,4180.40803302461)
(-1575801.90225237,353462.185990143,-4351.26792440146)
(-1617607.847993,357866.524544058,-32218.6726290436)
(-1724505.76774471,381455.795504301,-92915.4723763025)
(-2056435.58852676,456607.93883723,-144471.615641864)
(-3368505.2128617,617904.48664233,458707.425176523)
(-2745558.54546907,397070.071088963,362076.150260296)
(-2872945.42958614,146304.128112183,-773313.612145868)
(-3030086.89100643,1234.64186684026,-5610198.48701572)
(0,0,0)
(0,0,0)
(0,0,0)
(0,0,0)
(0,0,0)
(0,0,0)
(-2227806.26366422,-693840.31501654,2438.10563993315)
(-2232339.8727043,-695051.063930425,3208.86425557695)
(-2243869.60153338,-696207.657198656,189.788320214938)
(-2269608.88073663,-694224.106738508,-8513.36098232241)
(-2328523.24720311,-683311.636685198,-17599.0553927937)
(-2469334.24472606,-657494.978293397,17066.4281022843)
(-2777080.04482161,-638703.932115019,238099.651945805)
(-2877854.52186358,-781895.863626731,111541.734103158)
(-3142570.96688521,-911584.686548377,-918052.975386875)
(-3192304.17983381,-792658.645819695,-5611115.24531391)
(0,0,0)
(0,0,0)
(0,0,0)
(0,0,0)
(0,0,0)
(0,0,0)
(-2728354.71459248,-5483986.47065627,1367.10671238218)
(-2730558.33226191,-5485459.00114307,2256.00710891418)
(-2736088.29690227,-5487837.95545192,2362.26173077903)
(-2748007.87549434,-5490343.84004252,2604.46414067204)
(-2773326.26836781,-5493181.54774108,8451.42174358667)
(-2826383.88786171,-5501913.90895328,36121.6319086843)
(-2924367.60613051,-5538308.58099374,95159.621418925)
(-3033379.44902285,-5633721.54600472,-17868.1018241617)
(-3193244.20320647,-5616120.7815263,-798783.637739475)
(-3081622.86056072,-4817707.7589866,-4818140.76514088)
(0,0,0)
(0,0,0)
(0,0,0)
(0,0,0)
(0,0,0)
(0,0,0)
(0,0,0)
(0,0,0)
(0,0,0)
(0,0,0)
(0,0,0)
(0,0,0)
(0,0,0)
(0,0,0)
(0,0,0)
(0,0,0)
(0,0,0)
(0,0,0)
(0,0,0)
(0,0,0)
(0,0,0)
(0,0,0)
(0,0,0)
(0,0,0)
(0,0,0)
(0,0,0)
(0,0,0)
(0,0,0)
(0,0,0)
(0,0,0)
(0,0,0)
(0,0,0)
(0,0,0)
(0,0,0)
(0,0,0)
(0,0,0)
(0,0,0)
(0,0,0)
(0,0,0)
(0,0,0)
(0,0,0)
(0,0,0)
(0,0,0)
(0,0,0)
(0,0,0)
(0,0,0)
(0,0,0)
(0,0,0)
(0,0,0)
(0,0,0)
(0,0,0)
(0,0,0)
(0,0,0)
(0,0,0)
(0,0,0)
(0,0,0)
(0,0,0)
(0,0,0)
(0,0,0)
(0,0,0)
(0,0,0)
(0,0,0)
(0,0,0)
(0,0,0)
(0,0,0)
(0,0,0)
(0,0,0)
(0,0,0)
(0,0,0)
(0,0,0)
(0,0,0)
(0,0,0)
(0,0,0)
(0,0,0)
(0,0,0)
(0,0,0)
(0,0,0)
(0,0,0)
(0,0,0)
(0,0,0)
(0,0,0)
(0,0,0)
(0,0,0)
(0,0,0)
(0,0,0)
(0,0,0)
(0,0,0)
(0,0,0)
(0,0,0)
(0,0,0)
(0,0,0)
(0,0,0)
(0,0,0)
(0,0,0)
(0,0,0)
(0,0,0)
(0,0,0)
(0,0,0)
(0,0,0)
(0,0,0)
(0,0,0)
(0,0,0)
(-442314.586478765,38168.3418699738,30106.0265346245)
(-455428.923089801,35176.4598411522,60891.3321274138)
(-484374.047300465,28298.9732918214,92522.500935249)
(-534893.409143226,15828.5216663757,123427.824179369)
(-616425.808186901,-4661.36720063197,147362.627946005)
(-741812.658115677,-33982.7766107796,144085.500638286)
(-921945.129623344,-63402.8228731535,52937.0071009991)
(-1145277.98835594,-63516.1710079808,-285428.343010394)
(-1323907.48013829,-39033.928339727,-1144562.14852039)
(-1150467.74468763,-16584.0183356774,-2701568.39935531)
(0,0,0)
(0,0,0)
(0,0,0)
(0,0,0)
(0,0,0)
(0,0,0)
(-457151.80676994,77891.5392564052,27095.4404594104)
(-469557.382871122,72235.1608612324,54066.3280073151)
(-496899.736678868,58991.1951051535,80113.4096348951)
(-544749.776031118,33719.6892054581,103017.715967822)
(-622597.516088617,-11785.2639926569,118103.747286756)
(-744386.52883838,-87726.4638954284,114725.785810848)
(-923354.482928298,-184068.649906619,52843.6152368329)
(-1139918.47623703,-181790.725917346,-260985.611678378)
(-1315176.43918669,-97244.8387583642,-1122141.84757965)
(-1145081.69112327,-37017.1982485336,-2685080.15022035)
(0,0,0)
(0,0,0)
(0,0,0)
(0,0,0)
(0,0,0)
(0,0,0)
(-489820.501621788,119430.815434453,21389.0551460237)
(-500787.209752757,112014.600026278,40815.0269909179)
(-524940.284876578,94300.9575178963,54858.3886440208)
(-567276.974219899,58314.3725381618,57544.6559018305)
(-637339.514348392,-15505.3751323096,42201.4471102717)
(-754131.30058671,-172317.325495395,18415.7658306516)
(-951306.409050753,-473567.269933485,55104.4587696694)
(-1140263.73612005,-467868.781083759,-176518.837743033)
(-1293874.1712935,-190065.122756817,-1062058.40259753)
(-1131892.07870806,-59436.7086356072,-2648253.01216765)
(0,0,0)
(0,0,0)
(0,0,0)
(0,0,0)
(0,0,0)
(0,0,0)
(-546131.822962867,159281.355333804,13962.617248496)
(-555097.513375991,151761.850051721,23073.1729685822)
(-574560.851875304,133813.389447736,18854.0901777849)
(-607925.595885289,96394.3888614213,-16263.9081996523)
(-662813.708705647,11358.3209149637,-114612.511168506)
(-771200.31691326,-229641.164697982,-282914.769442452)
(-1163249.97210347,-1163137.03820768,60659.6862811734)
(-1224051.39994262,-1223479.19222844,101165.631361895)
(-1244300.53976519,-279583.540704683,-931656.120359038)
(-1105314.37133983,-63085.2834521145,-2589095.33131353)
(0,0,0)
(0,0,0)
(0,0,0)
(0,0,0)
(0,0,0)
(0,0,0)
(-635169.587357975,185763.475301361,6481.24520376842)
(-641781.587985416,179915.839054292,5139.33912083044)
(-655389.890504537,166781.709743901,-18603.4548693473)
(-675043.692191718,142347.175879952,-101373.367386213)
(-688959.019287602,98148.0785991483,-355685.139750487)
(-620835.958437543,25292.1225984475,-1216547.44189997)
(-8.2298073117759e-05,-2.23686676495912e-05,5.4829247308381e-05)