/*--------------------------------*- C++ -*----------------------------------*\
| =========                 |                                                 |
| \\      /  F ield         | foam-extend: Open Source CFD                    |
|  \\    /   O peration     | Version:     4.0                                |
|   \\  /    A nd           | Web:         http://www.foam-extend.org         |
|    \\/     M anipulation  |                                                 |
\*---------------------------------------------------------------------------*/
FoamFile
{
    version 2.0;
    format ascii;
    class volVectorField;
    location "Data/665";
    object      E;
}
// * * * * * * * * * * * * * * * * * * * * * * * * * * * * * * * * * * * * * //

dimensions      [0 1 -1 0 0 0 0];

internalField   nonuniform List<vector>
4096
(
(0,0,0)
(0,0,0)
(0,0,0)
(0,0,0)
(0,0,0)
(0,0,0)
(0,0,0)
(0,0,0)
(0,0,0)
(0,0,0)
(0,0,0)
(0,0,0)
(0,0,0)
(0,0,0)
(0,0,0)
(0,0,0)
(0,0,0)
(0,0,0)
(0,0,0)
(0,0,0)
(0,0,0)
(0,0,0)
(0,0,0)
(0,0,0)
(0,0,0)
(0,0,0)
(0,0,0)
(0,0,0)
(0,0,0)
(0,0,0)
(0,0,0)
(0,0,0)
(0,0,0)
(0,0,0)
(0,0,0)
(0,0,0)
(0,0,0)
(0,0,0)
(0,0,0)
(0,0,0)
(0,0,0)
(0,0,0)
(0,0,0)
(0,0,0)
(0,0,0)
(0,0,0)
(0,0,0)
(0,0,0)
(0,0,0)
(0,0,0)
(0,0,0)
(0,0,0)
(0,0,0)
(0,0,0)
(0,0,0)
(0,0,0)
(0,0,0)
(0,0,0)
(0,0,0)
(0,0,0)
(0,0,0)
(0,0,0)
(0,0,0)
(0,0,0)
(0,0,0)
(0,0,0)
(0,0,0)
(0,0,0)
(0,0,0)
(0,0,0)
(0,0,0)
(0,0,0)
(0,0,0)
(0,0,0)
(0,0,0)
(0,0,0)
(0,0,0)
(0,0,0)
(0,0,0)
(0,0,0)
(0,0,0)
(0,0,0)
(0,0,0)
(0,0,0)
(0,0,0)
(0,0,0)
(0,0,0)
(0,0,0)
(0,0,0)
(0,0,0)
(0,0,0)
(0,0,0)
(0,0,0)
(0,0,0)
(0,0,0)
(0,0,0)
(0,0,0)
(0,0,0)
(0,0,0)
(0,0,0)
(0,0,0)
(0,0,0)
(0,0,0)
(0,0,0)
(0,0,0)
(0,0,0)
(0,0,0)
(0,0,0)
(0,0,0)
(0,0,0)
(0,0,0)
(0,0,0)
(0,0,0)
(0,0,0)
(0,0,0)
(0,0,0)
(0,0,0)
(0,0,0)
(0,0,0)
(0,0,0)
(0,0,0)
(0,0,0)
(0,0,0)
(0,0,0)
(0,0,0)
(0,0,0)
(0,0,0)
(0,0,0)
(0,0,0)
(0,0,0)
(0,0,0)
(0,0,0)
(0,0,0)
(0,0,0)
(0,0,0)
(0,0,0)
(0,0,0)
(0,0,0)
(0,0,0)
(0,0,0)
(0,0,0)
(0,0,0)
(0,0,0)
(0,0,0)
(0,0,0)
(0,0,0)
(0,0,0)
(0,0,0)
(0,0,0)
(0,0,0)
(0,0,0)
(0,0,0)
(0,0,0)
(0,0,0)
(0,0,0)
(0,0,0)
(0,0,0)
(0,0,0)
(0,0,0)
(0,0,0)
(0,0,0)
(0,0,0)
(0,0,0)
(0,0,0)
(0,0,0)
(0,0,0)
(0,0,0)
(0,0,0)
(0,0,0)
(0,0,0)
(0,0,0)
(0,0,0)
(0,0,0)
(0,0,0)
(0,0,0)
(0,0,0)
(0,0,0)
(0,0,0)
(0,0,0)
(0,0,0)
(0,0,0)
(0,0,0)
(0,0,0)
(0,0,0)
(0,0,0)
(0,0,0)
(0,0,0)
(0,0,0)
(0,0,0)
(0,0,0)
(0,0,0)
(0,0,0)
(0,0,0)
(0,0,0)
(0,0,0)
(0,0,0)
(0,0,0)
(0,0,0)
(0,0,0)
(0,0,0)
(0,0,0)
(0,0,0)
(0,0,0)
(0,0,0)
(0,0,0)
(0,0,0)
(0,0,0)
(0,0,0)
(0,0,0)
(0,0,0)
(0,0,0)
(0,0,0)
(0,0,0)
(0,0,0)
(0,0,0)
(0,0,0)
(0,0,0)
(0,0,0)
(0,0,0)
(0,0,0)
(0,0,0)
(0,0,0)
(0,0,0)
(0,0,0)
(0,0,0)
(0,0,0)
(0,0,0)
(0,0,0)
(0,0,0)
(0,0,0)
(0,0,0)
(0,0,0)
(0,0,0)
(0,0,0)
(0,0,0)
(0,0,0)
(0,0,0)
(0,0,0)
(0,0,0)
(0,0,0)
(0,0,0)
(0,0,0)
(0,0,0)
(0,0,0)
(0,0,0)
(0,0,0)
(0,0,0)
(0,0,0)
(0,0,0)
(0,0,0)
(0,0,0)
(0,0,0)
(0,0,0)
(0,0,0)
(0,0,0)
(0,0,0)
(0,0,0)
(0,0,0)
(0,0,0)
(0,0,0)
(0,0,0)
(0,0,0)
(0,0,0)
(0,0,0)
(0,0,0)
(0,0,0)
(0,0,0)
(0,0,0)
(0,0,0)
(0,0,0)
(0,0,0)
(0,0,0)
(0,0,0)
(0,0,0)
(0,0,0)
(0,0,0)
(0,0,0)
(0,0,0)
(0,0,0)
(0,0,0)
(0,0,0)
(0,0,0)
(0,0,0)
(0,0,0)
(0,0,0)
(0,0,0)
(0,0,0)
(0,0,0)
(0,0,0)
(0,0,0)
(0,0,0)
(0,0,0)
(0,0,0)
(0,0,0)
(0,0,0)
(0,0,0)
(0,0,0)
(0,0,0)
(0,0,0)
(0,0,0)
(0,0,0)
(0,0,0)
(0,0,0)
(0,0,0)
(0,0,0)
(0,0,0)
(0,0,0)
(0,0,0)
(0,0,0)
(0,0,0)
(0,0,0)
(0,0,0)
(0,0,0)
(0,0,0)
(0,0,0)
(0,0,0)
(0,0,0)
(0,0,0)
(0,0,0)
(0,0,0)
(0,0,0)
(0,0,0)
(0,0,0)
(0,0,0)
(0,0,0)
(0,0,0)
(0,0,0)
(0,0,0)
(0,0,0)
(0,0,0)
(0,0,0)
(0,0,0)
(0,0,0)
(0,0,0)
(0,0,0)
(0,0,0)
(0,0,0)
(0,0,0)
(0,0,0)
(0,0,0)
(0,0,0)
(0,0,0)
(0,0,0)
(0,0,0)
(0,0,0)
(0,0,0)
(0,0,0)
(0,0,0)
(0,0,0)
(0,0,0)
(0,0,0)
(0,0,0)
(0,0,0)
(0,0,0)
(0,0,0)
(0,0,0)
(0,0,0)
(0,0,0)
(0,0,0)
(0,0,0)
(0,0,0)
(0,0,0)
(0,0,0)
(0,0,0)
(0,0,0)
(0,0,0)
(0,0,0)
(0,0,0)
(0,0,0)
(0,0,0)
(0,0,0)
(0,0,0)
(0,0,0)
(0,0,0)
(0,0,0)
(0,0,0)
(0,0,0)
(0,0,0)
(0,0,0)
(0,0,0)
(0,0,0)
(0,0,0)
(0,0,0)
(0,0,0)
(0,0,0)
(0,0,0)
(0,0,0)
(0,0,0)
(0,0,0)
(0,0,0)
(0,0,0)
(0,0,0)
(0,0,0)
(0,0,0)
(0,0,0)
(0,0,0)
(0,0,0)
(0,0,0)
(0,0,0)
(0,0,0)
(0,0,0)
(0,0,0)
(0,0,0)
(0,0,0)
(0,0,0)
(0,0,0)
(0,0,0)
(0,0,0)
(0,0,0)
(0,0,0)
(0,0,0)
(0,0,0)
(0,0,0)
(0,0,0)
(0,0,0)
(0,0,0)
(0,0,0)
(0,0,0)
(0,0,0)
(0,0,0)
(0,0,0)
(0,0,0)
(0,0,0)
(0,0,0)
(0,0,0)
(0,0,0)
(0,0,0)
(0,0,0)
(0,0,0)
(0,0,0)
(0,0,0)
(0,0,0)
(0,0,0)
(0,0,0)
(0,0,0)
(0,0,0)
(0,0,0)
(0,0,0)
(0,0,0)
(0,0,0)
(0,0,0)
(0,0,0)
(0,0,0)
(0,0,0)
(0,0,0)
(0,0,0)
(0,0,0)
(0,0,0)
(0,0,0)
(0,0,0)
(0,0,0)
(0,0,0)
(0,0,0)
(0,0,0)
(0,0,0)
(0,0,0)
(0,0,0)
(0,0,0)
(0,0,0)
(0,0,0)
(0,0,0)
(0,0,0)
(0,0,0)
(0,0,0)
(0,0,0)
(0,0,0)
(0,0,0)
(0,0,0)
(0,0,0)
(0,0,0)
(0,0,0)
(0,0,0)
(0,0,0)
(0,0,0)
(0,0,0)
(0,0,0)
(0,0,0)
(0,0,0)
(0,0,0)
(0,0,0)
(0,0,0)
(0,0,0)
(0,0,0)
(0,0,0)
(0,0,0)
(0,0,0)
(0,0,0)
(0,0,0)
(0,0,0)
(0,0,0)
(0,0,0)
(0,0,0)
(0,0,0)
(0,0,0)
(0,0,0)
(0,0,0)
(0,0,0)
(0,0,0)
(0,0,0)
(0,0,0)
(0,0,0)
(0,0,0)
(0,0,0)
(0,0,0)
(0,0,0)
(0,0,0)
(0,0,0)
(0,0,0)
(0,0,0)
(0,0,0)
(0,0,0)
(0,0,0)
(0,0,0)
(0,0,0)
(0,0,0)
(0,0,0)
(0,0,0)
(0,0,0)
(0,0,0)
(0,0,0)
(0,0,0)
(0,0,0)
(0,0,0)
(0,0,0)
(0,0,0)
(0,0,0)
(0,0,0)
(0,0,0)
(0,0,0)
(0,0,0)
(0,0,0)
(0,0,0)
(0,0,0)
(0,0,0)
(0,0,0)
(0,0,0)
(0,0,0)
(0,0,0)
(0,0,0)
(0,0,0)
(0,0,0)
(0,0,0)
(0,0,0)
(0,0,0)
(0,0,0)
(0,0,0)
(0,0,0)
(0,0,0)
(0,0,0)
(0,0,0)
(0,0,0)
(0,0,0)
(0,0,0)
(0,0,0)
(0,0,0)
(0,0,0)
(0,0,0)
(0,0,0)
(0,0,0)
(0,0,0)
(0,0,0)
(0,0,0)
(0,0,0)
(0,0,0)
(0,0,0)
(0,0,0)
(0,0,0)
(0,0,0)
(0,0,0)
(0,0,0)
(0,0,0)
(0,0,0)
(0,0,0)
(0,0,0)
(0,0,0)
(0,0,0)
(0,0,0)
(0,0,0)
(0,0,0)
(0,0,0)
(0,0,0)
(0,0,0)
(0,0,0)
(0,0,0)
(0,0,0)
(0,0,0)
(0,0,0)
(0,0,0)
(0,0,0)
(0,0,0)
(0,0,0)
(0,0,0)
(0,0,0)
(0,0,0)
(0,0,0)
(0,0,0)
(0,0,0)
(0,0,0)
(0,0,0)
(0,0,0)
(0,0,0)
(0,0,0)
(0,0,0)
(0,0,0)
(0,0,0)
(0,0,0)
(0,0,0)
(0,0,0)
(0,0,0)
(0,0,0)
(0,0,0)
(0,0,0)
(0,0,0)
(0,0,0)
(0,0,0)
(0,0,0)
(0,0,0)
(0,0,0)
(0,0,0)
(0,0,0)
(0,0,0)
(0,0,0)
(0,0,0)
(0,0,0)
(0,0,0)
(0,0,0)
(0,0,0)
(0,0,0)
(0,0,0)
(0,0,0)
(0,0,0)
(0,0,0)
(0,0,0)
(0,0,0)
(0,0,0)
(0,0,0)
(0,0,0)
(0,0,0)
(0,0,0)
(0,0,0)
(0,0,0)
(0,0,0)
(0,0,0)
(0,0,0)
(0,0,0)
(0,0,0)
(0,0,0)
(0,0,0)
(0,0,0)
(0,0,0)
(0,0,0)
(0,0,0)
(0,0,0)
(0,0,0)
(0,0,0)
(0,0,0)
(0,0,0)
(0,0,0)
(0,0,0)
(0,0,0)
(0,0,0)
(0,0,0)
(0,0,0)
(0,0,0)
(0,0,0)
(0,0,0)
(0,0,0)
(0,0,0)
(0,0,0)
(0,0,0)
(0,0,0)
(0,0,0)
(0,0,0)
(0,0,0)
(0,0,0)
(0,0,0)
(0,0,0)
(0,0,0)
(0,0,0)
(0,0,0)
(0,0,0)
(0,0,0)
(0,0,0)
(0,0,0)
(0,0,0)
(0,0,0)
(0,0,0)
(0,0,0)
(0,0,0)
(0,0,0)
(0,0,0)
(0,0,0)
(0,0,0)
(0,0,0)
(0,0,0)
(0,0,0)
(0,0,0)
(0,0,0)
(0,0,0)
(0,0,0)
(0,0,0)
(0,0,0)
(0,0,0)
(0,0,0)
(0,0,0)
(0,0,0)
(0,0,0)
(0,0,0)
(0,0,0)
(0,0,0)
(0,0,0)
(0,0,0)
(0,0,0)
(0,0,0)
(0,0,0)
(0,0,0)
(0,0,0)
(0,0,0)
(0,0,0)
(0,0,0)
(0,0,0)
(0,0,0)
(0,0,0)
(0,0,0)
(0,0,0)
(0,0,0)
(0,0,0)
(0,0,0)
(0,0,0)
(0,0,0)
(0,0,0)
(0,0,0)
(0,0,0)
(0,0,0)
(0,0,0)
(0,0,0)
(0,0,0)
(0,0,0)
(0,0,0)
(0,0,0)
(0,0,0)
(0,0,0)
(0,0,0)
(0,0,0)
(0,0,0)
(0,0,0)
(0,0,0)
(0,0,0)
(0,0,0)
(0,0,0)
(0,0,0)
(0,0,0)
(0,0,0)
(0,0,0)
(0,0,0)
(0,0,0)
(0,0,0)
(0,0,0)
(0,0,0)
(0,0,0)
(0,0,0)
(0,0,0)
(0,0,0)
(0,0,0)
(0,0,0)
(0,0,0)
(0,0,0)
(0,0,0)
(0,0,0)
(0,0,0)
(0,0,0)
(0,0,0)
(0,0,0)
(0,0,0)
(0,0,0)
(0,0,0)
(0,0,0)
(0,0,0)
(0,0,0)
(0,0,0)
(0,0,0)
(0,0,0)
(0,0,0)
(0,0,0)
(0,0,0)
(0,0,0)
(0,0,0)
(0,0,0)
(0,0,0)
(0,0,0)
(0,0,0)
(0,0,0)
(0,0,0)
(0,0,0)
(0,0,0)
(0,0,0)
(0,0,0)
(0,0,0)
(0,0,0)
(0,0,0)
(0,0,0)
(0,0,0)
(0,0,0)
(0,0,0)
(0,0,0)
(0,0,0)
(0,0,0)
(0,0,0)
(0,0,0)
(0,0,0)
(0,0,0)
(0,0,0)
(0,0,0)
(0,0,0)
(0,0,0)
(0,0,0)
(0,0,0)
(0,0,0)
(0,0,0)
(-180493.97747187,95865.5004475654,84628.4770243042)
(-190903.084373395,91927.8121942686,183603.749203431)
(-214983.696021706,83708.1554420973,314879.289783039)
(-260421.908271628,70777.7688873014,504523.42916737)
(-342378.3618232,53319.2754173046,793582.515573269)
(-489445.043756067,33211.5360918398,1249816.02323748)
(-755748.766834008,14900.7232062169,1990664.06686531)
(-1237043.93397563,3681.45571691442,3224026.54512402)
(-2040208.48221658,-47.9495680684138,5264282.97690871)
(-2842593.38270377,-310.609749013135,8107186.96936149)
(0,0,0)
(0,0,0)
(0,0,0)
(0,0,0)
(0,0,0)
(0,0,0)
(-190882.975837089,206058.226275095,80690.2500095581)
(-201376.453401846,198606.354152896,175388.161452779)
(-225817.469130249,182947.092833704,301966.693191419)
(-272320.385794759,157990.500183075,487074.347690408)
(-356552.766428778,123472.452781344,773473.936755144)
(-507189.46541176,82362.6028868368,1231512.33537191)
(-776446.858338173,43424.7216196967,1979435.19529658)
(-1255917.27344046,18756.826071591,3220277.09838234)
(-2052798.68676904,9088.03338764471,5263939.80219573)
(-2848474.61932161,4643.63127761985,8107460.1804906)
(0,0,0)
(0,0,0)
(0,0,0)
(0,0,0)
(0,0,0)
(0,0,0)
(-214653.871983963,347482.029747861,73230.0685111965)
(-225339.371966991,337463.389269359,159712.405361724)
(-250555.597442918,316255.243022148,276959.852616202)
(-299368.807688094,281798.89106373,452520.269423643)
(-388978.910334901,232624.522395426,732347.110144461)
(-548986.489342585,171118.799229226,1192577.40314466)
(-827535.501468602,108777.668641755,1954759.9575912)
(-1302977.76256374,65949.833497178,3210544.71272933)
(-2083109.58283328,43424.5037915175,5259317.82515879)
(-2862206.98506162,23538.6201217532,8102629.82137628)
(0,0,0)
(0,0,0)
(0,0,0)
(0,0,0)
(0,0,0)
(0,0,0)
(-259033.624866642,543331.52009965,63184.1345148545)
(-269905.885909631,532155.225198062,138398.184495784)
(-296078.596956702,508362.948209163,242369.076265467)
(-348243.585226318,469196.231925372,403215.32063014)
(-446730.267912996,411812.50549572,670757.605442844)
(-624683.55297431,336338.786032949,1130221.17161343)
(-925387.121585128,252465.714894978,1911920.24694534)
(-1394008.17597958,183991.043182818,3187887.21323925)
(-2138650.70612634,130717.342336464,5239245.08082061)
(-2886443.22547539,70318.0805816002,8078908.84583625)
(0,0,0)
(0,0,0)
(0,0,0)
(0,0,0)
(0,0,0)
(0,0,0)
(-338517.350567442,829847.356104672,52001.5145624188)
(-349340.154298715,818945.144943779,114551.749115417)
(-376016.389715072,795781.493467357,203149.593572295)
(-431006.475709511,757595.345488212,345756.955718969)
(-538675.642444462,701037.798586332,595207.305072823)
(-738857.370529652,624109.132144093,1046294.32949131)
(-1074366.3029121,529767.702326437,1843358.64497196)
(-1532542.05029376,425468.701188535,3134423.03726001)
(-2219331.44703625,305842.161025932,5178629.66560684)
(-2921467.58349332,162099.843160289,8008315.48652149)
(0,0,0)
(0,0,0)
(0,0,0)
(0,0,0)
(0,0,0)
(0,0,0)
(-481952.993738236,1270662.10979847,41138.2400444325)
(-492229.110056687,1260943.97942056,91368.515624333)
(-518040.583591131,1240289.6528423,164900.939840522)
(-572503.360544299,1205934.1559679,289065.489905128)
(-681322.039091689,1153318.5699436,518106.757639555)
(-885327.503618666,1075747.13809043,951796.25531189)
(-1221859.72989573,964562.477394239,1738861.21013985)
(-1659255.91496562,809060.781502234,3014525.04479175)
(-2306684.65462651,592434.376394554,5034617.48404965)
(-2965483.93177221,316273.220846958,7845928.03813512)
(0,0,0)
(0,0,0)
(0,0,0)
(0,0,0)
(0,0,0)
(0,0,0)
(-745289.641939078,1984486.58487092,31465.1668666367)
(-754393.269126845,1976108.51666433,70693.8987497124)
(-777569.043486241,1958128.49999685,130424.095081404)
(-827326.653523278,1927453.99832485,236230.906247737)
(-928382.029452823,1877602.92752093,440328.578123232)
(-1120064.05473392,1795648.55548698,840491.215460598)
(-1435898.7398545,1657734.21800938,1583218.21469996)
(-1833641.81880183,1428244.12895453,2797676.68604949)
(-2436823.72142483,1068669.05911358,4758265.72475526)
(-3037266.70999145,582294.673294389,7529510.98229931)
(0,0,0)
(0,0,0)
(0,0,0)
(0,0,0)
(0,0,0)
(0,0,0)
(-1226811.0776218,3188199.39232247,23098.2701702294)
(-1234141.92142424,3180653.43796622,52695.2702925927)
(-1252836.39564896,3163985.16717585,99674.9987625616)
(-1293316.38344275,3134150.58523233,186294.795297816)
(-1376356.13841965,3081961.81070881,358292.050529573)
(-1535686.7595395,2987093.32405931,702534.041496738)
(-1800200.36289513,2806786.76172615,1353681.86067508)
(-2122194.37049369,2466154.60188804,2437965.75823528)
(-2673058.90220126,1907942.80361721,4271750.91593291)
(-3174524.79457294,1081460.93880555,6947109.44499463)
(0,0,0)
(0,0,0)
(0,0,0)
(0,0,0)
(0,0,0)
(0,0,0)
(-2033225.52583779,5205966.19200128,15458.7261589711)
(-2038254.82756236,5198427.67519441,35939.3164931478)
(-2050963.76773535,5181110.68375792,69777.5676463945)
(-2078203.7721799,5148078.81260861,134053.112450019)
(-2133074.11808161,5085719.48777285,263369.553467604)
(-2236174.55450081,4964450.02639482,522187.40563289)
(-2409307.03879796,4725202.21566098,1013078.99049602)
(-2666490.04977899,4265949.10641016,1879774.53575288)
(-3108779.43986786,3451188.05526571,3445308.72397221)
(-3413919.29095888,2075019.64419012,5865669.30954652)
(0,0,0)
(0,0,0)
(0,0,0)
(0,0,0)
(0,0,0)
(0,0,0)
(-2839366.00840925,8037485.53709373,7846.66331678854)
(-2841901.64486978,8029655.53555294,18520.4478280437)
(-2848237.7153549,8011233.7513352,36635.0956056815)
(-2861620.07884019,7974801.24231127,71532.7447432176)
(-2888193.35264603,7903440.90965589,142004.675506234)
(-2937848.23676508,7761461.13280118,282841.805864951)
(-3024479.24772865,7478737.60850709,553785.660747482)
(-3170442.70568576,6925126.82964631,1065050.64319707)
(-3413158.45667996,5860136.23048888,2069260.92465385)
(-3437343.68190969,3790857.5550289,3790766.69572477)
(0,0,0)
(0,0,0)
(0,0,0)
(0,0,0)
(0,0,0)
(0,0,0)
(0,0,0)
(0,0,0)
(0,0,0)
(0,0,0)
(0,0,0)
(0,0,0)
(0,0,0)
(0,0,0)
(0,0,0)
(0,0,0)
(0,0,0)
(0,0,0)
(0,0,0)
(0,0,0)
(0,0,0)
(0,0,0)
(0,0,0)
(0,0,0)
(0,0,0)
(0,0,0)
(0,0,0)
(0,0,0)
(0,0,0)
(0,0,0)
(0,0,0)
(0,0,0)
(0,0,0)
(0,0,0)
(0,0,0)
(0,0,0)
(0,0,0)
(0,0,0)
(0,0,0)
(0,0,0)
(0,0,0)
(0,0,0)
(0,0,0)
(0,0,0)
(0,0,0)
(0,0,0)
(0,0,0)
(0,0,0)
(0,0,0)
(0,0,0)
(0,0,0)
(0,0,0)
(0,0,0)
(0,0,0)
(0,0,0)
(0,0,0)
(0,0,0)
(0,0,0)
(0,0,0)
(0,0,0)
(0,0,0)
(0,0,0)
(0,0,0)
(0,0,0)
(0,0,0)
(0,0,0)
(0,0,0)
(0,0,0)
(0,0,0)
(0,0,0)
(0,0,0)
(0,0,0)
(0,0,0)
(0,0,0)
(0,0,0)
(0,0,0)
(0,0,0)
(0,0,0)
(0,0,0)
(0,0,0)
(0,0,0)
(0,0,0)
(0,0,0)
(0,0,0)
(0,0,0)
(0,0,0)
(0,0,0)
(0,0,0)
(0,0,0)
(0,0,0)
(0,0,0)
(0,0,0)
(0,0,0)
(0,0,0)
(0,0,0)
(0,0,0)
(0,0,0)
(0,0,0)
(0,0,0)
(0,0,0)
(0,0,0)
(0,0,0)
(26657961.2475446,85467.3533192851,74246.6625927895)
(26640526.490957,81430.4396251339,159555.888565805)
(26600506.813652,72819.4399191811,269415.1799015)
(26525809.5779448,58826.975271291,422525.959342327)
(26392820.2048689,39087.7944996261,646408.839079131)
(26156346.0227445,15449.5038113683,983337.509695683)
(25722428.7541507,-5801.92235062028,1509131.15199008)
(24864832.2085321,-15193.0983357785,2420617.34874657)
(22929629.1864749,-12620.3720682423,4461569.29305183)
(17674009.5053447,-6176.88089797813,10949312.5268299)
(0,0,0)
(0,0,0)
(0,0,0)
(0,0,0)
(0,0,0)
(0,0,0)
(26640265.6149156,182282.607402325,70205.3960928873)
(26622826.3160395,174665.167059437,150937.140145774)
(26582469.8635386,158238.344169095,255400.144155525)
(26506354.6413506,130957.183252973,402764.149957018)
(26369710.4001183,91022.2435664618,622735.775271693)
(26126524.3065823,40554.7283161735,962086.019701354)
(25685921.8327771,-7644.69682045367,1499729.34398455)
(24831892.3468824,-28248.4881675576,2423144.354422)
(22909141.105952,-21161.9895862985,4467915.42014743)
(17665027.7113118,-9042.00604544571,10955447.45559)
(0,0,0)
(0,0,0)
(0,0,0)
(0,0,0)
(0,0,0)
(0,0,0)
(26600068.6966167,303168.419914509,62560.8598157076)
(26582585.0359692,292995.477257872,134475.382609688)
(26541459.5009943,270813.725872892,228054.143397194)
(26462035.443678,232978.517182852,362797.79902986)
(26315904.7745424,174875.798757784,572229.799889731)
(26052713.5578767,95392.4347821821,913861.287132995)
(25586829.4550617,10940.2925522802,1479080.5821585)
(24740912.494935,-25020.0961942545,2430131.17361507)
(22856215.4666499,-12044.6597303642,4479858.03520451)
(17643054.7429435,-629.274914170234,10964352.8169967)
(0,0,0)
(0,0,0)
(0,0,0)
(0,0,0)
(0,0,0)
(0,0,0)
(26526116.3826189,463878.148088848,52309.5052686768)
(26508648.9749487,452750.290951189,112169.071645582)
(26466559.3387475,428429.654090361,190084.448652436)
(26381961.3903665,386433.035066178,304594.196104799)
(26218385.7619172,319842.767041529,492680.43891938)
(25910077.5078214,222105.480597169,829375.573237243)
(25366597.9997265,103435.440794265,1443064.54461215)
(24533822.5708128,45436.0872513159,2442946.85530275)
(22749274.2659204,50064.9804530327,4491081.4840011)
(17601970.4376748,35362.4888279605,10964845.2980374)
(0,0,0)
(0,0,0)
(0,0,0)
(0,0,0)
(0,0,0)
(0,0,0)
(26395975.040678,686388.547136871,41166.4506350675)
(26378902.4460059,676038.929590193,87804.4526200157)
(26336610.8543451,653736.615134458,148039.488444379)
(26247585.2393014,616080.06403736,237969.985390828)
(26064026.5993853,558356.607475707,394923.144055511)
(25688081.2598295,477590.304101968,710668.931120157)
(24970727.46909,382205.109684424,1384974.73115648)
(24149973.6993134,298696.339824373,2447367.96990486)
(22581688.5314267,218449.643170461,4476132.56965293)
(17540856.3277845,118086.573181086,10929253.8149505)
(0,0,0)
(0,0,0)
(0,0,0)
(0,0,0)
(0,0,0)
(0,0,0)
(26164482.0497312,1007276.4512544,30846.2933415148)
(26148568.1929673,998751.208084689,65505.9527515082)
(26108272.5227947,980735.994976353,110362.707452359)
(26020849.2284219,951075.603104093,180183.820348038)
(25835146.749305,906178.090314403,314062.790041175)
(25448406.9373166,840900.047861668,615187.846274731)
(24721969.5409819,750411.661608883,1301321.2644012)
(23937428.7437436,634612.901404357,2366889.28504054)
(22439087.9348603,462246.731057418,4375488.84859529)
(17470906.7160481,244457.588881945,10810896.4260027)
(0,0,0)
(0,0,0)
(0,0,0)
(0,0,0)
(0,0,0)
(0,0,0)
(25735035.5351897,1502771.92525673,22348.5897974572)
(25721167.3646702,1496228.52722721,47479.8777864437)
(25685449.3045349,1482746.35692019,80620.4087500346)
(25606082.2901515,1461343.5026517,135112.80645624)
(25432958.9415589,1429496.53954672,248622.627140776)
(25063159.2556451,1379866.76700612,524601.838545838)
(24358612.416034,1293295.35617907,1185376.2290157)
(23650597.935081,1139598.04710747,2194320.57035832)
(22228037.7827191,832360.736959439,4157514.30124085)
(17351617.7416378,444985.550619102,10566271.128803)
(0,0,0)
(0,0,0)
(0,0,0)
(0,0,0)
(0,0,0)
(0,0,0)
(24876683.2297754,2381624.50478036,15822.3540077735)
(24865696.5759721,2376386.433868,33995.190899195)
(24837222.5619328,2365684.96370435,59166.8674618238)
(24773098.6570315,2349083.74936732,103180.82120055)
(24630481.580137,2325103.28573232,198905.597386809)
(24316816.5526929,2286470.20695509,437968.086134031)
(23700124.4002961,2197511.87325907,1031596.04679131)
(23238540.0145644,1921687.51133406,1886941.43843516)
(21802315.2293503,1472082.09926235,3770015.18550913)
(17075467.382877,841982.979993712,10121194.819613)
(0,0,0)
(0,0,0)
(0,0,0)
(0,0,0)
(0,0,0)
(0,0,0)
(22936473.407,4399578.95278924,10515.8600819048)
(22929058.8097101,4394525.49052902,23232.4070770138)
(22910029.1717744,4383579.02448492,42514.6477152514)
(22868059.9656063,4364375.04761431,79128.8526105974)
(22778785.8258848,4330332.13357262,160209.301732448)
(22597167.6272313,4262525.08549783,348981.482386174)
(22269822.1844628,4109759.92217503,755773.451138041)
(21810112.3679567,3761725.04752135,1437302.73814362)
(20512252.7726334,3146616.18227285,3139905.68356039)
(16235371.1924112,2051529.35563758,9279238.06547495)
(0,0,0)
(0,0,0)
(0,0,0)
(0,0,0)
(0,0,0)
(0,0,0)
(17676479.1117804,10876512.2043311,5390.86919691579)
(17672788.1550138,10871187.6440205,12208.1567504413)
(17663428.7904762,10859053.0533452,23236.862987551)
(17643263.3492468,10835953.9400748,44943.7833686743)
(17601752.1410117,10791176.2857753,92323.3784368069)
(17520144.4631502,10698876.7566996,196148.248248349)
(17369092.7365489,10502793.3501773,407712.076897)
(17079813.3323722,10095149.8992042,822200.428084719)
(16236008.0367209,9272937.66722701,2044881.69065822)
(13201386.6935662,7228001.03113687,7227848.88061159)
(0,0,0)
(0,0,0)
(0,0,0)
(0,0,0)
(0,0,0)
(0,0,0)
(0,0,0)
(0,0,0)
(0,0,0)
(0,0,0)
(0,0,0)
(0,0,0)
(0,0,0)
(0,0,0)
(0,0,0)
(0,0,0)
(0,0,0)
(0,0,0)
(0,0,0)
(0,0,0)
(0,0,0)
(0,0,0)
(0,0,0)
(0,0,0)
(0,0,0)
(0,0,0)
(0,0,0)
(0,0,0)
(0,0,0)
(0,0,0)
(0,0,0)
(0,0,0)
(0,0,0)
(0,0,0)
(0,0,0)
(0,0,0)
(0,0,0)
(0,0,0)
(0,0,0)
(0,0,0)
(0,0,0)
(0,0,0)
(0,0,0)
(0,0,0)
(0,0,0)
(0,0,0)
(0,0,0)
(0,0,0)
(0,0,0)
(0,0,0)
(0,0,0)
(0,0,0)
(0,0,0)
(0,0,0)
(0,0,0)
(0,0,0)
(0,0,0)
(0,0,0)
(0,0,0)
(0,0,0)
(0,0,0)
(0,0,0)
(0,0,0)
(0,0,0)
(0,0,0)
(0,0,0)
(0,0,0)
(0,0,0)
(0,0,0)
(0,0,0)
(0,0,0)
(0,0,0)
(0,0,0)
(0,0,0)
(0,0,0)
(0,0,0)
(0,0,0)
(0,0,0)
(0,0,0)
(0,0,0)
(0,0,0)
(0,0,0)
(0,0,0)
(0,0,0)
(0,0,0)
(0,0,0)
(0,0,0)
(0,0,0)
(0,0,0)
(0,0,0)
(0,0,0)
(0,0,0)
(0,0,0)
(0,0,0)
(0,0,0)
(0,0,0)
(0,0,0)
(0,0,0)
(0,0,0)
(0,0,0)
(0,0,0)
(0,0,0)
(-464781.574907626,67745.6021369769,56827.9793867061)
(-484008.18694146,63652.2793848936,119541.136971725)
(-527409.176533167,54660.0039309069,194627.882297402)
(-606358.507800701,39261.152631411,289365.574482947)
(-741468.756422733,15871.6951450775,409613.599700977)
(-966852.065621354,-14423.7190711455,549066.166209475)
(-1335508.07751749,-42326.9158994822,651160.672848652)
(-1919030.9888259,-48134.9298152616,484989.559093471)
(-2755802.64662941,-33078.7129989135,-794669.135731864)
(-3378068.02008922,-15131.2207554489,-6725629.63047102)
(0,0,0)
(0,0,0)
(0,0,0)
(0,0,0)
(0,0,0)
(0,0,0)
(-485024.003534291,142126.802864693,52739.1767935603)
(-503894.352403571,134408.298889386,110534.584803604)
(-546843.169859462,117160.79459572,179177.586608337)
(-625877.671940249,86550.8859292235,265950.925672838)
(-763060.424494045,37132.3528385006,379291.851663179)
(-994633.173747608,-33291.148369202,521147.520362608)
(-1371981.412555,-106741.493566054,645296.102432661)
(-1949867.69624689,-119192.053770416,499944.028588566)
(-2771295.32367773,-74027.6763918372,-776839.819317173)
(-3383566.31007701,-30962.9199693041,-6710583.33964309)
(0,0,0)
(0,0,0)
(0,0,0)
(0,0,0)
(0,0,0)
(0,0,0)
(-530301.965784788,229299.150195381,45029.0741422456)
(-548534.605975492,219117.339628976,93270.4344187407)
(-590692.331253979,195913.625126627,148500.195207588)
(-670460.021540609,152859.227002799,216518.078423981)
(-814758.244539423,77293.2748233711,308850.934592434)
(-1070287.32965482,-47284.7502646465,447676.183090832)
(-1493888.38565352,-209266.675652856,632749.964964316)
(-2056612.31426026,-232023.556829491,544937.036290044)
(-2818175.16922072,-118894.644441012,-733974.600718702)
(-3398627.67538928,-41654.7727425835,-6679769.57054114)
(0,0,0)
(0,0,0)
(0,0,0)
(0,0,0)
(0,0,0)
(0,0,0)
(-611303.973908181,333734.45588787,34815.8099060325)
(-628582.824144909,322993.947291946,70001.7604081189)
(-669526.656463275,298467.663487248,105364.476329749)
(-750899.680453842,252027.966065336,140887.567159046)
(-911269.005886058,165444.605079297,184221.763777854)
(-1236916.10303491,95.9654736958198,285665.417967272)
(-1872655.72025431,-292417.792950147,609901.014316872)
(-2405979.09800542,-338360.715460897,657870.600837954)
(-2935582.11596748,-117423.035883313,-656913.866760359)
(-3430877.34896055,-25661.8820321943,-6638228.21176398)
(0,0,0)
(0,0,0)
(0,0,0)
(0,0,0)
(0,0,0)
(0,0,0)
(-747333.167699357,454775.431296794,24097.9920399024)
(-763204.35910993,445591.903088042,45437.6004310674)
(-801855.018856578,425314.21666077,58887.6795305888)
(-883245.523336279,389275.910771014,54301.2565340482)
(-1062644.46560708,329402.198638143,18845.4870389558)
(-1522123.97883143,237872.266518549,-6894.816273556)
(-3024023.81514462,133412.204747154,563857.229335163)
(-3587430.55299117,86136.8667641319,878594.658486125)
(-3165777.72853046,75851.0948651632,-565382.453233687)
(-3483737.54892953,48129.9361074246,-6612749.63558771)
(0,0,0)
(0,0,0)
(0,0,0)
(0,0,0)
(0,0,0)
(0,0,0)
(-971549.195175177,577693.370043937,14944.0652307592)
(-985453.595059533,571231.803414415,25156.712002747)
(-1020092.49644781,557811.49538738,22855.2115900704)
(-1095827.31202098,536214.954167514,-5576.53229215959)
(-1270302.32309624,503855.35549713,-72749.8576784271)
(-1728717.97780642,455489.232587148,-111411.149552523)
(-3157626.7505181,386908.9574668,516519.148299242)
(-3673919.67747267,347696.943531524,868138.251819576)
(-3272889.94751739,251132.164052755,-593334.175918881)
(-3536441.75551001,125096.507818058,-6661121.51699991)
(0,0,0)
(0,0,0)
(0,0,0)
(0,0,0)
(0,0,0)
(0,0,0)
(-1338142.09559167,644203.575873315,8498.18402341445)
(-1349615.81891767,640601.623689445,11742.3064077027)
(-1378772.48890332,634383.212756157,1223.14154856644)
(-1444809.96164715,628208.269134373,-38047.1625482413)
(-1605021.95007153,626822.047451515,-121202.203800766)
(-2053984.12652042,633284.672497454,-180023.502474085)
(-3544511.41595512,634625.768069045,477214.277984263)
(-4021521.71488263,727419.460213863,771442.170337015)
(-3434629.36185923,406560.422633146,-719488.184593539)
(-3623315.98883229,168764.765995908,-6786391.95322985)
(0,0,0)
(0,0,0)
(0,0,0)
(0,0,0)
(0,0,0)
(0,0,0)
(-1923333.50350145,441165.086956514,4885.98126504615)
(-1932014.25026626,439501.04797362,5528.14229068451)
(-1954303.76610527,438232.591723753,-4964.14956738387)
(-2006115.41771676,443778.62665255,-39489.6732658865)
(-2138699.53371746,473143.025894011,-114798.778782441)
(-2550645.57656981,566544.97878008,-178766.19673092)
(-4179023.40546855,766921.886295863,569916.249878406)
(-3405774.30586406,493014.836308792,450465.953283386)
(-3563305.72257791,181827.488435447,-957349.401519162)
(-3757779.68360128,1740.35483464137,-6955247.16480803)
(0,0,0)
(0,0,0)
(0,0,0)
(0,0,0)
(0,0,0)
(0,0,0)
(-2762838.42570164,-860840.035959036,3147.71468862732)
(-2768485.93632098,-862185.145960632,4209.41372535246)
(-2782791.24179238,-863460.200851356,553.378938680386)
(-2814689.38566825,-860902.314515774,-10185.5695469863)
(-2887740.23123904,-847219.144702153,-21466.5827555508)
(-3062433.840552,-815029.964216602,21540.5870958305)
(-3444289.83577097,-791529.064433518,295934.317130396)
(-3569193.38051762,-969124.516208299,139210.17719324)
(-3897349.2592656,-1130078.74992668,-1137450.79347417)
(-3958800.63220465,-982719.932533056,-6956987.92241909)
(0,0,0)
(0,0,0)
(0,0,0)
(0,0,0)
(0,0,0)
(0,0,0)
(-3383492.35452879,-6800776.26257448,1738.45199614757)
(-3386250.44513647,-6802445.79709928,2868.46235647155)
(-3393121.58918869,-6805278.79051366,3068.19075516126)
(-3407879.61605878,-6808284.52399836,3424.12461474339)
(-3439271.5872616,-6811620.40367098,10679.8709283503)
(-3505056.44475761,-6822312.03013472,44993.6038257319)
(-3626595.34410316,-6867324.08154428,118307.460660091)
(-3761770.50727449,-6985653.46102423,-21748.9958058418)
(-3960002.4469396,-6963938.08924887,-990048.413751669)
(-3821467.14717265,-5973948.93350677,-5974134.81296764)
(0,0,0)
(0,0,0)
(0,0,0)
(0,0,0)
(0,0,0)
(0,0,0)
(0,0,0)
(0,0,0)
(0,0,0)
(0,0,0)
(0,0,0)
(0,0,0)
(0,0,0)
(0,0,0)
(0,0,0)
(0,0,0)
(0,0,0)
(0,0,0)
(0,0,0)
(0,0,0)
(0,0,0)
(0,0,0)
(0,0,0)
(0,0,0)
(0,0,0)
(0,0,0)
(0,0,0)
(0,0,0)
(0,0,0)
(0,0,0)
(0,0,0)
(0,0,0)
(0,0,0)
(0,0,0)
(0,0,0)
(0,0,0)
(0,0,0)
(0,0,0)
(0,0,0)
(0,0,0)
(0,0,0)
(0,0,0)
(0,0,0)
(0,0,0)
(0,0,0)
(0,0,0)
(0,0,0)
(0,0,0)
(0,0,0)
(0,0,0)
(0,0,0)
(0,0,0)
(0,0,0)
(0,0,0)
(0,0,0)
(0,0,0)
(0,0,0)
(0,0,0)
(0,0,0)
(0,0,0)
(0,0,0)
(0,0,0)
(0,0,0)
(0,0,0)
(0,0,0)
(0,0,0)
(0,0,0)
(0,0,0)
(0,0,0)
(0,0,0)
(0,0,0)
(0,0,0)
(0,0,0)
(0,0,0)
(0,0,0)
(0,0,0)
(0,0,0)
(0,0,0)
(0,0,0)
(0,0,0)
(0,0,0)
(0,0,0)
(0,0,0)
(0,0,0)
(0,0,0)
(0,0,0)
(0,0,0)
(0,0,0)
(0,0,0)
(0,0,0)
(0,0,0)
(0,0,0)
(0,0,0)
(0,0,0)
(0,0,0)
(0,0,0)
(0,0,0)
(0,0,0)
(0,0,0)
(0,0,0)
(0,0,0)
(0,0,0)
(-549868.509980219,47445.4360149095,37641.4990576838)
(-566149.985728273,43663.8473330801,76119.4505114167)
(-602002.187774539,35120.0274180303,115592.434334761)
(-664543.079134724,19659.7508539536,154117.254814829)
(-765508.480861962,-5776.4947624477,183933.474016507)
(-920733.851211259,-42212.4437847461,180027.703391161)
(-1143902.40984481,-78753.803638137,67175.8393566133)
(-1420672.39274916,-78911.4333984917,-352271.323321638)
(-1642045.81468731,-48512.7736345452,-1417515.38162919)
(-1426815.93850753,-20575.419053897,-3348192.04415699)
(0,0,0)
(0,0,0)
(0,0,0)
(0,0,0)
(0,0,0)
(0,0,0)
(-568254.561180065,96814.0985184655,33861.8951422183)
(-583597.343595728,89689.1777956945,67539.5558717576)
(-617445.035540646,73212.0003173969,100049.448653574)
(-676662.310046399,41861.1789176556,128632.658696021)
(-773032.780534209,-14649.1058388894,147477.625812626)
(-923843.974031553,-108959.641673489,143435.62398532)
(-1145619.31090018,-228611.977146803,66931.6958391652)
(-1414009.12941984,-225876.481464903,-321961.822921469)
(-1631226.534786,-120844.275052874,-1389699.11039487)
(-1420159.19053384,-45966.1687889058,-3327715.48020305)
(0,0,0)
(0,0,0)
(0,0,0)
(0,0,0)
(0,0,0)
(0,0,0)
(-608570.881702261,148306.644740887,26776.3696950537)
(-622165.957606783,139053.796938632,51043.102183403)
(-652061.329128243,117026.828848532,68597.2715265302)
(-704417.137169257,72338.1731198623,72077.392952975)
(-791163.112275301,-19305.5126281902,53138.6674781518)
(-935885.146555104,-213954.322147475,23731.1648524184)
(-1180351.61644207,-587966.588588893,69549.0070830631)
(-1414580.53095834,-581258.263523981,-217100.994159775)
(-1604902.50422587,-236197.201686148,-1315020.73252136)
(-1403873.79126023,-73845.5816959686,-3281895.20374336)
(0,0,0)
(0,0,0)
(0,0,0)
(0,0,0)
(0,0,0)
(0,0,0)
(-678190.805987537,197656.566805033,17536.9100152133)
(-689310.630924955,188325.706613631,28992.8071202624)
(-713417.085859309,166060.6924842,23849.3728806296)
(-754682.528099105,119606.201771003,-19635.8081252486)
(-822655.90636194,14021.1588028571,-141575.579080408)
(-957030.293950357,-285084.345493602,-350331.364818842)
(-1443440.87854631,-1443651.82914911,76139.0340333675)
(-1519205.34336755,-1519644.01794225,127751.033813766)
(-1543700.34670364,-347473.193148928,-1152854.74398729)
(-1370989.48660461,-78426.7466931365,-3208161.44134605)
(0,0,0)
(0,0,0)
(0,0,0)
(0,0,0)
(0,0,0)
(0,0,0)
(-788335.529131131,230433.714688103,8225.21354870316)
(-796552.551882685,223217.993536714,6681.11939837397)
(-813410.639895183,206950.466812633,-22653.0338914533)
(-837690.573982133,176623.674205088,-125225.455679684)
(-854867.959763721,121739.444732202,-440720.247452386)
(-770317.444947022,31355.0307461652,-1508966.15757656)
(6.71366668770949e-05,1.73711351613022e-05,-4.35314538719282e-05)