/*--------------------------------*- C++ -*----------------------------------*\
| =========                 |                                                 |
| \\      /  F ield         | foam-extend: Open Source Cstd::filesystem::create_directory();FD                    |
|  \\    /   O peration     | Version:     4.0                                |
|   \\  /    A nd           | Web:         http://www.foam-extend.org         |
|    \\/     M anipulation  |                                                 |
\*---------------------------------------------------------------------------*/
FoamFile
{
    version 2.0;
    format ascii;
    class volVectorField;
    location "Data/896";
    object      H;
}
// * * * * * * * * * * * * * * * * * * * * * * * * * * * * * * * * * * * * * //

dimensions      [0 1 -1 0 0 0 0];

internalField   nonuniform List<vector>
4096
(
(0,0,0)
(0,0,0)
(0,0,0)
(0,0,0)
(0,0,0)
(0,0,0)
(0,0,0)
(0,0,0)
(0,0,0)
(0,0,0)
(0,0,0)
(0,0,0)
(0,0,0)
(0,0,0)
(0,0,0)
(0,0,0)
(0,0,0)
(0,0,0)
(0,0,0)
(0,0,0)
(0,0,0)
(0,0,0)
(0,0,0)
(0,0,0)
(0,0,0)
(0,0,0)
(0,0,0)
(0,0,0)
(0,0,0)
(0,0,0)
(0,0,0)
(0,0,0)
(0,0,0)
(0,0,0)
(0,0,0)
(0,0,0)
(0,0,0)
(0,0,0)
(0,0,0)
(0,0,0)
(0,0,0)
(0,0,0)
(0,0,0)
(0,0,0)
(0,0,0)
(0,0,0)
(0,0,0)
(0,0,0)
(0,0,0)
(0,0,0)
(0,0,0)
(0,0,0)
(0,0,0)
(0,0,0)
(0,0,0)
(0,0,0)
(0,0,0)
(0,0,0)
(0,0,0)
(0,0,0)
(0,0,0)
(0,0,0)
(0,0,0)
(0,0,0)
(0,0,0)
(0,0,0)
(0,0,0)
(0,0,0)
(0,0,0)
(0,0,0)
(0,0,0)
(0,0,0)
(0,0,0)
(0,0,0)
(0,0,0)
(0,0,0)
(0,0,0)
(0,0,0)
(0,0,0)
(0,0,0)
(0,0,0)
(0,0,0)
(0,0,0)
(0,0,0)
(0,0,0)
(0,0,0)
(0,0,0)
(0,0,0)
(0,0,0)
(0,0,0)
(0,0,0)
(0,0,0)
(0,0,0)
(0,0,0)
(0,0,0)
(0,0,0)
(0,0,0)
(0,0,0)
(0,0,0)
(0,0,0)
(0,0,0)
(0,0,0)
(0,0,0)
(0,0,0)
(0,0,0)
(0,0,0)
(0,0,0)
(0,0,0)
(0,0,0)
(0,0,0)
(0,0,0)
(0,0,0)
(0,0,0)
(0,0,0)
(0,0,0)
(0,0,0)
(0,0,0)
(0,0,0)
(0,0,0)
(0,0,0)
(0,0,0)
(0,0,0)
(0,0,0)
(0,0,0)
(0,0,0)
(0,0,0)
(0,0,0)
(0,0,0)
(0,0,0)
(0,0,0)
(0,0,0)
(0,0,0)
(0,0,0)
(0,0,0)
(0,0,0)
(0,0,0)
(0,0,0)
(0,0,0)
(0,0,0)
(0,0,0)
(0,0,0)
(0,0,0)
(0,0,0)
(0,0,0)
(0,0,0)
(0,0,0)
(0,0,0)
(0,0,0)
(0,0,0)
(0,0,0)
(0,0,0)
(0,0,0)
(0,0,0)
(0,0,0)
(0,0,0)
(0,0,0)
(0,0,0)
(0,0,0)
(0,0,0)
(0,0,0)
(0,0,0)
(0,0,0)
(0,0,0)
(0,0,0)
(0,0,0)
(0,0,0)
(0,0,0)
(0,0,0)
(0,0,0)
(0,0,0)
(0,0,0)
(0,0,0)
(0,0,0)
(0,0,0)
(0,0,0)
(0,0,0)
(0,0,0)
(0,0,0)
(0,0,0)
(0,0,0)
(0,0,0)
(0,0,0)
(0,0,0)
(0,0,0)
(0,0,0)
(0,0,0)
(0,0,0)
(0,0,0)
(0,0,0)
(0,0,0)
(0,0,0)
(0,0,0)
(0,0,0)
(0,0,0)
(0,0,0)
(0,0,0)
(0,0,0)
(0,0,0)
(0,0,0)
(0,0,0)
(0,0,0)
(0,0,0)
(0,0,0)
(0,0,0)
(0,0,0)
(0,0,0)
(0,0,0)
(0,0,0)
(0,0,0)
(0,0,0)
(0,0,0)
(0,0,0)
(0,0,0)
(0,0,0)
(0,0,0)
(0,0,0)
(0,0,0)
(0,0,0)
(0,0,0)
(0,0,0)
(0,0,0)
(0,0,0)
(0,0,0)
(0,0,0)
(0,0,0)
(0,0,0)
(0,0,0)
(0,0,0)
(0,0,0)
(0,0,0)
(0,0,0)
(0,0,0)
(0,0,0)
(0,0,0)
(0,0,0)
(0,0,0)
(0,0,0)
(0,0,0)
(0,0,0)
(0,0,0)
(0,0,0)
(0,0,0)
(0,0,0)
(0,0,0)
(0,0,0)
(0,0,0)
(0,0,0)
(0,0,0)
(0,0,0)
(0,0,0)
(0,0,0)
(0,0,0)
(0,0,0)
(0,0,0)
(0,0,0)
(0,0,0)
(0,0,0)
(0,0,0)
(0,0,0)
(0,0,0)
(0,0,0)
(0,0,0)
(0,0,0)
(0,0,0)
(0,0,0)
(0,0,0)
(0,0,0)
(0,0,0)
(0,0,0)
(0,0,0)
(0,0,0)
(0,0,0)
(0,0,0)
(0,0,0)
(0,0,0)
(0,0,0)
(0,0,0)
(0,0,0)
(0,0,0)
(0,0,0)
(0,0,0)
(0,0,0)
(0,0,0)
(0,0,0)
(0,0,0)
(0,0,0)
(0,0,0)
(0,0,0)
(0,0,0)
(0,0,0)
(0,0,0)
(0,0,0)
(0,0,0)
(0,0,0)
(0,0,0)
(0,0,0)
(0,0,0)
(0,0,0)
(0,0,0)
(0,0,0)
(0,0,0)
(0,0,0)
(0,0,0)
(0,0,0)
(0,0,0)
(0,0,0)
(0,0,0)
(0,0,0)
(0,0,0)
(0,0,0)
(0,0,0)
(0,0,0)
(0,0,0)
(0,0,0)
(0,0,0)
(0,0,0)
(0,0,0)
(0,0,0)
(0,0,0)
(0,0,0)
(0,0,0)
(0,0,0)
(0,0,0)
(0,0,0)
(0,0,0)
(0,0,0)
(0,0,0)
(0,0,0)
(0,0,0)
(0,0,0)
(0,0,0)
(0,0,0)
(0,0,0)
(0,0,0)
(0,0,0)
(0,0,0)
(0,0,0)
(0,0,0)
(0,0,0)
(0,0,0)
(0,0,0)
(0,0,0)
(0,0,0)
(0,0,0)
(0,0,0)
(0,0,0)
(0,0,0)
(0,0,0)
(0,0,0)
(0,0,0)
(0,0,0)
(0,0,0)
(0,0,0)
(0,0,0)
(0,0,0)
(0,0,0)
(0,0,0)
(0,0,0)
(0,0,0)
(0,0,0)
(0,0,0)
(0,0,0)
(0,0,0)
(0,0,0)
(0,0,0)
(0,0,0)
(0,0,0)
(0,0,0)
(0,0,0)
(0,0,0)
(0,0,0)
(0,0,0)
(0,0,0)
(0,0,0)
(0,0,0)
(0,0,0)
(0,0,0)
(0,0,0)
(0,0,0)
(0,0,0)
(0,0,0)
(0,0,0)
(0,0,0)
(0,0,0)
(0,0,0)
(0,0,0)
(0,0,0)
(0,0,0)
(0,0,0)
(0,0,0)
(0,0,0)
(0,0,0)
(0,0,0)
(0,0,0)
(0,0,0)
(0,0,0)
(0,0,0)
(0,0,0)
(0,0,0)
(0,0,0)
(0,0,0)
(0,0,0)
(0,0,0)
(0,0,0)
(0,0,0)
(0,0,0)
(0,0,0)
(0,0,0)
(0,0,0)
(0,0,0)
(0,0,0)
(0,0,0)
(0,0,0)
(0,0,0)
(0,0,0)
(0,0,0)
(0,0,0)
(0,0,0)
(0,0,0)
(0,0,0)
(0,0,0)
(0,0,0)
(0,0,0)
(0,0,0)
(0,0,0)
(0,0,0)
(0,0,0)
(0,0,0)
(0,0,0)
(0,0,0)
(0,0,0)
(0,0,0)
(0,0,0)
(0,0,0)
(0,0,0)
(0,0,0)
(0,0,0)
(0,0,0)
(0,0,0)
(0,0,0)
(0,0,0)
(0,0,0)
(0,0,0)
(0,0,0)
(0,0,0)
(0,0,0)
(0,0,0)
(0,0,0)
(0,0,0)
(0,0,0)
(0,0,0)
(0,0,0)
(0,0,0)
(0,0,0)
(0,0,0)
(0,0,0)
(0,0,0)
(0,0,0)
(0,0,0)
(0,0,0)
(0,0,0)
(0,0,0)
(0,0,0)
(0,0,0)
(0,0,0)
(0,0,0)
(0,0,0)
(0,0,0)
(0,0,0)
(0,0,0)
(0,0,0)
(0,0,0)
(0,0,0)
(0,0,0)
(0,0,0)
(0,0,0)
(0,0,0)
(0,0,0)
(0,0,0)
(0,0,0)
(0,0,0)
(0,0,0)
(0,0,0)
(0,0,0)
(0,0,0)
(0,0,0)
(0,0,0)
(0,0,0)
(0,0,0)
(0,0,0)
(0,0,0)
(0,0,0)
(0,0,0)
(0,0,0)
(0,0,0)
(0,0,0)
(0,0,0)
(0,0,0)
(0,0,0)
(0,0,0)
(0,0,0)
(0,0,0)
(0,0,0)
(0,0,0)
(0,0,0)
(0,0,0)
(0,0,0)
(0,0,0)
(0,0,0)
(0,0,0)
(0,0,0)
(0,0,0)
(0,0,0)
(0,0,0)
(0,0,0)
(0,0,0)
(0,0,0)
(0,0,0)
(0,0,0)
(0,0,0)
(0,0,0)
(0,0,0)
(0,0,0)
(0,0,0)
(0,0,0)
(0,0,0)
(0,0,0)
(0,0,0)
(0,0,0)
(0,0,0)
(0,0,0)
(0,0,0)
(0,0,0)
(0,0,0)
(0,0,0)
(0,0,0)
(0,0,0)
(0,0,0)
(0,0,0)
(0,0,0)
(0,0,0)
(0,0,0)
(0,0,0)
(0,0,0)
(0,0,0)
(0,0,0)
(0,0,0)
(0,0,0)
(0,0,0)
(0,0,0)
(0,0,0)
(0,0,0)
(0,0,0)
(0,0,0)
(0,0,0)
(0,0,0)
(0,0,0)
(0,0,0)
(0,0,0)
(0,0,0)
(0,0,0)
(0,0,0)
(0,0,0)
(0,0,0)
(0,0,0)
(0,0,0)
(0,0,0)
(0,0,0)
(0,0,0)
(0,0,0)
(0,0,0)
(0,0,0)
(0,0,0)
(0,0,0)
(0,0,0)
(0,0,0)
(0,0,0)
(0,0,0)
(0,0,0)
(0,0,0)
(0,0,0)
(0,0,0)
(0,0,0)
(0,0,0)
(0,0,0)
(0,0,0)
(0,0,0)
(0,0,0)
(0,0,0)
(0,0,0)
(0,0,0)
(0,0,0)
(0,0,0)
(0,0,0)
(0,0,0)
(0,0,0)
(0,0,0)
(0,0,0)
(0,0,0)
(0,0,0)
(0,0,0)
(0,0,0)
(0,0,0)
(0,0,0)
(0,0,0)
(0,0,0)
(0,0,0)
(0,0,0)
(0,0,0)
(0,0,0)
(0,0,0)
(0,0,0)
(0,0,0)
(0,0,0)
(0,0,0)
(0,0,0)
(0,0,0)
(0,0,0)
(0,0,0)
(0,0,0)
(0,0,0)
(0,0,0)
(0,0,0)
(0,0,0)
(0,0,0)
(0,0,0)
(0,0,0)
(0,0,0)
(0,0,0)
(0,0,0)
(0,0,0)
(0,0,0)
(0,0,0)
(0,0,0)
(0,0,0)
(0,0,0)
(0,0,0)
(0,0,0)
(0,0,0)
(0,0,0)
(0,0,0)
(0,0,0)
(0,0,0)
(0,0,0)
(0,0,0)
(0,0,0)
(0,0,0)
(0,0,0)
(0,0,0)
(0,0,0)
(0,0,0)
(0,0,0)
(0,0,0)
(0,0,0)
(0,0,0)
(0,0,0)
(0,0,0)
(0,0,0)
(0,0,0)
(0,0,0)
(0,0,0)
(0,0,0)
(0,0,0)
(0,0,0)
(0,0,0)
(0,0,0)
(0,0,0)
(0,0,0)
(0,0,0)
(0,0,0)
(0,0,0)
(0,0,0)
(0,0,0)
(0,0,0)
(0,0,0)
(0,0,0)
(0,0,0)
(0,0,0)
(0,0,0)
(0,0,0)
(0,0,0)
(0,0,0)
(0,0,0)
(0,0,0)
(0,0,0)
(0,0,0)
(0,0,0)
(0,0,0)
(0,0,0)
(0,0,0)
(0,0,0)
(0,0,0)
(0,0,0)
(0,0,0)
(0,0,0)
(0,0,0)
(0,0,0)
(0,0,0)
(0,0,0)
(0,0,0)
(0,0,0)
(0,0,0)
(0,0,0)
(0,0,0)
(0,0,0)
(0,0,0)
(0,0,0)
(0,0,0)
(0,0,0)
(0,0,0)
(0,0,0)
(0,0,0)
(0,0,0)
(0,0,0)
(0,0,0)
(0,0,0)
(0,0,0)
(0,0,0)
(0,0,0)
(0,0,0)
(0,0,0)
(0,0,0)
(0,0,0)
(0,0,0)
(0,0,0)
(0,0,0)
(0,0,0)
(0,0,0)
(0,0,0)
(0,0,0)
(0,0,0)
(0,0,0)
(0,0,0)
(0,0,0)
(0,0,0)
(0,0,0)
(0,0,0)
(0,0,0)
(0,0,0)
(0,0,0)
(0,0,0)
(0,0,0)
(0,0,0)
(0,0,0)
(0,0,0)
(0,0,0)
(0,0,0)
(0,0,0)
(0,0,0)
(0,0,0)
(0,0,0)
(0,0,0)
(0,0,0)
(0,0,0)
(0,0,0)
(0,0,0)
(0,0,0)
(0,0,0)
(0,0,0)
(0,0,0)
(0,0,0)
(0,0,0)
(0,0,0)
(0,0,0)
(0,0,0)
(0,0,0)
(0,0,0)
(0,0,0)
(0,0,0)
(0,0,0)
(0,0,0)
(0,0,0)
(0,0,0)
(0,0,0)
(0,0,0)
(0,0,0)
(0,0,0)
(0,0,0)
(0,0,0)
(0,0,0)
(0,0,0)
(0,0,0)
(0,0,0)
(0,0,0)
(0,0,0)
(0,0,0)
(0,0,0)
(0,0,0)
(0,0,0)
(0,0,0)
(0,0,0)
(0,0,0)
(0,0,0)
(0,0,0)
(0,0,0)
(0,0,0)
(0,0,0)
(0,0,0)
(0,0,0)
(0,0,0)
(0,0,0)
(0,0,0)
(0,0,0)
(0,0,0)
(0,0,0)
(0,0,0)
(0,0,0)
(0,0,0)
(0,0,0)
(0,0,0)
(0,0,0)
(0,0,0)
(0,0,0)
(0,0,0)
(0,0,0)
(0,0,0)
(0,0,0)
(0,0,0)
(0,0,0)
(1.32105103844923e-12,-1.29011756651595e-11,1.20008250768148e-11)
(1.31028875283871e-12,-2.70894239846134e-11,1.12679392151126e-11)
(1.22900414640424e-12,-4.31391232177004e-11,1.01415563247689e-11)
(1.6878455536382e-12,-6.4400047971694e-11,8.47869766979022e-12)
(2.18294632147141e-12,-9.70838829777955e-11,6.38548608930861e-12)
(2.7857762310141e-12,-1.49446784622674e-10,3.80452586733354e-12)
(4.26330985828344e-12,-2.34058246217266e-10,1.79454660088939e-12)
(5.53335451808716e-12,-3.7448470425658e-10,8.35017976865313e-13)
(6.60362329113971e-12,-6.08149508156974e-10,1.39774383761441e-13)
(7.79554263990277e-12,-9.33884615408283e-10,-1.08968710845471e-13)
(0,0,0)
(0,0,0)
(0,0,0)
(0,0,0)
(0,0,0)
(0,0,0)
(2.3729141344314e-12,-1.24119443212091e-11,2.38922043073707e-11)
(2.94103594294382e-12,-2.60271934278166e-11,2.29061420339784e-11)
(3.77492363982437e-12,-4.15407235279783e-11,2.09593578626654e-11)
(4.01104735413108e-12,-6.23302357678273e-11,1.82518948703757e-11)
(4.0520136003433e-12,-9.47393049850714e-11,1.47453998178092e-11)
(4.84448777373917e-12,-1.47629541774659e-10,1.00736558818265e-11)
(7.46472062660461e-12,-2.33309811169048e-10,5.92376594632568e-12)
(9.68770936455633e-12,-3.74418227972726e-10,3.3897734056032e-12)
(1.03713753698813e-11,-6.08493930892198e-10,1.85783824119701e-12)
(1.17960018154318e-11,-9.33671845466449e-10,7.86114937859521e-13)
(0,0,0)
(0,0,0)
(0,0,0)
(0,0,0)
(0,0,0)
(0,0,0)
(3.0802176148577e-12,-1.15418650582858e-11,3.94150313570076e-11)
(4.26392908170438e-12,-2.36588921191054e-11,3.81690930094285e-11)
(5.76055237890054e-12,-3.80780982668473e-11,3.53807548130698e-11)
(6.372962787568e-12,-5.80906717143057e-11,3.14767215276192e-11)
(6.76606211355657e-12,-8.99536587175581e-11,2.62573873989612e-11)
(7.85715208167038e-12,-1.43332915604755e-10,2.0059089385819e-11)
(1.07632935338862e-11,-2.30568248296784e-10,1.4173165426823e-11)
(1.41076086463272e-11,-3.73505733868951e-10,1.00604724239811e-11)
(1.44905100682518e-11,-6.08300290442724e-10,7.16928528841938e-12)
(1.44741835214695e-11,-9.33046361780499e-10,3.79286213849301e-12)
(0,0,0)
(0,0,0)
(0,0,0)
(0,0,0)
(0,0,0)
(0,0,0)
(3.41345428178279e-12,-9.82186874982831e-12,6.14317679270926e-11)
(5.12910541500863e-12,-1.99746178610307e-11,6.01740446740491e-11)
(6.71908795404065e-12,-3.28823403133188e-11,5.70225489607587e-11)
(7.2757498829072e-12,-5.16210880583558e-11,5.2513694863598e-11)
(7.94453542355912e-12,-8.25945941250759e-11,4.62477637587037e-11)
(9.93556482956763e-12,-1.35961579901018e-10,3.89022673103951e-11)
(1.33806377008808e-11,-2.2509452907343e-10,3.11527237727569e-11)
(1.71677555952321e-11,-3.70630894876534e-10,2.42103387066154e-11)
(1.75295631393259e-11,-6.05480600054814e-10,1.75690262318916e-11)
(1.72571535923827e-11,-9.2984989469594e-10,9.39227422605905e-12)
(0,0,0)
(0,0,0)
(0,0,0)
(0,0,0)
(0,0,0)
(0,0,0)
(3.03400009686639e-12,-7.66956122345987e-12,9.47693124605068e-11)
(5.00486258396392e-12,-1.5784456227072e-11,9.32349795473028e-11)
(6.8009326070484e-12,-2.69180160090537e-11,8.99750508837233e-11)
(7.7386448576783e-12,-4.38381205513834e-11,8.56515697532795e-11)
(9.42693375930449e-12,-7.30416847592287e-11,7.96698514877689e-11)
(1.20070377408992e-11,-1.25029695142142e-10,7.23505983782699e-11)
(1.60790162736651e-11,-2.15434327356603e-10,6.38670815770385e-11)
(1.96648131043997e-11,-3.6373104406864e-10,5.17654446940516e-11)
(2.07664223659128e-11,-5.98211580389786e-10,3.71704339928808e-11)
(2.0690930514043e-11,-9.21911350605582e-10,1.96845771756136e-11)
(0,0,0)
(0,0,0)
(0,0,0)
(0,0,0)
(0,0,0)
(0,0,0)
(2.62078936921458e-12,-5.31003691517189e-12,1.45255031199559e-10)
(4.82315980544706e-12,-1.15876752073388e-11,1.43980032926792e-10)
(6.11893065404398e-12,-2.1199572966347e-11,1.41372136747054e-10)
(7.35671444503914e-12,-3.5974090980611e-11,1.3781003213852e-10)
(1.02193404952209e-11,-6.25716249078007e-11,1.32750311091962e-10)
(1.34060730210356e-11,-1.12620563403755e-10,1.25226079958582e-10)
(1.74576094879358e-11,-2.03310804817286e-10,1.13895335448872e-10)
(2.08626534330437e-11,-3.5031211104835e-10,9.54481822332159e-11)
(2.25397963954362e-11,-5.82194230571687e-10,6.95644860641348e-11)
(2.31802969038143e-11,-9.03907306490086e-10,3.6951103709058e-11)
(0,0,0)
(0,0,0)
(0,0,0)
(0,0,0)
(0,0,0)
(0,0,0)
(1.84523399976005e-12,-3.46278500682515e-12,2.26887022055581e-10)
(3.69359246684366e-12,-8.23401545039095e-12,2.26244051366058e-10)
(4.88972138098564e-12,-1.66219066298268e-11,2.24312085736045e-10)
(6.80792328652481e-12,-2.93047831447153e-11,2.20963809733132e-10)
(9.75892993347105e-12,-5.2433551908525e-11,2.16211422613784e-10)
(1.32082934156335e-11,-9.82606152098162e-11,2.07768859209322e-10)
(1.68402650674625e-11,-1.85200480761989e-10,1.91614596543012e-10)
(2.06859567115934e-11,-3.25544051733734e-10,1.65228344253538e-10)
(2.35889455726916e-11,-5.50755686535288e-10,1.2357818803574e-10)
(2.57588870964958e-11,-8.67960295036138e-10,6.71349243234904e-11)
(0,0,0)
(0,0,0)
(0,0,0)
(0,0,0)
(0,0,0)
(0,0,0)
(1.19194050157e-12,-2.7783269751018e-12,3.64857203050461e-10)
(2.70905856135986e-12,-5.88760822750358e-12,3.63948595727444e-10)
(3.85914706490443e-12,-1.27584973313226e-11,3.62482699030651e-10)
(6.22570473527906e-12,-2.36976626377119e-11,3.59323822460071e-10)
(9.02330283298824e-12,-4.37921957776031e-11,3.5393592230158e-10)
(1.2255992681891e-11,-8.40357667235053e-11,3.43564648502278e-10)
(1.60211758027124e-11,-1.59615710378902e-10,3.22474668586745e-10)
(2.04364667854372e-11,-2.84360987419295e-10,2.8294024105347e-10)
(2.3780791623454e-11,-4.94298054140132e-10,2.18613072784636e-10)
(2.58799937691809e-11,-7.99994636594523e-10,1.23857593989945e-10)
(0,0,0)
(0,0,0)
(0,0,0)
(0,0,0)
(0,0,0)
(0,0,0)
(1.00368801059253e-12,-2.20649518275684e-12,5.96514145577574e-10)
(2.90666785135039e-12,-4.09713463165525e-12,5.95256572148781e-10)
(3.91453425098469e-12,-9.02149741237149e-12,5.93744951423097e-10)
(5.59992016586324e-12,-1.72249717924438e-11,5.90202527832877e-10)
(8.17971046327155e-12,-3.25699256747189e-11,5.83099395462125e-10)
(1.16521187325693e-11,-6.31187826613581e-11,5.6927391642729e-10)
(1.55697211570429e-11,-1.19888179099814e-10,5.4148385415948e-10)
(1.96622996363534e-11,-2.19115109748453e-10,4.8803244190782e-10)
(2.38023110383717e-11,-3.98038552982377e-10,3.94091737049295e-10)
(2.57667407277017e-11,-6.74255006515874e-10,2.36883014386031e-10)
(0,0,0)
(0,0,0)
(0,0,0)
(0,0,0)
(0,0,0)
(0,0,0)
(7.6711759350548e-13,-1.25473776854636e-12,9.21004819980516e-10)
(3.49653349127075e-12,-2.07540893293108e-12,9.19516358761855e-10)
(4.80433542502703e-12,-4.64281234687169e-12,9.18019722016458e-10)
(6.14698613624996e-12,-9.03128372594786e-12,9.14307770109707e-10)
(8.04928558162244e-12,-1.75142492770244e-11,9.06193376151894e-10)
(1.176742368967e-11,-3.44653125122781e-11,8.89768184653141e-10)
(1.64708124652587e-11,-6.56443296766237e-11,8.56739249641698e-10)
(1.9425752235185e-11,-1.23793421079261e-10,7.92532062120867e-10)
(2.3180151917392e-11,-2.38668362177185e-10,6.70123656022952e-10)
(2.45679304492249e-11,-4.35191018549523e-10,4.33336636180149e-10)
(0,0,0)
(0,0,0)
(0,0,0)
(0,0,0)
(0,0,0)
(0,0,0)
(0,0,0)
(0,0,0)
(0,0,0)
(0,0,0)
(0,0,0)
(0,0,0)
(0,0,0)
(0,0,0)
(0,0,0)
(0,0,0)
(0,0,0)
(0,0,0)
(0,0,0)
(0,0,0)
(0,0,0)
(0,0,0)
(0,0,0)
(0,0,0)
(0,0,0)
(0,0,0)
(0,0,0)
(0,0,0)
(0,0,0)
(0,0,0)
(0,0,0)
(0,0,0)
(0,0,0)
(0,0,0)
(0,0,0)
(0,0,0)
(0,0,0)
(0,0,0)
(0,0,0)
(0,0,0)
(0,0,0)
(0,0,0)
(0,0,0)
(0,0,0)
(0,0,0)
(0,0,0)
(0,0,0)
(0,0,0)
(0,0,0)
(0,0,0)
(0,0,0)
(0,0,0)
(0,0,0)
(0,0,0)
(0,0,0)
(0,0,0)
(0,0,0)
(0,0,0)
(0,0,0)
(0,0,0)
(0,0,0)
(0,0,0)
(0,0,0)
(0,0,0)
(0,0,0)
(0,0,0)
(0,0,0)
(0,0,0)
(0,0,0)
(0,0,0)
(0,0,0)
(0,0,0)
(0,0,0)
(0,0,0)
(0,0,0)
(0,0,0)
(0,0,0)
(0,0,0)
(0,0,0)
(0,0,0)
(0,0,0)
(0,0,0)
(0,0,0)
(0,0,0)
(0,0,0)
(0,0,0)
(0,0,0)
(0,0,0)
(0,0,0)
(0,0,0)
(0,0,0)
(0,0,0)
(0,0,0)
(0,0,0)
(0,0,0)
(0,0,0)
(0,0,0)
(0,0,0)
(0,0,0)
(0,0,0)
(0,0,0)
(0,0,0)
(1.56470555620509e-12,-2.4686998061713e-11,2.17672135503998e-11)
(1.37444108638153e-12,-5.02138438761641e-11,2.03178324494486e-11)
(1.2934631116605e-12,-7.90593972171229e-11,1.80374325431461e-11)
(1.71124493024056e-12,-1.18141518018318e-10,1.46079895606814e-11)
(2.41932855072084e-12,-1.77847050981948e-10,1.03360873287579e-11)
(2.97851264950596e-12,-2.69332724548668e-10,5.26693103575286e-12)
(4.47440343418334e-12,-4.13630325557502e-10,1.18382231993122e-12)
(6.16212182710736e-12,-6.57867087006925e-10,-6.78862723436829e-13)
(7.19678912085418e-12,-1.12337275439607e-09,-1.14976004353582e-12)
(7.47380398667267e-12,-2.189632608461e-09,-8.88215329498343e-13)
(0,0,0)
(0,0,0)
(0,0,0)
(0,0,0)
(0,0,0)
(0,0,0)
(2.48889714489998e-12,-2.32864975971128e-11,4.45831111544275e-11)
(2.51951880555028e-12,-4.77317668685542e-11,4.25025961089879e-11)
(3.01976137098953e-12,-7.5573922401218e-11,3.85795871429604e-11)
(3.27797835317058e-12,-1.13700020930033e-10,3.26591402100307e-11)
(3.9381112688221e-12,-1.72353564700499e-10,2.47676878456912e-11)
(4.69775153935161e-12,-2.64657094271662e-10,1.47604718145298e-11)
(7.25715029504757e-12,-4.11445147322333e-10,5.59377304012421e-12)
(1.03071504252808e-11,-6.57259533734123e-10,1.34934414169266e-12)
(1.12494582241498e-11,-1.12353660643467e-09,4.45350985892687e-13)
(1.19566330675483e-11,-2.18975029611456e-09,2.2808323395875e-13)
(0,0,0)
(0,0,0)
(0,0,0)
(0,0,0)
(0,0,0)
(0,0,0)
(2.60615965398037e-12,-2.0994928146757e-11,7.3789608814082e-11)
(3.36799301998897e-12,-4.30146052554139e-11,7.1183396532726e-11)
(4.46882771083078e-12,-6.86870114482172e-11,6.56576221121236e-11)
(5.12271326027574e-12,-1.04810806480866e-10,5.75292606927396e-11)
(5.60529553416765e-12,-1.61661711227968e-10,4.62503786560318e-11)
(6.3717403368814e-12,-2.54755406073601e-10,3.17940642483067e-11)
(9.40226731331938e-12,-4.0645917068149e-10,1.72755874943686e-11)
(1.41239567894698e-11,-6.5675725500222e-10,1.04472648337101e-11)
(1.50472428301292e-11,-1.12418828176833e-09,7.83378043420483e-12)
(1.50705785752673e-11,-2.18994726738932e-09,4.5299236207398e-12)
(0,0,0)
(0,0,0)
(0,0,0)
(0,0,0)
(0,0,0)
(0,0,0)
(2.51887000845695e-12,-1.76710572393463e-11,1.1414603554723e-10)
(4.09043949434042e-12,-3.63460688300729e-11,1.11586342546234e-10)
(5.26361774692985e-12,-5.89322979957105e-11,1.05207930643349e-10)
(5.7587134808322e-12,-9.15941773908058e-11,9.57736572076443e-11)
(5.73712250601015e-12,-1.4520172229378e-10,8.25353295373438e-11)
(6.75322360835496e-12,-2.3774641075069e-10,6.55320634428653e-11)
(1.06628210501428e-11,-3.96411985742381e-10,4.66502182457263e-11)
(1.69092172619945e-11,-6.54872391330447e-10,3.53770981475612e-11)
(1.84372954803261e-11,-1.12284361726376e-09,2.61969832677221e-11)
(1.87108837281497e-11,-2.1874612615188e-09,1.43634930430217e-11)
(0,0,0)
(0,0,0)
(0,0,0)
(0,0,0)
(0,0,0)
(0,0,0)
(2.20880870178191e-12,-1.38875190519811e-11,1.73002354923327e-10)
(4.06801022780762e-12,-2.87378114800136e-11,1.70371851665723e-10)
(5.40597069478107e-12,-4.76971268703135e-11,1.64129638145514e-10)
(5.85633355242272e-12,-7.57351571277148e-11,1.5525149006599e-10)
(6.27612701740014e-12,-1.23960051773156e-10,1.43144721207021e-10)
(8.08142280369884e-12,-2.11964771946885e-10,1.28910093424561e-10)
(1.60571306173832e-11,-3.75360551080715e-10,1.1570985272098e-10)
(2.08408907853379e-11,-6.4675467799556e-10,9.09125489236702e-11)
(2.2234929365157e-11,-1.11384733033827e-09,6.41595745677951e-11)
(2.23714635738691e-11,-2.1760561588912e-09,3.388163989561e-11)
(0,0,0)
(0,0,0)
(0,0,0)
(0,0,0)
(0,0,0)
(0,0,0)
(2.04853573363452e-12,-1.01978931510015e-11,2.6022220491695e-10)
(4.07739622823873e-12,-2.13493925647269e-11,2.58090656720861e-10)
(5.10336892605717e-12,-3.6750929470952e-11,2.53363441073916e-10)
(5.7471276556977e-12,-5.99056858741348e-11,2.46423067977353e-10)
(7.60549862933034e-12,-1.02166360613346e-10,2.37082915625534e-10)
(1.03768693368122e-11,-1.86484220474823e-10,2.24411686315398e-10)
(1.77944386482801e-11,-3.565753769886e-10,2.07165223330804e-10)
(2.19782902875175e-11,-6.26003685561203e-10,1.72463717263552e-10)
(2.37146347141467e-11,-1.08741792383986e-09,1.24277137265421e-10)
(2.41843891592041e-11,-2.14533509025389e-09,6.58117866313334e-11)
(0,0,0)
(0,0,0)
(0,0,0)
(0,0,0)
(0,0,0)
(0,0,0)
(1.80374665756027e-12,-7.04493319436221e-12,3.98670712368634e-10)
(3.27915087396789e-12,-1.51719133618704e-11,3.97393398890266e-10)
(4.37458808539497e-12,-2.76308387806297e-11,3.93997873224378e-10)
(5.95318989886893e-12,-4.63870808288259e-11,3.88820123869164e-10)
(9.56013720701671e-12,-8.16288930843225e-11,3.82358051115976e-10)
(1.51377075956506e-11,-1.57155701502114e-10,3.70967270346084e-10)
(1.76417469738111e-11,-3.25397016700566e-10,3.40990466004116e-10)
(2.11530486149972e-11,-5.8244667127859e-10,2.98535579694481e-10)
(2.35745768894699e-11,-1.03187427544142e-09,2.21056590136775e-10)
(2.49281529787334e-11,-2.08191913826282e-09,1.19337913708206e-10)
(0,0,0)
(0,0,0)
(0,0,0)
(0,0,0)
(0,0,0)
(0,0,0)
(1.52871603224194e-12,-5.13917724730399e-12,6.36211732790961e-10)
(2.38448166230529e-12,-1.06393408213535e-11,6.35060705003697e-10)
(3.28102371653459e-12,-2.07685234527298e-11,6.32597972951728e-10)
(5.14091404850213e-12,-3.72369867138824e-11,6.28312300763099e-10)
(8.1723065293885e-12,-6.95609025783249e-11,6.21551974698083e-10)
(1.24289885352863e-11,-1.39425470737174e-10,6.08111035211801e-10)
(1.58280720568967e-11,-2.82082805995525e-10,5.75010086346109e-10)
(1.95177573833302e-11,-5.04981536609046e-10,5.04788328236913e-10)
(2.2276769260516e-11,-9.30091078558621e-10,3.88641388311712e-10)
(2.39979576800383e-11,-1.96228554589946e-09,2.21043484003638e-10)
(0,0,0)
(0,0,0)
(0,0,0)
(0,0,0)
(0,0,0)
(0,0,0)
(1.30950402517572e-12,-3.56206897639259e-12,1.09797776246918e-09)
(2.39656287831085e-12,-7.31250058302986e-12,1.09674271414615e-09)
(3.07827277570604e-12,-1.48715142185575e-11,1.09423353153131e-09)
(4.50936447012189e-12,-2.77289041939069e-11,1.08918793730832e-09)
(6.94951310042098e-12,-5.36468383464292e-11,1.07931632315898e-09)
(1.07887108512836e-11,-1.0730658113218e-10,1.05855806502442e-09)
(1.47772839855176e-11,-2.10117567190838e-10,1.01284819179869e-09)
(1.82813158256815e-11,-3.87202254933116e-10,9.19680909017548e-10)
(2.16408428963855e-11,-7.60534055748436e-10,7.54826823687656e-10)
(2.35857671476459e-11,-1.73901829109524e-09,4.71842117728896e-10)
(0,0,0)
(0,0,0)
(0,0,0)
(0,0,0)
(0,0,0)
(0,0,0)
(1.00084104362075e-12,-1.80384381710614e-12,2.16394753705956e-09)
(2.91776130373597e-12,-3.75033939730515e-12,2.16252171580056e-09)
(3.87347498490533e-12,-7.98010725338641e-12,2.1595052602928e-09)
(5.23009636811588e-12,-1.50589745893162e-11,2.15312859771142e-09)
(6.96022780334835e-12,-2.95513596455217e-11,2.14088478407376e-09)
(1.03310461888303e-11,-5.8833491217841e-11,2.11483360001189e-09)
(1.50336703094591e-11,-1.14210776049662e-10,2.05964651877954e-09)
(1.8040737253847e-11,-2.19808802164631e-10,1.94872655201144e-09)
(2.12988095830078e-11,-4.74252301632004e-10,1.73169276151638e-09)
(2.27135480798951e-11,-1.26374259216858e-09,1.26070334636382e-09)
(0,0,0)
(0,0,0)
(0,0,0)
(0,0,0)
(0,0,0)
(0,0,0)
(0,0,0)
(0,0,0)
(0,0,0)
(0,0,0)
(0,0,0)
(0,0,0)
(0,0,0)
(0,0,0)
(0,0,0)
(0,0,0)
(0,0,0)
(0,0,0)
(0,0,0)
(0,0,0)
(0,0,0)
(0,0,0)
(0,0,0)
(0,0,0)
(0,0,0)
(0,0,0)
(0,0,0)
(0,0,0)
(0,0,0)
(0,0,0)
(0,0,0)
(0,0,0)
(0,0,0)
(0,0,0)
(0,0,0)
(0,0,0)
(0,0,0)
(0,0,0)
(0,0,0)
(0,0,0)
(0,0,0)
(0,0,0)
(0,0,0)
(0,0,0)
(0,0,0)
(0,0,0)
(0,0,0)
(0,0,0)
(0,0,0)
(0,0,0)
(0,0,0)
(0,0,0)
(0,0,0)
(0,0,0)
(0,0,0)
(0,0,0)
(0,0,0)
(0,0,0)
(0,0,0)
(0,0,0)
(0,0,0)
(0,0,0)
(0,0,0)
(0,0,0)
(0,0,0)
(0,0,0)
(0,0,0)
(0,0,0)
(0,0,0)
(0,0,0)
(0,0,0)
(0,0,0)
(0,0,0)
(0,0,0)
(0,0,0)
(0,0,0)
(0,0,0)
(0,0,0)
(0,0,0)
(0,0,0)
(0,0,0)
(0,0,0)
(0,0,0)
(0,0,0)
(0,0,0)
(0,0,0)
(0,0,0)
(0,0,0)
(0,0,0)
(0,0,0)
(0,0,0)
(0,0,0)
(0,0,0)
(0,0,0)
(0,0,0)
(0,0,0)
(0,0,0)
(0,0,0)
(0,0,0)
(0,0,0)
(0,0,0)
(0,0,0)
(1.61358619266162e-12,-3.18321111101552e-11,2.94314712054856e-11)
(1.17276398459417e-12,-6.52861365538154e-11,2.79217633960414e-11)
(1.23743127865202e-12,-1.0355282991866e-10,2.46490018281e-11)
(1.54165007432765e-12,-1.54202809186857e-10,1.95791931704362e-11)
(1.99499856178307e-12,-2.27762317921414e-10,1.28464203802758e-11)
(2.38599108861153e-12,-3.35389444066304e-10,4.86734430245201e-12)
(4.15191024195149e-12,-4.91745878578512e-10,-2.08971526966751e-12)
(6.02546587437916e-12,-7.16150177841826e-10,-4.50562045300318e-12)
(7.09909644528253e-12,-1.03445035843206e-09,-3.66225434728885e-12)
(6.70327631100302e-12,-1.42200147515179e-09,-1.88185909889507e-12)
(0,0,0)
(0,0,0)
(0,0,0)
(0,0,0)
(0,0,0)
(0,0,0)
(2.27784274027545e-12,-2.98924431382623e-11,6.18205652473516e-11)
(1.72536615776138e-12,-6.16754430237819e-11,5.93975184125684e-11)
(2.05329735056598e-12,-9.84193565454598e-11,5.34189027640523e-11)
(2.28021626861392e-12,-1.47572790076661e-10,4.35356546736081e-11)
(3.25347382797665e-12,-2.19897459317621e-10,2.96973634662511e-11)
(3.96276211570812e-12,-3.28841988071956e-10,1.22820305284868e-11)
(6.51560255130364e-12,-4.8996702312039e-10,-4.33573842217027e-12)
(1.07088648508592e-11,-7.17468114406179e-10,-8.69079963593431e-12)
(1.21184013091954e-11,-1.03647862643157e-09,-5.91238245255457e-12)
(1.23816875765379e-11,-1.42390621966047e-09,-2.44255759334873e-12)
(0,0,0)
(0,0,0)
(0,0,0)
(0,0,0)
(0,0,0)
(0,0,0)
(1.88850102738714e-12,-2.68068876886805e-11,1.01468665962202e-10)
(2.22523101590701e-12,-5.54300738272413e-11,9.78857441154963e-11)
(2.84247567792915e-12,-8.85646308301964e-11,8.94778342722962e-11)
(3.18496620673806e-12,-1.33967552255976e-10,7.57783147519552e-11)
(3.60162100761632e-12,-2.02958604820875e-10,5.53866077334424e-11)
(3.88122176745565e-12,-3.13015892324023e-10,2.68815715939346e-11)
(6.18340503586264e-12,-4.86456013644006e-10,-4.60566602812673e-12)
(1.48525775167911e-11,-7.22475585772446e-10,-8.32547415549298e-12)
(1.70064351392833e-11,-1.0418001579708e-09,-2.56839839425934e-12)
(1.7114496325072e-11,-1.42757832078531e-09,5.43207893110489e-13)
(0,0,0)
(0,0,0)
(0,0,0)
(0,0,0)
(0,0,0)
(0,0,0)
(1.29502482153863e-12,-2.26387735482085e-11,1.53821560545181e-10)
(2.86059404784646e-12,-4.68006138817715e-11,1.49588595118659e-10)
(3.46272005690355e-12,-7.45740115708876e-11,1.39521581755181e-10)
(3.1380208877465e-12,-1.13341862468348e-10,1.23908985280378e-10)
(1.49871808038242e-12,-1.74369924993164e-10,9.97897588729103e-11)
(-1.46569998190877e-13,-2.80752956604627e-10,6.34585709364592e-11)
(8.84506486533824e-13,-4.77767306954334e-10,1.45373940043302e-11)
(1.79716188064594e-11,-7.32999997722803e-10,1.38488922517493e-11)
(2.12744987799268e-11,-1.04928354298825e-09,1.70076094351246e-11)
(2.16692741437008e-11,-1.42997472324301e-09,1.14414585416148e-11)
(0,0,0)
(0,0,0)
(0,0,0)
(0,0,0)
(0,0,0)
(0,0,0)
(1.14968605891136e-12,-1.76695569521222e-11,2.25209401286954e-10)
(2.921804832733e-12,-3.62213292414376e-11,2.20746320641399e-10)
(3.3379213746248e-12,-5.79597555125751e-11,2.11221768127448e-10)
(2.13363115740013e-12,-8.75277199855174e-11,1.97155797478177e-10)
(-1.28293635896257e-12,-1.34578768675919e-10,1.76412221696915e-10)
(-4.19888796532476e-12,-2.20904382444695e-10,1.51989692450604e-10)
(2.20692603225422e-11,-4.23615413829316e-10,1.56685366816637e-10)
(2.6842872706334e-11,-7.43766965689402e-10,1.04069501444793e-10)
(2.60834575401147e-11,-1.05087307115774e-09,7.10270901743054e-11)
(2.55320348315874e-11,-1.4224817352548e-09,3.71786643536999e-11)
(0,0,0)
(0,0,0)
(0,0,0)
(0,0,0)
(0,0,0)
(0,0,0)
(1.02712397312358e-12,-1.26566117374652e-11,3.2455798339032e-10)
(2.62713267239321e-12,-2.55442293571981e-11,3.21113608233122e-10)
(2.92365133197999e-12,-4.13347419255343e-11,3.14375581649057e-10)
(1.56867496303766e-12,-6.17999461380567e-11,3.04549073664492e-10)
(-2.6073959022113e-13,-9.65474775937369e-11,2.90967522721529e-10)
(-1.70518665113777e-12,-1.75162273818624e-10,2.7400538302571e-10)
(2.13175844277e-11,-4.20498824876316e-10,2.73707782828375e-10)
(2.66078560024222e-11,-7.3098133431398e-10,2.16552506418556e-10)
(2.66363369500628e-11,-1.02495712550731e-09,1.50660325196582e-10)
(2.65802237993057e-11,-1.388438769217e-09,7.78731256919841e-11)
(0,0,0)
(0,0,0)
(0,0,0)
(0,0,0)
(0,0,0)
(0,0,0)
(1.1753041892431e-12,-8.30481060384976e-12,4.68510600451112e-10)
(2.14210399963936e-12,-1.68467023416127e-11,4.66957296831951e-10)
(2.69002211208156e-12,-2.79361181555952e-11,4.63372722849019e-10)
(3.26516853756528e-12,-4.06857775480504e-11,4.58904106396005e-10)
(8.88292747091538e-12,-6.05742064959083e-11,4.57241203378079e-10)
(2.73842811725048e-11,-1.10827176115507e-10,4.60200266274659e-10)
(1.67824225786547e-11,-3.88367413789135e-10,4.00973174781902e-10)
(2.11669035028575e-11,-6.80927047720209e-10,3.835176126432e-10)
(2.35100564355306e-11,-9.57438010399006e-10,2.67529412861267e-10)
(2.46324743235886e-11,-1.31194039783668e-09,1.38208423295827e-10)
(0,0,0)
(0,0,0)
(0,0,0)
(0,0,0)
(0,0,0)
(0,0,0)
(1.10263554885786e-12,-5.47084283514491e-12,6.82248909753434e-10)
(1.52037347568787e-12,-1.1323254351486e-11,6.81518896094104e-10)
(1.66968667063961e-12,-2.0176837409e-11,6.7951241346778e-10)
(2.39315759429938e-12,-3.25351751588347e-11,6.76993274386283e-10)
(5.6991817833055e-12,-5.95594605725281e-11,6.76436413752668e-10)
(1.34110477959109e-11,-1.35195874927789e-10,6.7771830906678e-10)
(1.40845913620618e-11,-3.51993995625592e-10,6.58894994125562e-10)
(1.78854156314765e-11,-5.62984882210386e-10,5.61227639495435e-10)
(2.03176507585896e-11,-8.26642843155954e-10,4.09792325195788e-10)
(2.17741868798081e-11,-1.17180156968927e-09,2.21264256480775e-10)
(0,0,0)
(0,0,0)
(0,0,0)
(0,0,0)
(0,0,0)
(0,0,0)
(7.86327188534932e-13,-3.62581224485459e-12,9.95575882195974e-10)
(1.3435843072612e-12,-7.85042092808783e-12,9.94619299400964e-10)
(1.23246003371487e-12,-1.49019635103924e-11,9.92216325430907e-10)
(1.71104901469654e-12,-2.63007958378695e-11,9.88430385699345e-10)
(3.61229253471377e-12,-5.28920370310206e-11,9.82069393026286e-10)
(8.02549416275314e-12,-1.16412864240057e-10,9.66877655428251e-10)
(1.20377756252127e-11,-2.48067708988e-10,9.22582050092029e-10)
(1.57419483867745e-11,-4.07494270864078e-10,8.09607983714947e-10)
(1.83437947389757e-11,-6.34365275560915e-10,6.26157065195163e-10)
(2.0152185949723e-11,-9.46614403650867e-10,3.59403295196443e-10)
(0,0,0)
(0,0,0)
(0,0,0)
(0,0,0)
(0,0,0)
(0,0,0)
(6.22818485203892e-13,-1.82124874485966e-12,1.38195617748004e-09)
(2.18387741372098e-12,-4.20712992049068e-12,1.380539889274e-09)
(2.2700303133116e-12,-8.5475014964359e-12,1.37742719017243e-09)
(2.41493541582176e-12,-1.53117422583804e-11,1.37139389039661e-09)
(3.46005222023399e-12,-3.10506907059256e-11,1.36034002407295e-09)
(6.68463620290494e-12,-6.54768089249875e-11,1.33470220994779e-09)
(1.17428610283439e-11,-1.29494266764953e-10,1.27505455784894e-09)
(1.52657255835887e-11,-2.19526553234566e-10,1.15069961713779e-09)
(1.80359231037671e-11,-3.62985570718785e-10,9.35295449005235e-10)