/*--------------------------------*- C++ -*----------------------------------*\
| =========                 |                                                 |
| \\      /  F ield         | foam-extend: Open Source CFD                    |
|  \\    /   O peration     | Version:     4.0                                |
|   \\  /    A nd           | Web:         http://www.foam-extend.org         |
|    \\/     M anipulation  |                                                 |
\*---------------------------------------------------------------------------*/
FoamFile
{
    version 2.0;
    format ascii;
    class volVectorField;
    location "Data/2654";
    object      E;
}
// * * * * * * * * * * * * * * * * * * * * * * * * * * * * * * * * * * * * * //

dimensions      [0 1 -1 0 0 0 0];

internalField   nonuniform List<vector>
4096
(
(0,0,0)
(0,0,0)
(0,0,0)
(0,0,0)
(0,0,0)
(0,0,0)
(0,0,0)
(0,0,0)
(0,0,0)
(0,0,0)
(0,0,0)
(0,0,0)
(0,0,0)
(0,0,0)
(0,0,0)
(0,0,0)
(0,0,0)
(0,0,0)
(0,0,0)
(0,0,0)
(0,0,0)
(0,0,0)
(0,0,0)
(0,0,0)
(0,0,0)
(0,0,0)
(0,0,0)
(0,0,0)
(0,0,0)
(0,0,0)
(0,0,0)
(0,0,0)
(0,0,0)
(0,0,0)
(0,0,0)
(0,0,0)
(0,0,0)
(0,0,0)
(0,0,0)
(0,0,0)
(0,0,0)
(0,0,0)
(0,0,0)
(0,0,0)
(0,0,0)
(0,0,0)
(0,0,0)
(0,0,0)
(0,0,0)
(0,0,0)
(0,0,0)
(0,0,0)
(0,0,0)
(0,0,0)
(0,0,0)
(0,0,0)
(0,0,0)
(0,0,0)
(0,0,0)
(0,0,0)
(0,0,0)
(0,0,0)
(0,0,0)
(0,0,0)
(0,0,0)
(0,0,0)
(0,0,0)
(0,0,0)
(0,0,0)
(0,0,0)
(0,0,0)
(0,0,0)
(0,0,0)
(0,0,0)
(0,0,0)
(0,0,0)
(0,0,0)
(0,0,0)
(0,0,0)
(0,0,0)
(0,0,0)
(0,0,0)
(0,0,0)
(0,0,0)
(0,0,0)
(0,0,0)
(0,0,0)
(0,0,0)
(0,0,0)
(0,0,0)
(0,0,0)
(0,0,0)
(0,0,0)
(0,0,0)
(0,0,0)
(0,0,0)
(0,0,0)
(0,0,0)
(0,0,0)
(0,0,0)
(0,0,0)
(0,0,0)
(0,0,0)
(0,0,0)
(0,0,0)
(0,0,0)
(0,0,0)
(0,0,0)
(0,0,0)
(0,0,0)
(0,0,0)
(0,0,0)
(0,0,0)
(0,0,0)
(0,0,0)
(0,0,0)
(0,0,0)
(0,0,0)
(0,0,0)
(0,0,0)
(0,0,0)
(0,0,0)
(0,0,0)
(0,0,0)
(0,0,0)
(0,0,0)
(0,0,0)
(0,0,0)
(0,0,0)
(0,0,0)
(0,0,0)
(0,0,0)
(0,0,0)
(0,0,0)
(0,0,0)
(0,0,0)
(0,0,0)
(0,0,0)
(0,0,0)
(0,0,0)
(0,0,0)
(0,0,0)
(0,0,0)
(0,0,0)
(0,0,0)
(0,0,0)
(0,0,0)
(0,0,0)
(0,0,0)
(0,0,0)
(0,0,0)
(0,0,0)
(0,0,0)
(0,0,0)
(0,0,0)
(0,0,0)
(0,0,0)
(0,0,0)
(0,0,0)
(0,0,0)
(0,0,0)
(0,0,0)
(0,0,0)
(0,0,0)
(0,0,0)
(0,0,0)
(0,0,0)
(0,0,0)
(0,0,0)
(0,0,0)
(0,0,0)
(0,0,0)
(0,0,0)
(0,0,0)
(0,0,0)
(0,0,0)
(0,0,0)
(0,0,0)
(0,0,0)
(0,0,0)
(0,0,0)
(0,0,0)
(0,0,0)
(0,0,0)
(0,0,0)
(0,0,0)
(0,0,0)
(0,0,0)
(0,0,0)
(0,0,0)
(0,0,0)
(0,0,0)
(0,0,0)
(0,0,0)
(0,0,0)
(0,0,0)
(0,0,0)
(0,0,0)
(0,0,0)
(0,0,0)
(0,0,0)
(0,0,0)
(0,0,0)
(0,0,0)
(0,0,0)
(0,0,0)
(0,0,0)
(0,0,0)
(0,0,0)
(0,0,0)
(0,0,0)
(0,0,0)
(0,0,0)
(0,0,0)
(0,0,0)
(0,0,0)
(0,0,0)
(0,0,0)
(0,0,0)
(0,0,0)
(0,0,0)
(0,0,0)
(0,0,0)
(0,0,0)
(0,0,0)
(0,0,0)
(0,0,0)
(0,0,0)
(0,0,0)
(0,0,0)
(0,0,0)
(0,0,0)
(0,0,0)
(0,0,0)
(0,0,0)
(0,0,0)
(0,0,0)
(0,0,0)
(0,0,0)
(0,0,0)
(0,0,0)
(0,0,0)
(0,0,0)
(0,0,0)
(0,0,0)
(0,0,0)
(0,0,0)
(0,0,0)
(0,0,0)
(0,0,0)
(0,0,0)
(0,0,0)
(0,0,0)
(0,0,0)
(0,0,0)
(0,0,0)
(0,0,0)
(0,0,0)
(0,0,0)
(0,0,0)
(0,0,0)
(0,0,0)
(0,0,0)
(0,0,0)
(0,0,0)
(0,0,0)
(0,0,0)
(0,0,0)
(0,0,0)
(0,0,0)
(0,0,0)
(0,0,0)
(0,0,0)
(0,0,0)
(0,0,0)
(0,0,0)
(0,0,0)
(0,0,0)
(0,0,0)
(0,0,0)
(0,0,0)
(0,0,0)
(0,0,0)
(0,0,0)
(0,0,0)
(0,0,0)
(0,0,0)
(0,0,0)
(0,0,0)
(0,0,0)
(0,0,0)
(0,0,0)
(0,0,0)
(0,0,0)
(0,0,0)
(0,0,0)
(0,0,0)
(0,0,0)
(0,0,0)
(0,0,0)
(0,0,0)
(0,0,0)
(0,0,0)
(0,0,0)
(0,0,0)
(0,0,0)
(0,0,0)
(0,0,0)
(0,0,0)
(0,0,0)
(0,0,0)
(0,0,0)
(0,0,0)
(0,0,0)
(0,0,0)
(0,0,0)
(0,0,0)
(0,0,0)
(0,0,0)
(0,0,0)
(0,0,0)
(0,0,0)
(0,0,0)
(0,0,0)
(0,0,0)
(0,0,0)
(0,0,0)
(0,0,0)
(0,0,0)
(0,0,0)
(0,0,0)
(0,0,0)
(0,0,0)
(0,0,0)
(0,0,0)
(0,0,0)
(0,0,0)
(0,0,0)
(0,0,0)
(0,0,0)
(0,0,0)
(0,0,0)
(0,0,0)
(0,0,0)
(0,0,0)
(0,0,0)
(0,0,0)
(0,0,0)
(0,0,0)
(0,0,0)
(0,0,0)
(0,0,0)
(0,0,0)
(0,0,0)
(0,0,0)
(0,0,0)
(0,0,0)
(0,0,0)
(0,0,0)
(0,0,0)
(0,0,0)
(0,0,0)
(0,0,0)
(0,0,0)
(0,0,0)
(0,0,0)
(0,0,0)
(0,0,0)
(0,0,0)
(0,0,0)
(0,0,0)
(0,0,0)
(0,0,0)
(0,0,0)
(0,0,0)
(0,0,0)
(0,0,0)
(0,0,0)
(0,0,0)
(0,0,0)
(0,0,0)
(0,0,0)
(0,0,0)
(0,0,0)
(0,0,0)
(0,0,0)
(0,0,0)
(0,0,0)
(0,0,0)
(0,0,0)
(0,0,0)
(0,0,0)
(0,0,0)
(0,0,0)
(0,0,0)
(0,0,0)
(0,0,0)
(0,0,0)
(0,0,0)
(0,0,0)
(0,0,0)
(0,0,0)
(0,0,0)
(0,0,0)
(0,0,0)
(0,0,0)
(0,0,0)
(0,0,0)
(0,0,0)
(0,0,0)
(0,0,0)
(0,0,0)
(0,0,0)
(0,0,0)
(0,0,0)
(0,0,0)
(0,0,0)
(0,0,0)
(0,0,0)
(0,0,0)
(0,0,0)
(0,0,0)
(0,0,0)
(0,0,0)
(0,0,0)
(0,0,0)
(0,0,0)
(0,0,0)
(0,0,0)
(0,0,0)
(0,0,0)
(0,0,0)
(0,0,0)
(0,0,0)
(0,0,0)
(0,0,0)
(0,0,0)
(0,0,0)
(0,0,0)
(0,0,0)
(0,0,0)
(0,0,0)
(0,0,0)
(0,0,0)
(0,0,0)
(0,0,0)
(0,0,0)
(0,0,0)
(0,0,0)
(0,0,0)
(0,0,0)
(0,0,0)
(0,0,0)
(0,0,0)
(0,0,0)
(0,0,0)
(0,0,0)
(0,0,0)
(0,0,0)
(0,0,0)
(0,0,0)
(0,0,0)
(0,0,0)
(0,0,0)
(0,0,0)
(0,0,0)
(0,0,0)
(0,0,0)
(0,0,0)
(0,0,0)
(0,0,0)
(0,0,0)
(0,0,0)
(0,0,0)
(0,0,0)
(0,0,0)
(0,0,0)
(0,0,0)
(0,0,0)
(0,0,0)
(0,0,0)
(0,0,0)
(0,0,0)
(0,0,0)
(0,0,0)
(0,0,0)
(0,0,0)
(0,0,0)
(0,0,0)
(0,0,0)
(0,0,0)
(0,0,0)
(0,0,0)
(0,0,0)
(0,0,0)
(0,0,0)
(0,0,0)
(0,0,0)
(0,0,0)
(0,0,0)
(0,0,0)
(0,0,0)
(0,0,0)
(0,0,0)
(0,0,0)
(0,0,0)
(0,0,0)
(0,0,0)
(0,0,0)
(0,0,0)
(0,0,0)
(0,0,0)
(0,0,0)
(0,0,0)
(0,0,0)
(0,0,0)
(0,0,0)
(0,0,0)
(0,0,0)
(0,0,0)
(0,0,0)
(0,0,0)
(0,0,0)
(0,0,0)
(0,0,0)
(0,0,0)
(0,0,0)
(0,0,0)
(0,0,0)
(0,0,0)
(0,0,0)
(0,0,0)
(0,0,0)
(0,0,0)
(0,0,0)
(0,0,0)
(0,0,0)
(0,0,0)
(0,0,0)
(0,0,0)
(0,0,0)
(0,0,0)
(0,0,0)
(0,0,0)
(0,0,0)
(0,0,0)
(0,0,0)
(0,0,0)
(0,0,0)
(0,0,0)
(0,0,0)
(0,0,0)
(0,0,0)
(0,0,0)
(0,0,0)
(0,0,0)
(0,0,0)
(0,0,0)
(0,0,0)
(0,0,0)
(0,0,0)
(0,0,0)
(0,0,0)
(0,0,0)
(0,0,0)
(0,0,0)
(0,0,0)
(0,0,0)
(0,0,0)
(0,0,0)
(0,0,0)
(0,0,0)
(0,0,0)
(0,0,0)
(0,0,0)
(0,0,0)
(0,0,0)
(0,0,0)
(0,0,0)
(0,0,0)
(0,0,0)
(0,0,0)
(0,0,0)
(0,0,0)
(0,0,0)
(0,0,0)
(0,0,0)
(0,0,0)
(0,0,0)
(0,0,0)
(0,0,0)
(0,0,0)
(0,0,0)
(0,0,0)
(0,0,0)
(0,0,0)
(0,0,0)
(0,0,0)
(0,0,0)
(0,0,0)
(0,0,0)
(0,0,0)
(0,0,0)
(0,0,0)
(0,0,0)
(0,0,0)
(0,0,0)
(0,0,0)
(0,0,0)
(0,0,0)
(0,0,0)
(0,0,0)
(0,0,0)
(0,0,0)
(0,0,0)
(0,0,0)
(0,0,0)
(0,0,0)
(0,0,0)
(0,0,0)
(0,0,0)
(0,0,0)
(0,0,0)
(0,0,0)
(0,0,0)
(0,0,0)
(0,0,0)
(0,0,0)
(0,0,0)
(0,0,0)
(0,0,0)
(0,0,0)
(0,0,0)
(0,0,0)
(0,0,0)
(0,0,0)
(0,0,0)
(0,0,0)
(0,0,0)
(0,0,0)
(0,0,0)
(0,0,0)
(0,0,0)
(0,0,0)
(0,0,0)
(0,0,0)
(0,0,0)
(0,0,0)
(0,0,0)
(0,0,0)
(0,0,0)
(0,0,0)
(0,0,0)
(0,0,0)
(0,0,0)
(0,0,0)
(0,0,0)
(0,0,0)
(0,0,0)
(0,0,0)
(0,0,0)
(0,0,0)
(0,0,0)
(0,0,0)
(0,0,0)
(0,0,0)
(0,0,0)
(0,0,0)
(0,0,0)
(0,0,0)
(0,0,0)
(0,0,0)
(0,0,0)
(0,0,0)
(0,0,0)
(0,0,0)
(0,0,0)
(0,0,0)
(0,0,0)
(0,0,0)
(0,0,0)
(0,0,0)
(0,0,0)
(0,0,0)
(0,0,0)
(0,0,0)
(0,0,0)
(0,0,0)
(0,0,0)
(0,0,0)
(0,0,0)
(0,0,0)
(0,0,0)
(0,0,0)
(0,0,0)
(0,0,0)
(0,0,0)
(0,0,0)
(0,0,0)
(0,0,0)
(0,0,0)
(0,0,0)
(0,0,0)
(0,0,0)
(0,0,0)
(0,0,0)
(0,0,0)
(0,0,0)
(0,0,0)
(0,0,0)
(0,0,0)
(0,0,0)
(0,0,0)
(0,0,0)
(0,0,0)
(0,0,0)
(0,0,0)
(0,0,0)
(0,0,0)
(0,0,0)
(0,0,0)
(0,0,0)
(0,0,0)
(0,0,0)
(0,0,0)
(0,0,0)
(0,0,0)
(0,0,0)
(0,0,0)
(0,0,0)
(0,0,0)
(0,0,0)
(0,0,0)
(0,0,0)
(0,0,0)
(0,0,0)
(0,0,0)
(0,0,0)
(0,0,0)
(0,0,0)
(0,0,0)
(0,0,0)
(0,0,0)
(0,0,0)
(0,0,0)
(0,0,0)
(0,0,0)
(0,0,0)
(0,0,0)
(0,0,0)
(0,0,0)
(0,0,0)
(0,0,0)
(0,0,0)
(0,0,0)
(0,0,0)
(0,0,0)
(0,0,0)
(0,0,0)
(0,0,0)
(0,0,0)
(0,0,0)
(0,0,0)
(0,0,0)
(0,0,0)
(0,0,0)
(0,0,0)
(0,0,0)
(0,0,0)
(0,0,0)
(0,0,0)
(0,0,0)
(0,0,0)
(0,0,0)
(0,0,0)
(0,0,0)
(0,0,0)
(0,0,0)
(0,0,0)
(0,0,0)
(0,0,0)
(0,0,0)
(0,0,0)
(0,0,0)
(0,0,0)
(0,0,0)
(0,0,0)
(0,0,0)
(0,0,0)
(0,0,0)
(0,0,0)
(0,0,0)
(0,0,0)
(0,0,0)
(0,0,0)
(0,0,0)
(0,0,0)
(0,0,0)
(0,0,0)
(0,0,0)
(0,0,0)
(0,0,0)
(0,0,0)
(0,0,0)
(0,0,0)
(0,0,0)
(0,0,0)
(0,0,0)
(0,0,0)
(0,0,0)
(0,0,0)
(0,0,0)
(0,0,0)
(0,0,0)
(0,0,0)
(0,0,0)
(0,0,0)
(0,0,0)
(0,0,0)
(-214065.109008101,113741.515478775,100323.593529326)
(-226384.984072655,109021.672056027,217686.905545954)
(-254934.811433729,99270.8384721663,373350.878507515)
(-308872.479699823,83928.9289823864,598294.42922496)
(-406119.961716047,63210.4057264172,941203.985214593)
(-580711.530736675,39373.051073276,1482542.46487799)
(-896837.955223455,17663.9292176041,2361716.49088387)
(-1468131.93031524,4358.31933822892,3825490.1018609)
(-2421361.29381034,-49.7317235497943,6246901.12739477)
(-3373679.53808006,-382.904964910776,9620963.5704398)
(0,0,0)
(0,0,0)
(0,0,0)
(0,0,0)
(0,0,0)
(0,0,0)
(-226414.258461217,244466.84247414,95688.9314658499)
(-238825.953174218,235586.797164763,207949.759531336)
(-267821.665951626,217026.584829916,358015.67912521)
(-323040.747591611,187397.893356859,577587.462342351)
(-423003.184347481,146414.801859536,917386.250556707)
(-601804.535442047,97663.5894774389,1460900.24759458)
(-921439.434569976,51519.3892492944,2348484.22213286)
(-1490574.03416019,22294.5320416603,3821122.04358956)
(-2436321.16195899,10817.9671925508,6246575.5066325)
(-3380651.09181268,5510.06897464063,9621333.62450556)
(0,0,0)
(0,0,0)
(0,0,0)
(0,0,0)
(0,0,0)
(0,0,0)
(-254625.272130937,412224.360905726,86867.7536993515)
(-267275.58628581,400366.231170938,189363.905978989)
(-297187.685441374,375209.383596195,328368.792654091)
(-355153.157422821,334283.162488548,536636.680945225)
(-461511.53099448,275889.68500255,868673.32879668)
(-651418.014369703,202946.79063698,1414808.14200684)
(-982073.861396424,129091.883298193,2319309.50935438)
(-1546422.89930708,78348.3914625703,3809678.5492405)
(-2472314.35849448,51578.3682932309,6241232.50663436)
(-3396962.82993546,27958.524936721,9615746.88060776)
(0,0,0)
(0,0,0)
(0,0,0)
(0,0,0)
(0,0,0)
(0,0,0)
(-307243.000766121,644528.701106126,74938.6605657209)
(-320114.266432162,631313.805417908,164105.352750913)
(-351169.358024383,603071.78268718,287412.311684303)
(-413120.859419005,556560.128795387,478256.204796462)
(-530034.200015147,488446.457113412,795733.632700755)
(-741260.291283424,398959.414176761,1340981.30044439)
(-1098170.71815176,299578.86213673,2268665.03975761)
(-1654412.5875837,218391.491966657,3783034.52683719)
(-2538211.60857227,155149.904479575,6217674.59922307)
(-3425716.56902898,83524.9128886177,9587824.7803003)
(0,0,0)
(0,0,0)
(0,0,0)
(0,0,0)
(0,0,0)
(0,0,0)
(-401589.325815082,984428.292663225,61689.7342579786)
(-414405.293416357,971543.176325764,135865.656766477)
(-446067.111080764,944043.941063815,240960.609470607)
(-511369.451202186,898717.804882026,410172.384586155)
(-639168.937389135,831574.77069305,706213.00839565)
(-876755.238298016,740345.371786692,1241582.28908371)
(-1274946.69359196,628554.102115188,2187553.74269721)
(-1818789.91668272,504877.095166011,3719858.0561806)
(-2633927.82407973,362923.289942909,6146012.49479711)
(-3467247.45331159,192414.41817211,9504370.44282517)
(0,0,0)
(0,0,0)
(0,0,0)
(0,0,0)
(0,0,0)
(0,0,0)
(-571843.475126424,1507459.51317348,48812.2546161781)
(-584021.786783801,1495961.99911037,108415.218615365)
(-614654.272188617,1471432.25108177,195681.18078603)
(-679318.456479871,1430657.66513496,343059.777012962)
(-808464.363983139,1368178.09009598,614920.821593186)
(-1050543.045501,1276135.84503086,1129673.39385002)
(-1449947.65833156,1144361.73372185,2063813.42057493)
(-1969134.96198655,959975.680300322,3577849.79742718)
(-2737592.16874039,702975.69517348,5975389.56093705)
(-3519483.56917664,375328.858280717,9311958.690005)
(0,0,0)
(0,0,0)
(0,0,0)
(0,0,0)
(0,0,0)
(0,0,0)
(-884385.388652369,2354476.00543402,37368.8963918204)
(-895187.880270366,2344546.4214743,83972.3542982707)
(-922687.850562996,2323169.86201413,154922.593928913)
(-981736.43986074,2286740.59192582,280576.106998793)
(-1101683.82327909,2227578.04114563,522859.979228228)
(-1329137.74824678,2130332.89618606,997800.676319827)
(-1703957.75654584,1966808.70359769,1879311.46298983)
(-2176063.95275087,1694645.90913759,3320705.18690342)
(-2892003.83360484,1268068.30384547,5647616.41183622)
(-3604653.20893913,690977.085171677,8936621.39388449)
(0,0,0)
(0,0,0)
(0,0,0)
(0,0,0)
(0,0,0)
(0,0,0)
(-1456005.57721854,3782997.32094224,27484.2617103268)
(-1464647.97748474,3773989.76518047,62688.895488899)
(-1486794.82267512,3754127.01826065,118526.561917504)
(-1534811.82155939,3718694.65521306,221384.320189635)
(-1633371.232566,3656755.58058386,425578.013317397)
(-1822440.34342621,3544196.80536346,834154.447566192)
(-2136308.64332512,3330316.45536793,1606955.33912104)
(-2518501.40516342,2926242.33450382,2893860.31891826)
(-3172335.90410476,2263978.72937614,5070285.79749235)
(-3767537.43574798,1283338.56738798,8245461.75102398)
(0,0,0)
(0,0,0)
(0,0,0)
(0,0,0)
(0,0,0)
(0,0,0)
(-2413103.78748266,6177651.872652,18449.2357728666)
(-2418998.04635192,6168645.95905871,42791.0882465568)
(-2434040.30467614,6147963.44541647,82994.9657668158)
(-2466346.1495606,6108722.37627624,159313.394264222)
(-2531458.9399799,6034684.0111593,312843.903668679)
(-2653803.65249249,5890833.67187211,620010.689652516)
(-2859254.81567255,5606993.18369052,1202588.77700249)
(-3164515.97176422,5062123.75948609,2231223.32378446)
(-3689467.53773214,4095410.84262459,4089258.74826806)
(-4051675.61501229,2462470.22658783,6961802.70408049)
(0,0,0)
(0,0,0)
(0,0,0)
(0,0,0)
(0,0,0)
(0,0,0)
(-3369843.64572072,9538115.7257865,9379.79258624315)
(-3372798.88311301,9528758.85507211,22065.7796858496)
(-3380274.78213017,9506716.41473242,43587.5925001273)
(-3396144.46763278,9463394.34474193,85060.0916672654)
(-3427672.19973873,9378685.26026648,168731.042298849)
(-3486600.60012478,9210336.90797987,335828.406315854)
(-3589418.53536961,8874899.68755387,657340.437822095)
(-3762678.73974461,8218019.66143188,1264123.27562088)
(-4050739.89403299,6954335.21644893,2455938.79582947)
(-4079476.982298,4498822.10765879,4499063.89705655)
(0,0,0)
(0,0,0)
(0,0,0)
(0,0,0)
(0,0,0)
(0,0,0)
(0,0,0)
(0,0,0)
(0,0,0)
(0,0,0)
(0,0,0)
(0,0,0)
(0,0,0)
(0,0,0)
(0,0,0)
(0,0,0)
(0,0,0)
(0,0,0)
(0,0,0)
(0,0,0)
(0,0,0)
(0,0,0)
(0,0,0)
(0,0,0)
(0,0,0)
(0,0,0)
(0,0,0)
(0,0,0)
(0,0,0)
(0,0,0)
(0,0,0)
(0,0,0)
(0,0,0)
(0,0,0)
(0,0,0)
(0,0,0)
(0,0,0)
(0,0,0)
(0,0,0)
(0,0,0)
(0,0,0)
(0,0,0)
(0,0,0)
(0,0,0)
(0,0,0)
(0,0,0)
(0,0,0)
(0,0,0)
(0,0,0)
(0,0,0)
(0,0,0)
(0,0,0)
(0,0,0)
(0,0,0)
(0,0,0)
(0,0,0)
(0,0,0)
(0,0,0)
(0,0,0)
(0,0,0)
(0,0,0)
(0,0,0)
(0,0,0)
(0,0,0)
(0,0,0)
(0,0,0)
(0,0,0)
(0,0,0)
(0,0,0)
(0,0,0)
(0,0,0)
(0,0,0)
(0,0,0)
(0,0,0)
(0,0,0)
(0,0,0)
(0,0,0)
(0,0,0)
(0,0,0)
(0,0,0)
(0,0,0)
(0,0,0)
(0,0,0)
(0,0,0)
(0,0,0)
(0,0,0)
(0,0,0)
(0,0,0)
(0,0,0)
(0,0,0)
(0,0,0)
(0,0,0)
(0,0,0)
(0,0,0)
(0,0,0)
(0,0,0)
(0,0,0)
(0,0,0)
(0,0,0)
(0,0,0)
(0,0,0)
(0,0,0)
(31638478.7226382,101394.572662831,88026.5397330108)
(31617845.9031732,96578.0723083921,189182.524220899)
(31570407.5017464,86357.2121948483,319447.94288789)
(31481772.8939902,69739.851504814,501027.661735105)
(31323977.807588,46325.3526436566,766569.483829456)
(31043212.2745895,18284.7816912229,1166325.84085408)
(30528098.3017335,-6916.12577952411,1790270.65371857)
(29510120.4563524,-18047.888546775,2872031.09963975)
(27213317.4365013,-14991.841211248,5294309.15458153)
(20975791.5297496,-7363.74694011916,12994166.777734)
(0,0,0)
(0,0,0)
(0,0,0)
(0,0,0)
(0,0,0)
(0,0,0)
(31617460.4778222,216241.592113323,83243.1883081475)
(31596816.9649895,207166.812380345,178976.474114567)
(31548958.0052186,187668.13015108,302850.829030127)
(31458623.0614809,155265.129071899,477626.686432659)
(31296474.186775,107881.416539256,738558.195456765)
(31007786.1940804,48019.4938805401,1141197.69778711)
(30484733.7943877,-9131.1569823075,1779204.44407444)
(29470976.7265814,-33540.6271304139,2875111.36595853)
(27188981.4090182,-25135.9542938489,5301917.8521059)
(20965143.4885209,-10781.1419196733,13001505.6107938)
(0,0,0)
(0,0,0)
(0,0,0)
(0,0,0)
(0,0,0)
(0,0,0)
(31569784.0183153,359619.897379701,74177.3483293634)
(31549049.6170497,347534.540593371,159449.36082291)
(31500255.7795934,321201.082390495,270437.887590906)
(31405973.9275093,276259.48975026,430281.38602261)
(31232565.322763,207302.864767596,678748.028078906)
(30920174.6738897,113038.015855432,1084101.76188679)
(30367110.9298282,12921.6534760861,1754829.10424588)
(29362984.8082199,-29686.0658460207,2883531.7794767)
(27126128.5361136,-14317.5250520523,5316235.39966877)
(20939044.1379012,-796.035073831609,13012208.2690285)
(0,0,0)
(0,0,0)
(0,0,0)
(0,0,0)
(0,0,0)
(0,0,0)
(31482073.6191751,550210.265975639,62057.955504904)
(31461364.9042548,537022.824842812,133055.444610616)
(31411408.2572914,508157.370322587,225486.485404851)
(31310951.5939884,458284.340847589,361354.124942246)
(31116798.4601975,379258.657898579,584530.615640785)
(30750848.037167,263364.968656347,984060.278431623)
(30105750.0375716,122689.757221864,1712336.3630046)
(29117246.5090652,53953.5214814659,2899002.62307032)
(26999213.9038736,59430.8560798497,5329793.67353446)
(20890276.8279953,41983.6666905084,13012985.5187881)
(0,0,0)
(0,0,0)
(0,0,0)
(0,0,0)
(0,0,0)
(0,0,0)
(31327593.3915653,814145.438254353,48847.0543829879)
(31307362.9211144,801891.529803563,104175.07893349)
(31257160.054461,775420.246354544,175649.98140195)
(31151437.5406726,730737.051643675,282355.222772994)
(30933568.2523545,662226.92533414,468614.709635969)
(30487391.115313,566450.389749232,843347.87897421)
(29636008.2981167,453438.180135998,1643609.40839351)
(28661775.8913017,354467.658671621,2904494.40726103)
(26800398.1429022,259248.243883248,5312315.99651769)
(20817815.9162444,140162.492881705,12971038.7448125)
(0,0,0)
(0,0,0)
(0,0,0)
(0,0,0)
(0,0,0)
(0,0,0)
(31052833.9805182,1194840.65427502,36592.272376728)
(31033967.6397812,1184725.43854817,77733.8811092552)
(30986133.747439,1163325.76944777,131005.282430556)
(30882347.4339068,1128141.22782266,213900.159907083)
(30661959.2669202,1074845.88885807,372822.509521884)
(30203041.8461842,997421.077591453,730231.874036492)
(29340932.7162876,890226.384392592,1544528.23920286)
(28409696.796565,752932.38392182,2809196.69944312)
(26631229.6971404,548454.004345003,5193134.01714274)
(20734834.8938713,290076.936042475,12830866.054976)
(0,0,0)
(0,0,0)
(0,0,0)
(0,0,0)
(0,0,0)
(0,0,0)
(30543090.0450316,1782773.75122204,26556.413411063)
(30526649.1375642,1774975.99725569,56433.7809110304)
(30484261.6755996,1758934.04300552,95840.9252328831)
(30390077.4539872,1733521.98123216,160611.222017569)
(30184612.8299979,1695720.81582383,295404.585816904)
(29745835.4854253,1636851.70081439,622965.672963856)
(28909802.1959512,1534273.74723056,1407123.30167087)
(28069376.1793753,1352022.25753311,2604558.23997552)
(26380819.2877833,987559.664402446,4934594.40257183)
(20593287.2533138,527982.018064276,12540713.8023392)
(0,0,0)
(0,0,0)
(0,0,0)
(0,0,0)
(0,0,0)
(0,0,0)
(29524215.2017346,2825682.44108358,18835.475227429)
(29511255.2899529,2819377.56639636,40495.5826911842)
(29477515.8943066,2806617.10362236,70466.7491346689)
(29401439.8175403,2786909.27769383,122792.757615326)
(29232188.2540269,2758410.2749832,236508.755905075)
(28860051.5277019,2712562.36511776,520271.16451586)
(28128417.7569842,2607102.03153198,1224681.42394723)
(27580372.7964859,2279971.82367489,2239822.60019806)
(25875628.930232,1746624.76802543,4474757.60628036)
(20265581.0657067,999062.454886942,12012523.6120451)
(0,0,0)
(0,0,0)
(0,0,0)
(0,0,0)
(0,0,0)
(0,0,0)
(27221466.994053,5220503.96938319,12572.6342068723)
(27212754.271048,5214427.93607533,27734.8911700855)
(27190238.7677469,5201355.90562362,50681.9607879047)
(27140469.5925352,5178544.04575909,94196.3946688873)
(27034542.9951934,5138059.04544873,190510.633072039)
(26819088.332041,5057599.05608049,414546.901618047)
(26430727.3436986,4876382.92533997,897248.792481026)
(25885005.5398708,4463564.78883976,1706099.25972331)
(24344545.1198514,3733861.08240744,3726815.23179986)
(19268512.9947976,2434513.39505623,11013140.6258628)
(0,0,0)
(0,0,0)
(0,0,0)
(0,0,0)
(0,0,0)
(0,0,0)
(20978754.8674859,12907422.4052302,6447.99498839436)
(20974441.0223951,12901017.1595173,14583.810080307)
(20963407.2027407,12886520.0442484,27702.6306268278)
(20939500.2973171,12859046.3709017,53520.4845766109)
(20890252.9325657,12805804.870062,109814.471701084)
(20793429.3472468,12696339.1799302,233009.344521952)
(20614191.2826423,12463705.0567924,484042.33909975)
(20270802.3405929,11980121.94044,975969.051204172)
(19269316.7533191,11004661.1866993,2427077.24360235)
(15667681.0475247,8578052.2879264,8578345.26495149)
(0,0,0)
(0,0,0)
(0,0,0)
(0,0,0)
(0,0,0)
(0,0,0)
(0,0,0)
(0,0,0)
(0,0,0)
(0,0,0)
(0,0,0)
(0,0,0)
(0,0,0)
(0,0,0)
(0,0,0)
(0,0,0)
(0,0,0)
(0,0,0)
(0,0,0)
(0,0,0)
(0,0,0)
(0,0,0)
(0,0,0)
(0,0,0)
(0,0,0)
(0,0,0)
(0,0,0)
(0,0,0)
(0,0,0)
(0,0,0)
(0,0,0)
(0,0,0)
(0,0,0)
(0,0,0)
(0,0,0)
(0,0,0)
(0,0,0)
(0,0,0)
(0,0,0)
(0,0,0)
(0,0,0)
(0,0,0)
(0,0,0)
(0,0,0)
(0,0,0)
(0,0,0)
(0,0,0)
(0,0,0)
(0,0,0)
(0,0,0)
(0,0,0)
(0,0,0)
(0,0,0)
(0,0,0)
(0,0,0)
(0,0,0)
(0,0,0)
(0,0,0)
(0,0,0)
(0,0,0)
(0,0,0)
(0,0,0)
(0,0,0)
(0,0,0)
(0,0,0)
(0,0,0)
(0,0,0)
(0,0,0)
(0,0,0)
(0,0,0)
(0,0,0)
(0,0,0)
(0,0,0)
(0,0,0)
(0,0,0)
(0,0,0)
(0,0,0)
(0,0,0)
(0,0,0)
(0,0,0)
(0,0,0)
(0,0,0)
(0,0,0)
(0,0,0)
(0,0,0)
(0,0,0)
(0,0,0)
(0,0,0)
(0,0,0)
(0,0,0)
(0,0,0)
(0,0,0)
(0,0,0)
(0,0,0)
(0,0,0)
(0,0,0)
(0,0,0)
(0,0,0)
(0,0,0)
(0,0,0)
(0,0,0)
(0,0,0)
(-551175.929784052,80319.0326652018,67370.675714907)
(-573916.13860906,75456.9202823421,141710.853172686)
(-625379.327297855,64798.5634417533,230734.17473322)
(-719040.57594143,46493.9255520924,343088.775070704)
(-879323.159013708,18741.3690903196,485683.42854005)
(-1146950.61793603,-17195.0242847845,651076.401308336)
(-1584646.27411101,-50298.9856789177,772155.018789803)
(-2277410.14793906,-57190.2211826843,574910.900221885)
(-3270618.18064159,-39316.5721260482,-943801.854551333)
(-4009187.52658116,-18003.2380959227,-7982784.50416661)
(0,0,0)
(0,0,0)
(0,0,0)
(0,0,0)
(0,0,0)
(0,0,0)
(-575199.852836597,168477.223977905,62537.1953040333)
(-597552.000305665,159329.726388555,131068.410450894)
(-648493.907242318,138890.772850709,212463.169460837)
(-742265.988004251,102520.163495739,315361.036960216)
(-905026.187983553,43866.3118344556,449771.524932458)
(-1179964.58480224,-39684.3855906111,618046.721078821)
(-1627989.75435561,-126808.527559802,765314.867660808)
(-2314075.36186949,-141551.891832644,592763.682719574)
(-3289030.34517923,-87956.2220906926,-922549.85716031)
(-4015710.66359396,-36836.4342593885,-7964827.45292391)
(0,0,0)
(0,0,0)
(0,0,0)
(0,0,0)
(0,0,0)
(0,0,0)
(-628896.287961662,271820.995906088,53371.5903068025)
(-650528.506911075,259739.660784406,110574.835829642)
(-700559.423780782,232229.365677028,176086.502335317)
(-795249.37941762,181113.127882737,256751.900833061)
(-966479.307342333,91438.6431352774,366259.255595447)
(-1269817.91241544,-56357.327399413,530959.839667209)
(-1772783.60224355,-248492.687539704,750573.587676759)
(-2440869.88196966,-275436.504124901,646347.946116377)
(-3344745.52943741,-141210.937436467,-871488.217028767)
(-4033612.4013681,-49545.934008871,-7928087.12205219)
(0,0,0)
(0,0,0)
(0,0,0)
(0,0,0)
(0,0,0)
(0,0,0)
(-724977.47195732,395619.829814491,41287.3131819516)
(-745480.094919863,382899.862183369,83007.1669155391)
(-794076.308469639,353795.228572681,124960.925738813)
(-890718.453896825,298676.242596357,167102.914868288)
(-1081102.74452513,195972.965487448,218504.853196584)
(-1467693.54627596,-153.679648802337,338877.844846778)
(-2222399.61971394,-347120.108866836,723689.979417323)
(-2855560.76618673,-401531.474651208,780627.281153469)
(-3484124.48515401,-139383.485337793,-779826.725959539)
(-4071909.99750502,-30507.262508835,-7878643.51600142)
(0,0,0)
(0,0,0)
(0,0,0)
(0,0,0)
(0,0,0)
(0,0,0)
(-886466.165477396,539141.716071285,28572.7267438151)
(-905284.780411572,528258.236996809,53897.1094143314)
(-951181.96821488,504183.603689007,69885.8129316991)
(-1047850.44542923,461445.474524115,64439.623063857)
(-1260837.28192924,390464.145963237,22389.0328296409)
(-1806185.75021335,281967.308253076,-8120.03358802558)
(-3588646.09385543,158245.467127515,669203.838347626)
(-4257580.45939949,102332.547455997,1042731.22289956)
(-3757312.94037024,90064.8376751217,-670970.960882909)
(-4134618.21703575,57136.6855352989,-7848145.71968889)
(0,0,0)
(0,0,0)
(0,0,0)
(0,0,0)
(0,0,0)
(0,0,0)
(-1152591.46465686,684895.136703095,17707.0805012372)
(-1169081.6888328,677198.527966027,29851.1741038858)
(-1210228.25230352,661256.120153203,27175.7133400601)
(-1300137.06432009,635659.665792229,-6518.92374334777)
(-1507240.90064761,597304.674285985,-86124.2285403498)
(-2051211.22059772,540055.405707163,-131924.203254542)
(-3746768.39272647,458930.694220339,613126.734624559)
(-4359627.11756164,412468.140325377,1030350.11183975)
(-3884270.37496922,297931.768204448,-703981.69062219)
(-4197105.92690898,148451.97000381,-7905321.09835235)
(0,0,0)
(0,0,0)
(0,0,0)
(0,0,0)
(0,0,0)
(0,0,0)
(-1587777.35376711,763693.338650812,10104.2528089168)
(-1601360.66285953,759342.014512497,14005.6226441339)
(-1635977.88353107,751924.370742999,1611.9871427803)
(-1714351.21043236,744612.808976528,-44877.4356640751)
(-1904508.65836158,742994.553630521,-143410.770691209)
(-2437143.79878747,750792.972557101,-213133.997370342)
(-4205521.38183208,752612.642805921,566542.687785342)
(-4771945.55107348,862745.925316337,915621.68920109)
(-4076097.07685719,482166.667424848,-853661.78942065)
(-4300161.85476001,200173.285941716,-8053898.94132692)
(0,0,0)
(0,0,0)
(0,0,0)
(0,0,0)
(0,0,0)
(0,0,0)
(-2282487.03155574,522582.557382595,5848.07051644725)
(-2292712.43784982,520484.839768012,6708.02902158236)
(-2319125.70575102,518930.631595088,-5621.57581492779)
(-2380591.5034521,525529.204113314,-46471.5940013413)
(-2537929.93594277,560338.169246952,-135661.963690122)
(-3026506.637253,671166.5393852,-211442.309605561)
(-4957823.43040313,908968.83516286,676477.74138274)
(-4041271.62764859,584184.76065421,534718.386137337)
(-4228727.92418592,215229.212514636,-1135952.2485765)
(-4459698.72701235,1826.32550641157,-8254290.43946417)
(0,0,0)
(0,0,0)
(0,0,0)
(0,0,0)
(0,0,0)
(0,0,0)
(-3278911.64389737,-1022829.92525679,3826.17654759871)
(-3285539.53327762,-1024515.86238159,5155.7389807087)
(-3302448.8642336,-1026096.32878369,905.387297876283)
(-3340255.53581423,-1023079.0980657,-11726.1262157358)
(-3426912.36785351,-1006925.28993857,-24972.2480252825)
(-3634003.23366052,-968777.633268292,26098.5462874774)
(-4086676.15523721,-940870.071010744,351376.007354795)
(-4235413.35524586,-1151319.21344279,165333.932526271)
(-4625188.85368364,-1341916.90879149,-1349750.91667463)
(-4698290.98685403,-1166657.84140312,-8256427.71215562)
(0,0,0)
(0,0,0)
(0,0,0)
(0,0,0)
(0,0,0)
(0,0,0)
(-4015563.51160032,-8072582.99641,2106.50619739199)
(-4018770.41718573,-8074654.1596716,3491.29902610703)
(-4026861.22426391,-8078071.94843527,3770.40164019831)
(-4044351.57424133,-8081689.99618701,4268.22727773377)
(-4081595.93894304,-8085753.05364665,12979.918452499)
(-4159598.87483004,-8098442.91682532,53708.4800442322)
(-4303700.91299898,-8151790.01782091,140555.678453635)
(-4464283.79214922,-8291928.19715387,-25714.1491353999)
(-4699659.80761779,-8265736.19452505,-1174883.24650712)
(-4535335.66344824,-7090413.81192352,-7090075.5090559)
(0,0,0)
(0,0,0)
(0,0,0)
(0,0,0)
(0,0,0)
(0,0,0)
(0,0,0)
(0,0,0)
(0,0,0)
(0,0,0)
(0,0,0)
(0,0,0)
(0,0,0)
(0,0,0)
(0,0,0)
(0,0,0)
(0,0,0)
(0,0,0)
(0,0,0)
(0,0,0)
(0,0,0)
(0,0,0)
(0,0,0)
(0,0,0)
(0,0,0)
(0,0,0)
(0,0,0)
(0,0,0)
(0,0,0)
(0,0,0)
(0,0,0)
(0,0,0)
(0,0,0)
(0,0,0)
(0,0,0)
(0,0,0)
(0,0,0)
(0,0,0)
(0,0,0)
(0,0,0)
(0,0,0)
(0,0,0)
(0,0,0)
(0,0,0)
(0,0,0)
(0,0,0)
(0,0,0)
(0,0,0)
(0,0,0)
(0,0,0)
(0,0,0)
(0,0,0)
(0,0,0)
(0,0,0)
(0,0,0)
(0,0,0)
(0,0,0)
(0,0,0)
(0,0,0)
(0,0,0)
(0,0,0)
(0,0,0)
(0,0,0)
(0,0,0)
(0,0,0)
(0,0,0)
(0,0,0)
(0,0,0)
(0,0,0)
(0,0,0)
(0,0,0)
(0,0,0)
(0,0,0)
(0,0,0)
(0,0,0)
(0,0,0)
(0,0,0)
(0,0,0)
(0,0,0)
(0,0,0)
(0,0,0)
(0,0,0)
(0,0,0)
(0,0,0)
(0,0,0)
(0,0,0)
(0,0,0)
(0,0,0)
(0,0,0)
(0,0,0)
(0,0,0)
(0,0,0)
(0,0,0)
(0,0,0)
(0,0,0)
(0,0,0)
(0,0,0)
(0,0,0)
(0,0,0)
(0,0,0)
(0,0,0)
(0,0,0)
(-651905.60128811,56198.4413667214,44531.2301373386)
(-671193.051863627,51720.7206595673,90087.4227323426)
(-713705.135850418,41578.4244917085,136834.806793199)
(-787887.66888969,23191.5813122569,182490.318429199)
(-907660.598450021,-7000.10510465051,217827.86297016)
(-1092052.69711439,-50205.4711167992,213135.413265315)
(-1357125.65269908,-93576.2652011728,79191.0570545635)
(-1685825.25579611,-93780.7780740479,-418613.057014335)
(-1948682.50015798,-57673.612063515,-1682875.1254344)
(-1693332.90221995,-24491.4518820261,-3974238.29791357)
(0,0,0)
(0,0,0)
(0,0,0)
(0,0,0)
(0,0,0)
(0,0,0)
(-673736.610834931,114639.250931659,40095.9484333967)
(-691946.138223433,106222.792933255,79988.0140774762)
(-732107.85929674,86683.3758646998,118497.014758909)
(-802351.611331447,49426.8057978662,152347.413600489)
(-916687.573237299,-17644.6364611746,174653.330210757)
(-1095811.71130298,-129539.444705323,169834.430300028)
(-1359232.14505361,-271532.468701887,79033.0244987421)
(-1677993.8337134,-268291.914510771,-382537.367220616)
(-1935878.00007399,-143622.315570316,-1649741.00881903)
(-1685443.86424851,-54706.1417638848,-3949793.1182827)
(0,0,0)
(0,0,0)
(0,0,0)
(0,0,0)
(0,0,0)
(0,0,0)
(-721563.620484703,175599.929531608,31706.6539230953)
(-737691.961652308,164637.406424895,60455.4951726862)
(-773207.864807441,138533.957565877,81253.3544981666)
(-835391.779828486,85508.6228766797,85313.93783022)
(-938363.068172864,-23228.6023523895,62781.6645519643)
(-1110242.73797976,-254205.048708605,27872.0941195559)
(-1400668.99333728,-698058.152390205,82283.1689016045)
(-1678898.43861281,-690106.048839429,-257874.140126602)
(-1904775.26961487,-280580.431187937,-1560886.28433151)
(-1666169.82759937,-87828.7738799236,-3895206.22598422)
(0,0,0)
(0,0,0)
(0,0,0)
(0,0,0)
(0,0,0)
(0,0,0)
(-804155.174036289,233998.205334222,20779.4262763632)
(-817357.997278359,222962.528670532,34332.2063892282)
(-845993.620479179,196565.316619783,28218.1593448653)
(-895039.640970508,141456.178641299,-23408.2093460696)
(-975815.93959166,16238.52010603,-168162.136737955)
(-1135511.22809453,-338615.350235742,-415934.15339225)
(-1713323.41153216,-1713353.30561163,90284.7916473959)
(-1803526.923466,-1803515.79118681,151660.691274047)
(-1832307.81918126,-412540.576496085,-1368195.82939056)
(-1627190.5447988,-93198.1871689619,-3807545.86880779)
(0,0,0)
(0,0,0)
(0,0,0)
(0,0,0)
(0,0,0)
(0,0,0)
(-934929.483200287,272704.697512804,9756.8255443051)
(-944687.755771546,264177.418877924,7944.91069688912)
(-964726.737743066,244903.58611419,-26848.5892693259)
(-993615.488825481,208959.878108482,-148587.24534026)
(-1014150.67062505,143937.18991437,-522972.526452793)
(-913961.497267341,36846.733326155,-1790658.8629607)
(2.9677382979764e-05,7.59257377283777e-06,-1.93817824714473e-05)