/*--------------------------------*- C++ -*----------------------------------*\
| =========                 |                                                 |
| \\      /  F ield         | foam-extend: Open Source CFD                    |
|  \\    /   O peration     | Version:     4.0                                |
|   \\  /    A nd           | Web:         http://www.foam-extend.org         |
|    \\/     M anipulation  |                                                 |
\*---------------------------------------------------------------------------*/
FoamFile
{
    version 2.0;
    format ascii;
    class volVectorField;
    location "2370";
    object      E;
}
// * * * * * * * * * * * * * * * * * * * * * * * * * * * * * * * * * * * * * //

dimensions      [0 1 -1 0 0 0 0];

internalField   nonuniform List<vector>
4096
(
(0,0,0)
(0,0,0)
(0,0,0)
(0,0,0)
(0,0,0)
(0,0,0)
(0,0,0)
(0,0,0)
(0,0,0)
(0,0,0)
(0,0,0)
(0,0,0)
(0,0,0)
(0,0,0)
(0,0,0)
(0,0,0)
(0,0,0)
(0,0,0)
(0,0,0)
(0,0,0)
(0,0,0)
(0,0,0)
(0,0,0)
(0,0,0)
(0,0,0)
(0,0,0)
(0,0,0)
(0,0,0)
(0,0,0)
(0,0,0)
(0,0,0)
(0,0,0)
(0,0,0)
(0,0,0)
(0,0,0)
(0,0,0)
(0,0,0)
(0,0,0)
(0,0,0)
(0,0,0)
(0,0,0)
(0,0,0)
(0,0,0)
(0,0,0)
(0,0,0)
(0,0,0)
(0,0,0)
(0,0,0)
(0,0,0)
(0,0,0)
(0,0,0)
(0,0,0)
(0,0,0)
(0,0,0)
(0,0,0)
(0,0,0)
(0,0,0)
(0,0,0)
(0,0,0)
(0,0,0)
(0,0,0)
(0,0,0)
(0,0,0)
(0,0,0)
(0,0,0)
(0,0,0)
(0,0,0)
(0,0,0)
(0,0,0)
(0,0,0)
(0,0,0)
(0,0,0)
(0,0,0)
(0,0,0)
(0,0,0)
(0,0,0)
(0,0,0)
(0,0,0)
(0,0,0)
(0,0,0)
(0,0,0)
(0,0,0)
(0,0,0)
(0,0,0)
(0,0,0)
(0,0,0)
(0,0,0)
(0,0,0)
(0,0,0)
(0,0,0)
(0,0,0)
(0,0,0)
(0,0,0)
(0,0,0)
(0,0,0)
(0,0,0)
(0,0,0)
(0,0,0)
(0,0,0)
(0,0,0)
(0,0,0)
(0,0,0)
(0,0,0)
(0,0,0)
(0,0,0)
(0,0,0)
(0,0,0)
(0,0,0)
(0,0,0)
(0,0,0)
(0,0,0)
(0,0,0)
(0,0,0)
(0,0,0)
(0,0,0)
(0,0,0)
(0,0,0)
(0,0,0)
(0,0,0)
(0,0,0)
(0,0,0)
(0,0,0)
(0,0,0)
(0,0,0)
(0,0,0)
(0,0,0)
(0,0,0)
(0,0,0)
(0,0,0)
(0,0,0)
(0,0,0)
(0,0,0)
(0,0,0)
(0,0,0)
(0,0,0)
(0,0,0)
(0,0,0)
(0,0,0)
(0,0,0)
(0,0,0)
(0,0,0)
(0,0,0)
(0,0,0)
(0,0,0)
(0,0,0)
(0,0,0)
(0,0,0)
(0,0,0)
(0,0,0)
(0,0,0)
(0,0,0)
(0,0,0)
(0,0,0)
(0,0,0)
(0,0,0)
(0,0,0)
(0,0,0)
(0,0,0)
(0,0,0)
(0,0,0)
(0,0,0)
(0,0,0)
(0,0,0)
(0,0,0)
(0,0,0)
(0,0,0)
(0,0,0)
(0,0,0)
(0,0,0)
(0,0,0)
(0,0,0)
(0,0,0)
(0,0,0)
(0,0,0)
(0,0,0)
(0,0,0)
(0,0,0)
(0,0,0)
(0,0,0)
(0,0,0)
(0,0,0)
(0,0,0)
(0,0,0)
(0,0,0)
(0,0,0)
(0,0,0)
(0,0,0)
(0,0,0)
(0,0,0)
(0,0,0)
(0,0,0)
(0,0,0)
(0,0,0)
(0,0,0)
(0,0,0)
(0,0,0)
(0,0,0)
(0,0,0)
(0,0,0)
(0,0,0)
(0,0,0)
(0,0,0)
(0,0,0)
(0,0,0)
(0,0,0)
(0,0,0)
(0,0,0)
(0,0,0)
(0,0,0)
(0,0,0)
(0,0,0)
(0,0,0)
(0,0,0)
(0,0,0)
(0,0,0)
(0,0,0)
(0,0,0)
(0,0,0)
(0,0,0)
(0,0,0)
(0,0,0)
(0,0,0)
(0,0,0)
(0,0,0)
(0,0,0)
(0,0,0)
(0,0,0)
(0,0,0)
(0,0,0)
(0,0,0)
(0,0,0)
(0,0,0)
(0,0,0)
(0,0,0)
(0,0,0)
(0,0,0)
(0,0,0)
(0,0,0)
(0,0,0)
(0,0,0)
(0,0,0)
(0,0,0)
(0,0,0)
(0,0,0)
(0,0,0)
(0,0,0)
(0,0,0)
(0,0,0)
(0,0,0)
(0,0,0)
(0,0,0)
(0,0,0)
(0,0,0)
(0,0,0)
(0,0,0)
(0,0,0)
(0,0,0)
(0,0,0)
(0,0,0)
(0,0,0)
(0,0,0)
(0,0,0)
(0,0,0)
(0,0,0)
(0,0,0)
(0,0,0)
(0,0,0)
(0,0,0)
(0,0,0)
(0,0,0)
(0,0,0)
(0,0,0)
(0,0,0)
(0,0,0)
(0,0,0)
(0,0,0)
(0,0,0)
(0,0,0)
(0,0,0)
(0,0,0)
(0,0,0)
(0,0,0)
(0,0,0)
(0,0,0)
(0,0,0)
(0,0,0)
(0,0,0)
(0,0,0)
(0,0,0)
(0,0,0)
(0,0,0)
(0,0,0)
(0,0,0)
(0,0,0)
(0,0,0)
(0,0,0)
(0,0,0)
(0,0,0)
(0,0,0)
(0,0,0)
(0,0,0)
(0,0,0)
(0,0,0)
(0,0,0)
(0,0,0)
(0,0,0)
(0,0,0)
(0,0,0)
(0,0,0)
(0,0,0)
(0,0,0)
(0,0,0)
(0,0,0)
(0,0,0)
(0,0,0)
(0,0,0)
(0,0,0)
(0,0,0)
(0,0,0)
(0,0,0)
(0,0,0)
(0,0,0)
(0,0,0)
(0,0,0)
(0,0,0)
(0,0,0)
(0,0,0)
(0,0,0)
(0,0,0)
(0,0,0)
(0,0,0)
(0,0,0)
(0,0,0)
(0,0,0)
(0,0,0)
(0,0,0)
(0,0,0)
(0,0,0)
(0,0,0)
(0,0,0)
(0,0,0)
(0,0,0)
(0,0,0)
(0,0,0)
(0,0,0)
(0,0,0)
(0,0,0)
(0,0,0)
(0,0,0)
(0,0,0)
(0,0,0)
(0,0,0)
(0,0,0)
(0,0,0)
(0,0,0)
(0,0,0)
(0,0,0)
(0,0,0)
(0,0,0)
(0,0,0)
(0,0,0)
(0,0,0)
(0,0,0)
(0,0,0)
(0,0,0)
(0,0,0)
(0,0,0)
(0,0,0)
(0,0,0)
(0,0,0)
(0,0,0)
(0,0,0)
(0,0,0)
(0,0,0)
(0,0,0)
(0,0,0)
(0,0,0)
(0,0,0)
(0,0,0)
(0,0,0)
(0,0,0)
(0,0,0)
(0,0,0)
(0,0,0)
(0,0,0)
(0,0,0)
(0,0,0)
(0,0,0)
(0,0,0)
(0,0,0)
(0,0,0)
(0,0,0)
(0,0,0)
(0,0,0)
(0,0,0)
(0,0,0)
(0,0,0)
(0,0,0)
(0,0,0)
(0,0,0)
(0,0,0)
(0,0,0)
(0,0,0)
(0,0,0)
(0,0,0)
(0,0,0)
(0,0,0)
(0,0,0)
(0,0,0)
(0,0,0)
(0,0,0)
(0,0,0)
(0,0,0)
(0,0,0)
(0,0,0)
(0,0,0)
(0,0,0)
(0,0,0)
(0,0,0)
(0,0,0)
(0,0,0)
(0,0,0)
(0,0,0)
(0,0,0)
(0,0,0)
(0,0,0)
(0,0,0)
(0,0,0)
(0,0,0)
(0,0,0)
(0,0,0)
(0,0,0)
(0,0,0)
(0,0,0)
(0,0,0)
(0,0,0)
(0,0,0)
(0,0,0)
(0,0,0)
(0,0,0)
(0,0,0)
(0,0,0)
(0,0,0)
(0,0,0)
(0,0,0)
(0,0,0)
(0,0,0)
(0,0,0)
(0,0,0)
(0,0,0)
(0,0,0)
(0,0,0)
(0,0,0)
(0,0,0)
(0,0,0)
(0,0,0)
(0,0,0)
(0,0,0)
(0,0,0)
(0,0,0)
(0,0,0)
(0,0,0)
(0,0,0)
(0,0,0)
(0,0,0)
(0,0,0)
(0,0,0)
(0,0,0)
(0,0,0)
(0,0,0)
(0,0,0)
(0,0,0)
(0,0,0)
(0,0,0)
(0,0,0)
(0,0,0)
(0,0,0)
(0,0,0)
(0,0,0)
(0,0,0)
(0,0,0)
(0,0,0)
(0,0,0)
(0,0,0)
(0,0,0)
(0,0,0)
(0,0,0)
(0,0,0)
(0,0,0)
(0,0,0)
(0,0,0)
(0,0,0)
(0,0,0)
(0,0,0)
(0,0,0)
(0,0,0)
(0,0,0)
(0,0,0)
(0,0,0)
(0,0,0)
(0,0,0)
(0,0,0)
(0,0,0)
(0,0,0)
(0,0,0)
(0,0,0)
(0,0,0)
(0,0,0)
(0,0,0)
(0,0,0)
(0,0,0)
(0,0,0)
(0,0,0)
(0,0,0)
(0,0,0)
(0,0,0)
(0,0,0)
(0,0,0)
(0,0,0)
(0,0,0)
(0,0,0)
(0,0,0)
(0,0,0)
(0,0,0)
(0,0,0)
(0,0,0)
(0,0,0)
(0,0,0)
(0,0,0)
(0,0,0)
(0,0,0)
(0,0,0)
(0,0,0)
(0,0,0)
(0,0,0)
(0,0,0)
(0,0,0)
(0,0,0)
(0,0,0)
(0,0,0)
(0,0,0)
(0,0,0)
(0,0,0)
(0,0,0)
(0,0,0)
(0,0,0)
(0,0,0)
(0,0,0)
(0,0,0)
(0,0,0)
(0,0,0)
(0,0,0)
(0,0,0)
(0,0,0)
(0,0,0)
(0,0,0)
(0,0,0)
(0,0,0)
(0,0,0)
(0,0,0)
(0,0,0)
(0,0,0)
(0,0,0)
(0,0,0)
(0,0,0)
(0,0,0)
(0,0,0)
(0,0,0)
(0,0,0)
(0,0,0)
(0,0,0)
(0,0,0)
(0,0,0)
(0,0,0)
(0,0,0)
(0,0,0)
(0,0,0)
(0,0,0)
(0,0,0)
(0,0,0)
(0,0,0)
(0,0,0)
(0,0,0)
(0,0,0)
(0,0,0)
(0,0,0)
(0,0,0)
(0,0,0)
(0,0,0)
(0,0,0)
(0,0,0)
(0,0,0)
(0,0,0)
(0,0,0)
(0,0,0)
(0,0,0)
(0,0,0)
(0,0,0)
(0,0,0)
(0,0,0)
(0,0,0)
(0,0,0)
(0,0,0)
(0,0,0)
(0,0,0)
(0,0,0)
(0,0,0)
(0,0,0)
(0,0,0)
(0,0,0)
(0,0,0)
(0,0,0)
(0,0,0)
(0,0,0)
(0,0,0)
(0,0,0)
(0,0,0)
(0,0,0)
(0,0,0)
(0,0,0)
(0,0,0)
(0,0,0)
(0,0,0)
(0,0,0)
(0,0,0)
(0,0,0)
(0,0,0)
(0,0,0)
(0,0,0)
(0,0,0)
(0,0,0)
(0,0,0)
(0,0,0)
(0,0,0)
(0,0,0)
(0,0,0)
(0,0,0)
(0,0,0)
(0,0,0)
(0,0,0)
(0,0,0)
(0,0,0)
(0,0,0)
(0,0,0)
(0,0,0)
(0,0,0)
(0,0,0)
(0,0,0)
(0,0,0)
(0,0,0)
(0,0,0)
(0,0,0)
(0,0,0)
(0,0,0)
(0,0,0)
(0,0,0)
(0,0,0)
(0,0,0)
(0,0,0)
(0,0,0)
(0,0,0)
(0,0,0)
(0,0,0)
(0,0,0)
(0,0,0)
(0,0,0)
(0,0,0)
(0,0,0)
(0,0,0)
(0,0,0)
(0,0,0)
(0,0,0)
(0,0,0)
(0,0,0)
(0,0,0)
(0,0,0)
(0,0,0)
(0,0,0)
(0,0,0)
(0,0,0)
(0,0,0)
(0,0,0)
(0,0,0)
(0,0,0)
(0,0,0)
(0,0,0)
(0,0,0)
(0,0,0)
(0,0,0)
(0,0,0)
(0,0,0)
(0,0,0)
(0,0,0)
(0,0,0)
(0,0,0)
(0,0,0)
(0,0,0)
(0,0,0)
(0,0,0)
(0,0,0)
(0,0,0)
(0,0,0)
(0,0,0)
(0,0,0)
(0,0,0)
(0,0,0)
(0,0,0)
(0,0,0)
(0,0,0)
(0,0,0)
(0,0,0)
(0,0,0)
(0,0,0)
(0,0,0)
(0,0,0)
(0,0,0)
(0,0,0)
(0,0,0)
(0,0,0)
(0,0,0)
(0,0,0)
(0,0,0)
(0,0,0)
(0,0,0)
(0,0,0)
(0,0,0)
(0,0,0)
(0,0,0)
(0,0,0)
(0,0,0)
(0,0,0)
(0,0,0)
(0,0,0)
(0,0,0)
(0,0,0)
(0,0,0)
(0,0,0)
(0,0,0)
(0,0,0)
(0,0,0)
(0,0,0)
(0,0,0)
(0,0,0)
(0,0,0)
(0,0,0)
(0,0,0)
(0,0,0)
(0,0,0)
(0,0,0)
(0,0,0)
(0,0,0)
(0,0,0)
(0,0,0)
(0,0,0)
(0,0,0)
(0,0,0)
(0,0,0)
(0,0,0)
(0,0,0)
(0,0,0)
(0,0,0)
(0,0,0)
(0,0,0)
(0,0,0)
(0,0,0)
(0,0,0)
(0,0,0)
(0,0,0)
(0,0,0)
(0,0,0)
(0,0,0)
(0,0,0)
(0,0,0)
(0,0,0)
(0,0,0)
(0,0,0)
(0,0,0)
(0,0,0)
(0,0,0)
(0,0,0)
(0,0,0)
(0,0,0)
(0,0,0)
(0,0,0)
(0,0,0)
(0,0,0)
(0,0,0)
(0,0,0)
(0,0,0)
(0,0,0)
(0,0,0)
(0,0,0)
(0,0,0)
(0,0,0)
(0,0,0)
(0,0,0)
(0,0,0)
(0,0,0)
(0,0,0)
(0,0,0)
(0,0,0)
(0,0,0)
(0,0,0)
(0,0,0)
(0,0,0)
(0,0,0)
(0,0,0)
(0,0,0)
(0,0,0)
(0,0,0)
(0,0,0)
(0,0,0)
(0,0,0)
(0,0,0)
(0,0,0)
(0,0,0)
(0,0,0)
(0,0,0)
(0,0,0)
(-132814.152263028,70662.6027151552,62151.549547871)
(-140467.35936086,67762.736316201,134856.17259253)
(-158192.370398152,61732.2869334302,231316.256057252)
(-191695.932625418,52228.5279669006,370783.660715775)
(-252104.645717728,39352.2293392151,583536.077094296)
(-360497.447748916,24551.680871362,919481.843971844)
(-556738.390614388,11150.4068431085,1465069.82774315)
(-911366.342611531,2923.69261639537,2373512.47773832)
(-1503014.53626111,162.188892695375,3876364.8251067)
(-2094107.94940103,-125.486126021025,5970598.26063379)
(0,0,0)
(0,0,0)
(0,0,0)
(0,0,0)
(0,0,0)
(0,0,0)
(-140503.959355796,151966.226610028,59200.3354609211)
(-148221.657203709,146453.815465212,128730.913515625)
(-166209.689536333,134946.703308914,221726.18667647)
(-200495.589712983,116602.190904679,357848.113451681)
(-262574.298548944,91152.8444109978,568621.796928831)
(-373574.405376909,60870.3389855229,905877.544191578)
(-571987.022781586,32327.7654172435,1456687.20839903)
(-925253.106695707,14215.9916177102,2370648.01609334)
(-1512290.71049832,7032.39979525277,3876068.51568915)
(-2098445.0544552,3596.53826595755,5970791.54575229)
(0,0,0)
(0,0,0)
(0,0,0)
(0,0,0)
(0,0,0)
(0,0,0)
(-158029.317935766,256327.284802248,53668.2597435456)
(-165886.596163765,248906.856868566,117101.81450396)
(-184432.811531363,233295.783284408,203185.546059834)
(-220413.58534625,207950.859219376,332250.463091389)
(-286453.712520696,171680.501381573,538176.518641498)
(-404340.52851107,126332.401538778,877054.984599312)
(-609588.7408535,80565.4963886117,1438405.99448146)
(-959872.014057458,49090.8482127355,2363403.15194387)
(-1534585.50864842,32383.8001470831,3872637.26024049)
(-2108544.67880726,17543.402256851,5967235.07505692)
(0,0,0)
(0,0,0)
(0,0,0)
(0,0,0)
(0,0,0)
(0,0,0)
(-190711.154029347,400757.749037609,46280.6897939865)
(-198725.377703951,392514.665036347,101398.259330159)
(-217991.593092853,374986.516726701,177699.118980711)
(-256413.632416225,346135.575359497,295928.035256807)
(-328974.917275737,303769.007476633,492814.44643749)
(-460071.133370652,248110.341274635,831107.640072288)
(-681609.912921661,186458.177629089,1406824.87175347)
(-1026857.620146,136055.107563458,2346718.23254868)
(-1575437.96737378,96690.0820064331,3857849.91806307)
(-2126371.8828921,52030.6411708577,5949734.5620413)
(0,0,0)
(0,0,0)
(0,0,0)
(0,0,0)
(0,0,0)
(0,0,0)
(-249284.441020348,611996.639909285,38045.5501486685)
(-257255.181116964,603980.857554464,83834.5387475121)
(-276913.091817323,586899.873661702,148834.273629836)
(-317405.890624872,558705.925223954,253669.81439025)
(-396708.836040485,516902.859583121,437244.798324249)
(-544177.486391045,460170.398603975,769362.227385931)
(-791341.100199343,390753.335192795,1356408.17002157)
(-1128882.86567784,313927.346943744,2307418.79631913)
(-1634829.65141034,225675.10005178,3813263.42968421)
(-2152140.13557458,119628.960775759,5897805.24565386)
(0,0,0)
(0,0,0)
(0,0,0)
(0,0,0)
(0,0,0)
(0,0,0)
(-354995.3921491,936955.304934633,30036.7271237562)
(-362548.23524114,929801.7529264,66764.0669929567)
(-381565.272503381,914508.024486845,120721.188671195)
(-421683.212388416,889073.142912806,212037.183370756)
(-501829.66040058,850148.640334045,380621.063020417)
(-652106.64181543,792926.507231906,699971.596207935)
(-900023.919494508,711070.377897435,1279678.47299781)
(-1222229.41227418,596497.571239216,2219337.66097652)
(-1699167.46806187,436773.46005665,3707406.76903359)
(-2184551.10361185,233164.08570089,5778422.74772015)
(0,0,0)
(0,0,0)
(0,0,0)
(0,0,0)
(0,0,0)
(0,0,0)
(-549031.963434591,1463027.46997557,22959.7983936511)
(-555731.716351305,1456826.05111706,51667.2165543109)
(-572801.786668185,1443445.698771,95531.3289383487)
(-609442.928626342,1420677.7349521,173369.665525399)
(-683879.238299626,1383797.33156486,323600.212594211)
(-825066.513534186,1323341.23090542,618252.002454878)
(-1057728.35369395,1221751.04836232,1165299.68568395)
(-1350705.60015444,1052625.62768634,2059877.22939127)
(-1795038.0181343,787608.229181675,3504080.47840049)
(-2237426.41476815,429131.533313973,5545539.44555569)
(0,0,0)
(0,0,0)
(0,0,0)
(0,0,0)
(0,0,0)
(0,0,0)
(-903818.72740896,2350007.15545794,16839.0419265921)
(-909202.472518231,2344350.11112313,38517.4544387509)
(-922968.539018281,2331888.74974046,73042.9424875789)
(-952760.994064919,2309726.90765317,136754.763851422)
(-1013929.56297617,2271141.93345628,263339.724936154)
(-1131275.40192285,2201148.3972246,516807.960539813)
(-1326107.04747603,2068235.82527994,996430.231098207)
(-1563281.55884689,1817181.28188195,1795156.13574951)
(-1969077.60410941,1405847.12610016,3145994.84294044)
(-2338562.75884318,796857.400768668,5116831.73432886)
(0,0,0)
(0,0,0)
(0,0,0)
(0,0,0)
(0,0,0)
(0,0,0)
(-1497903.94245738,3836636.5527454,11274.5451698922)
(-1501579.86566034,3830960.24257208,26244.2793813053)
(-1510932.76833783,3817976.19241785,51089.6050417057)
(-1530961.00129939,3793404.42936751,98373.0846267346)
(-1571361.81958019,3747290.51253944,193586.325123764)
(-1647277.49075035,3657860.44364201,384151.769456714)
(-1774801.2299277,3481478.72572434,745710.098940023)
(-1964246.77321286,3142979.4394941,1384158.71454074)
(-2290077.11265071,2542629.86487881,2537453.08841272)
(-2514948.2584751,1528751.78496338,4320506.96269313)
(0,0,0)
(0,0,0)
(0,0,0)
(0,0,0)
(0,0,0)
(0,0,0)
(-2091756.33392931,5922654.53757477,5738.34909996252)
(-2093604.38887886,5916752.65895363,13550.3215972747)
(-2098259.97464995,5902942.78956896,26843.6990961443)
(-2108102.90968977,5875817.47663834,52533.5615151242)
(-2127657.91927351,5823047.73926312,104434.254064991)
(-2164204.23193931,5718402.12507204,208096.804574247)
(-2228015.7548107,5509965.54301138,407625.742097903)
(-2335540.49804033,5101903.9349708,784241.744661493)
(-2514344.38152527,4317203.8195357,1524012.17152983)
(-2532215.92014685,2792716.68097527,2792263.19566482)
(0,0,0)
(0,0,0)
(0,0,0)
(0,0,0)
(0,0,0)
(0,0,0)
(0,0,0)
(0,0,0)
(0,0,0)
(0,0,0)
(0,0,0)
(0,0,0)
(0,0,0)
(0,0,0)
(0,0,0)
(0,0,0)
(0,0,0)
(0,0,0)
(0,0,0)
(0,0,0)
(0,0,0)
(0,0,0)
(0,0,0)
(0,0,0)
(0,0,0)
(0,0,0)
(0,0,0)
(0,0,0)
(0,0,0)
(0,0,0)
(0,0,0)
(0,0,0)
(0,0,0)
(0,0,0)
(0,0,0)
(0,0,0)
(0,0,0)
(0,0,0)
(0,0,0)
(0,0,0)
(0,0,0)
(0,0,0)
(0,0,0)
(0,0,0)
(0,0,0)
(0,0,0)
(0,0,0)
(0,0,0)
(0,0,0)
(0,0,0)
(0,0,0)
(0,0,0)
(0,0,0)
(0,0,0)
(0,0,0)
(0,0,0)
(0,0,0)
(0,0,0)
(0,0,0)
(0,0,0)
(0,0,0)
(0,0,0)
(0,0,0)
(0,0,0)
(0,0,0)
(0,0,0)
(0,0,0)
(0,0,0)
(0,0,0)
(0,0,0)
(0,0,0)
(0,0,0)
(0,0,0)
(0,0,0)
(0,0,0)
(0,0,0)
(0,0,0)
(0,0,0)
(0,0,0)
(0,0,0)
(0,0,0)
(0,0,0)
(0,0,0)
(0,0,0)
(0,0,0)
(0,0,0)
(0,0,0)
(0,0,0)
(0,0,0)
(0,0,0)
(0,0,0)
(0,0,0)
(0,0,0)
(0,0,0)
(0,0,0)
(0,0,0)
(0,0,0)
(0,0,0)
(0,0,0)
(0,0,0)
(0,0,0)
(0,0,0)
(19639409.2462992,62961.1968933014,54487.5576309094)
(19626560.2224179,59999.8921561753,117132.236782485)
(19597101.6747167,53678.4145148151,197831.930239182)
(19542027.3354207,43368.5406307968,310412.274648701)
(19443988.1075746,28832.0315779762,475159.642864877)
(19269651.6837519,11441.0559134242,723241.60853697)
(18949871.2647196,-4120.21981626243,1110424.32610556)
(18317996.4216709,-10993.1000648351,1781726.81497446)
(16892389.4606323,-9120.01192020901,3285114.98308777)
(13020602.3116811,-4474.16280960401,8064551.03790165)
(0,0,0)
(0,0,0)
(0,0,0)
(0,0,0)
(0,0,0)
(0,0,0)
(19626264.3432048,134402.55055383,51462.4968653749)
(19613430.2507461,128767.748922512,110714.885235764)
(19583733.5421032,116674.555210451,187447.665986966)
(19527618.3255035,96587.3463167534,295787.09817092)
(19426898.7508563,67182.2112224136,457636.022207723)
(19247661.4628921,30033.3126806995,707480.050257953)
(18922992.2595655,-5334.38437725097,1103387.08555837)
(18293774.9755378,-20450.1538992714,1783488.21024574)
(16877308.8962942,-15301.3048845886,3289742.04950385)
(13013981.5828631,-6531.41228953766,8069044.81475193)
(0,0,0)
(0,0,0)
(0,0,0)
(0,0,0)
(0,0,0)
(0,0,0)
(19596597.2824047,223638.462385027,45809.6409147071)
(19583738.3260269,216092.974396627,98531.6463364095)
(19553477.919401,199748.823060528,167218.800640468)
(19494928.4731095,171885.498674693,266250.742913295)
(19387233.8669887,129074.178056963,420343.349655804)
(19193309.0398065,70542.4604019903,671856.786703408)
(18850044.6420645,8471.30590946093,1088089.86658523)
(18226838.3351034,-17964.2381198646,1788565.75473156)
(16838382.3992957,-8532.14291181533,3298500.8379011)
(12997829.3627973,-305.831412867239,8075573.3685064)
(0,0,0)
(0,0,0)
(0,0,0)
(0,0,0)
(0,0,0)
(0,0,0)
(19542137.9478517,342163.551738804,38297.9618516666)
(19529253.2974131,333951.849837892,82132.5643798668)
(19498248.8426299,316045.993503812,139267.111300305)
(19435922.5664417,285101.987303806,223386.576899727)
(19315408.5709463,235993.459603133,361755.960218068)
(19088281.7711551,163991.989103942,609625.680076837)
(18687903.9597826,76682.0031427105,1061573.26322581)
(18074423.2246849,33987.7313902224,1798012.60197127)
(16759707.5337061,37255.2093662006,3306751.90169974)
(12967610.2383444,26241.4444006276,8075894.65773637)
(0,0,0)
(0,0,0)
(0,0,0)
(0,0,0)
(0,0,0)
(0,0,0)
(19446216.9771746,506244.249209658,30090.0374206756)
(19433638.352201,498636.257549483,64184.2494775734)
(19402471.6964388,482200.216383152,108317.39142869)
(19336908.4967003,454417.962576098,174359.181917656)
(19201714.9905198,411801.12078761,289799.847259407)
(18924786.0630912,352258.124502548,522242.315465015)
(18396352.0583587,282042.586609049,1018860.72652716)
(17791805.629521,220520.87875957,1801311.23704548)
(16636375.60038,161290.199462976,3295743.1482447)
(12922660.4920855,87186.560974266,8049669.55709748)
(0,0,0)
(0,0,0)
(0,0,0)
(0,0,0)
(0,0,0)
(0,0,0)
(19275562.4839196,742866.575762915,22491.9504644313)
(19263865.2415608,736615.97469242,47770.9096060983)
(19234174.4047654,723290.746015664,80612.8557912844)
(19169787.9273158,701338.955005046,131892.876744711)
(19033045.7544285,668118.508062714,230372.227726989)
(18748187.6848229,619942.962221227,452065.216456409)
(18213042.6128984,553296.656798786,957416.766960249)
(17635214.3414424,467947.302531001,1742218.74255857)
(16531344.6567786,340858.246822601,3221810.723445)
(12871145.2359568,180270.11177652,7962702.98616052)
(0,0,0)
(0,0,0)
(0,0,0)
(0,0,0)
(0,0,0)
(0,0,0)
(18959108.544862,1108121.91422087,16276.3063319193)
(18948913.9056027,1103301.29278568,34617.5193711449)
(18922606.0715927,1093273.7430265,58898.817186023)
(18864162.4642931,1077363.48529591,98941.0470621755)
(18736677.8500753,1053740.65492726,182433.964909247)
(18464310.6421872,1017068.99980451,385602.924690936)
(17945298.056523,953258.569138236,872286.755220956)
(17423864.4390488,839948.260844733,1615387.91079047)
(16375842.1892457,613523.748684987,3061514.35463439)
(12783256.2523936,328007.632106153,7782766.32022964)
(0,0,0)
(0,0,0)
(0,0,0)
(0,0,0)
(0,0,0)
(0,0,0)
(18326725.7803442,1755777.27871211,11472.2808420901)
(18318652.2566559,1751834.18705955,24756.8104805847)
(18297692.5977844,1743816.04062798,43225.529162856)
(18250488.9142053,1731442.21434428,75569.0449307884)
(18145455.9408854,1713620.85255651,145975.496526322)
(17914431.9809079,1685036.61241063,321972.654176041)
(17460148.3623653,1619419.66435795,759228.302201437)
(17120230.6362034,1416097.09455065,1389239.42653161)
(16062189.1903039,1084773.68086347,2776394.85302622)
(12579797.6569397,620454.767540287,7455259.45489566)
(0,0,0)
(0,0,0)
(0,0,0)
(0,0,0)
(0,0,0)
(0,0,0)
(16897348.4247291,3242570.33531088,7626.72930122387)
(16891913.5756155,3238735.13361203,16904.4945594681)
(16877931.2777254,3230489.94542245,31038.6967882118)
(16847081.654838,3216163.938524,57946.4695575659)
(16781368.8901341,3190896.74657411,117612.018912146)
(16647625.611654,3140820.7790973,256596.902907647)
(16406500.2655128,3028155.07462678,556232.150284815)
(16067911.6545544,2771588.91865651,1058254.05149826)
(15111794.8600603,2318308.41950617,2312519.49323104)
(11960877.6256721,1511456.5991544,6835363.93055615)
(0,0,0)
(0,0,0)
(0,0,0)
(0,0,0)
(0,0,0)
(0,0,0)
(13022353.4623514,8014207.52447121,3925.16764531935)
(13019651.8120388,8010163.70338418,8912.55004190862)
(13012791.1215859,8001033.85096503,16989.7013499779)
(12997978.5524431,7983796.23362667,32948.0972010925)
(12967449.0312805,7950585.06658823,67824.9797195)
(12907371.8883558,7882497.95205961,144243.839548572)
(12796096.9535631,7737900.54775435,300057.811133664)
(12583000.4683048,7437391.19752859,605386.71900299)
(11961378.3547547,6831540.87806168,1506103.67725404)
(9725678.10657049,5324926.49841472,5324411.90436274)
(0,0,0)
(0,0,0)
(0,0,0)
(0,0,0)
(0,0,0)
(0,0,0)
(0,0,0)
(0,0,0)
(0,0,0)
(0,0,0)
(0,0,0)
(0,0,0)
(0,0,0)
(0,0,0)
(0,0,0)
(0,0,0)
(0,0,0)
(0,0,0)
(0,0,0)
(0,0,0)
(0,0,0)
(0,0,0)
(0,0,0)
(0,0,0)
(0,0,0)
(0,0,0)
(0,0,0)
(0,0,0)
(0,0,0)
(0,0,0)
(0,0,0)
(0,0,0)
(0,0,0)
(0,0,0)
(0,0,0)
(0,0,0)
(0,0,0)
(0,0,0)
(0,0,0)
(0,0,0)
(0,0,0)
(0,0,0)
(0,0,0)
(0,0,0)
(0,0,0)
(0,0,0)
(0,0,0)
(0,0,0)
(0,0,0)
(0,0,0)
(0,0,0)
(0,0,0)
(0,0,0)
(0,0,0)
(0,0,0)
(0,0,0)
(0,0,0)
(0,0,0)
(0,0,0)
(0,0,0)
(0,0,0)
(0,0,0)
(0,0,0)
(0,0,0)
(0,0,0)
(0,0,0)
(0,0,0)
(0,0,0)
(0,0,0)
(0,0,0)
(0,0,0)
(0,0,0)
(0,0,0)
(0,0,0)
(0,0,0)
(0,0,0)
(0,0,0)
(0,0,0)
(0,0,0)
(0,0,0)
(0,0,0)
(0,0,0)
(0,0,0)
(0,0,0)
(0,0,0)
(0,0,0)
(0,0,0)
(0,0,0)
(0,0,0)
(0,0,0)
(0,0,0)
(0,0,0)
(0,0,0)
(0,0,0)
(0,0,0)
(0,0,0)
(0,0,0)
(0,0,0)
(0,0,0)
(0,0,0)
(0,0,0)
(0,0,0)
(-341862.281629078,49932.5832092608,41666.7916325796)
(-356038.902604223,46935.3071873098,87658.456380878)
(-388009.365665238,40321.225759518,142776.117916934)
(-446248.378681921,28957.5397865324,212422.13914659)
(-545886.795714143,11748.7875776152,300876.101771241)
(-712072.571864414,-10535.656234465,403463.860535676)
(-983801.688649504,-31016.2812435635,478480.942061991)
(-1413757.61681177,-35271.2365415029,355834.063999676)
(-2030166.08608901,-24213.7098488881,-587068.83251665)
(-2488579.20214849,-11087.3787172553,-4956472.09305607)
(0,0,0)
(0,0,0)
(0,0,0)
(0,0,0)
(0,0,0)
(0,0,0)
(-356930.156565585,104821.451026054,38633.4788670912)
(-370822.864829197,99148.0114336408,81001.7371095209)
(-402436.031340294,86440.2845517146,131380.098674445)
(-460708.721614284,63873.94370998,195118.588782387)
(-561842.627625935,27491.9078566634,278444.693899096)
(-732557.279296344,-24337.5407163164,382793.167482881)
(-1010642.27756219,-78321.7871480838,474061.057428601)
(-1436426.07915511,-87452.2554799412,366770.97797349)
(-2041563.24948419,-54276.2542345507,-573966.484948733)
(-2492631.51487033,-22716.2580833545,-4945396.66093564)
(0,0,0)
(0,0,0)
(0,0,0)
(0,0,0)
(0,0,0)
(0,0,0)
(-390400.628667648,169213.781784762,32933.4272272725)
(-403803.96069833,161708.378623027,68243.1936766306)
(-434833.096646133,144599.715997858,108722.625191117)
(-493630.664218414,112860.375017839,158623.17812466)
(-599975.542650435,57178.800747794,226473.541786202)
(-788267.622003124,-34546.9419208744,328587.451713917)
(-1100384.35490167,-153746.523002911,464769.031448383)
(-1514938.89409144,-170445.753359763,399867.60543643)
(-2076016.01961581,-87257.8522472802,-542424.530725738)
(-2503682.69386788,-30563.8466179477,-4922737.03861246)
(0,0,0)
(0,0,0)
(0,0,0)
(0,0,0)
(0,0,0)
(0,0,0)
(-450094.693326613,246320.241130315,25454.0287462682)
(-462813.45803194,238430.61332161,51126.3964062126)
(-492969.145740189,220332.144456489,76939.8032311978)
(-552919.316990669,186068.631476136,102901.277118806)
(-671079.555140122,122230.740658561,134665.310207921)
(-910975.637317117,426.714105994232,209276.909566811)
(-1379283.36512178,-214986.149734201,448031.708116001)
(-1771978.89425752,-248732.465063264,483048.385675502)
(-2162318.63912803,-86139.0836546803,-485716.363169374)
(-2527368.24358163,-18763.4512386471,-4892210.42970924)
(0,0,0)
(0,0,0)
(0,0,0)
(0,0,0)
(0,0,0)
(0,0,0)
(-550378.964673668,335678.232051776,17565.797840323)
(-562040.003240872,328952.3309647,33050.2825526493)
(-590514.706133774,313963.260726219,42733.4157689069)
(-650449.184694701,287346.371399462,39141.2041541514)
(-782598.454445916,243142.0000829,12871.2366090217)
(-1121061.74472531,175621.863982668,-6148.25853760325)
(-2227404.41958053,98640.8537003366,414309.062880545)
(-2641764.08957357,63811.6182892604,645662.545536126)
(-2331636.5848338,56177.7212774053,-418314.227268536)
(-2566215.87622843,35603.951064109,-4873477.41434371)
(0,0,0)
(0,0,0)
(0,0,0)
(0,0,0)
(0,0,0)
(0,0,0)
(-715698.695604838,426437.093738764,10830.1647510657)
(-725893.687758813,421730.236187731,18139.0357611101)
(-751418.063581782,411775.812158912,16246.7995891179)
(-807177.915884168,395767.35655374,-4880.4954517811)
(-935656.021190094,371772.11993196,-54480.9927687044)
(-1273317.13621642,335993.499642475,-83019.9604756168)
(-2325975.92136067,285382.231641659,379585.042755628)
(-2705612.42029733,256409.034018438,638142.235679798)
(-2410550.50710843,185232.537451539,-438689.569693875)
(-2605037.17906918,92300.8086745577,-4908876.16536471)
(0,0,0)
(0,0,0)
(0,0,0)
(0,0,0)
(0,0,0)
(0,0,0)
(-985856.265904437,475617.535787136,6112.21563159333)
(-994248.89475735,472973.605935271,8359.4931576232)
(-1015709.27139316,468300.183627252,478.311588525373)
(-1064323.69318921,463638.233125646,-28578.5605875226)
(-1182299.0599455,462460.991097186,-89962.6748184773)
(-1512991.74667182,467056.110267025,-133395.049670355)
(-2611080.56337671,467877.121730019,350816.527054588)
(-2961801.78703675,536040.148715648,567179.485356468)
(-2529770.60053322,299675.545727064,-531322.886226448)
(-2669069.91968919,124462.109495224,-5000830.16805098)
(0,0,0)
(0,0,0)
(0,0,0)
(0,0,0)
(0,0,0)
(0,0,0)
(-1416989.51052467,326216.802594976,3443.87097454123)
(-1423342.63705021,324920.810357814,3819.40717160505)
(-1439726.42128358,323876.535144816,-4010.07836441258)
(-1477856.63757837,327841.7798757,-29540.2264173227)
(-1575491.94515368,349323.143931897,-85126.6462993063)
(-1878951.66121632,417991.799307022,-132350.846301648)
(-3078748.47146399,565496.961271987,419253.994899243)
(-2508696.40349558,363498.392750431,331050.637477)
(-2624748.35851325,134173.953101494,-706182.374166645)
(-2768182.28916528,1424.88346026284,-5124837.35511309)
(0,0,0)
(0,0,0)
(0,0,0)
(0,0,0)
(0,0,0)
(0,0,0)
(-2035455.96479371,-632874.958724397,2223.99775569405)
(-2039583.5795391,-633935.509071694,2905.31925323717)
(-2050077.99656544,-635005.971671335,124.947273797197)
(-2073520.48976328,-633258.624206782,-7844.65712890344)
(-2127274.05093781,-623331.729726582,-16218.9954849759)
(-2255963.92957932,-599726.122475233,15416.3144440527)
(-2537354.5583143,-582499.770205214,217595.716661858)
(-2629188.10446793,-713518.777406237,102040.492754285)
(-2870914.34211798,-832234.97473058,-838513.530321828)
(-2916316.38842698,-723822.98400915,-5125743.80183981)
(0,0,0)
(0,0,0)
(0,0,0)
(0,0,0)
(0,0,0)
(0,0,0)
(-2492654.27145986,-5008784.29027618,1244.91227662103)
(-2494659.06133544,-5010078.12553587,2026.24902852494)
(-2499691.79237076,-5012280.87161653,2111.90984391306)
(-2510526.30641691,-5014658.22507392,2344.21648438426)
(-2533597.75846955,-5017294.34785117,7681.47127255227)
(-2582047.64608543,-5025242.05661782,32944.7867698793)
(-2671598.16002797,-5058485.77392462,86953.750993959)
(-2771151.67068731,-5145816.01506739,-16269.0254393528)
(-2917182.05945051,-5129967.95315042,-729647.785900868)
(-2815196.51488223,-4400851.03031724,-4401417.27122651)
(0,0,0)
(0,0,0)
(0,0,0)
(0,0,0)
(0,0,0)
(0,0,0)
(0,0,0)
(0,0,0)
(0,0,0)
(0,0,0)
(0,0,0)
(0,0,0)
(0,0,0)
(0,0,0)
(0,0,0)
(0,0,0)
(0,0,0)
(0,0,0)
(0,0,0)
(0,0,0)
(0,0,0)
(0,0,0)
(0,0,0)
(0,0,0)
(0,0,0)
(0,0,0)
(0,0,0)
(0,0,0)
(0,0,0)
(0,0,0)
(0,0,0)
(0,0,0)
(0,0,0)
(0,0,0)
(0,0,0)
(0,0,0)
(0,0,0)
(0,0,0)
(0,0,0)
(0,0,0)
(0,0,0)
(0,0,0)
(0,0,0)
(0,0,0)
(0,0,0)
(0,0,0)
(0,0,0)
(0,0,0)
(0,0,0)
(0,0,0)
(0,0,0)
(0,0,0)
(0,0,0)
(0,0,0)
(0,0,0)
(0,0,0)
(0,0,0)
(0,0,0)
(0,0,0)
(0,0,0)
(0,0,0)
(0,0,0)
(0,0,0)
(0,0,0)
(0,0,0)
(0,0,0)
(0,0,0)
(0,0,0)
(0,0,0)
(0,0,0)
(0,0,0)
(0,0,0)
(0,0,0)
(0,0,0)
(0,0,0)
(0,0,0)
(0,0,0)
(0,0,0)
(0,0,0)
(0,0,0)
(0,0,0)
(0,0,0)
(0,0,0)
(0,0,0)
(0,0,0)
(0,0,0)
(0,0,0)
(0,0,0)
(0,0,0)
(0,0,0)
(0,0,0)
(0,0,0)
(0,0,0)
(0,0,0)
(0,0,0)
(0,0,0)
(0,0,0)
(0,0,0)
(0,0,0)
(0,0,0)
(0,0,0)
(0,0,0)
(-404426.744748099,35033.237461469,27531.2256575536)
(-416452.020549428,32269.1885511539,55675.1550516097)
(-442890.042831141,25964.2858128638,84591.5464046494)
(-489048.363815773,14524.2076875958,112867.323850902)
(-563552.345348606,-4198.82356756611,134731.697052934)
(-678057.732904658,-30982.3516842505,131699.209777431)
(-842608.196863876,-57839.3895707513,48345.1075625558)
(-1046571.8983275,-57923.7734829064,-260916.837438814)
(-1209660.23392989,-35559.8121273314,-1045862.87747058)
(-1051109.64620023,-15087.968893362,-2468244.46452546)
(0,0,0)
(0,0,0)
(0,0,0)
(0,0,0)
(0,0,0)
(0,0,0)
(-418119.262609778,71477.8496580263,24744.493847634)
(-429445.759124511,66271.5552024313,49365.02149167)
(-454380.519831809,54120.4978647125,73153.2979313402)
(-498074.270346255,30983.1585370546,94059.8958138479)
(-569168.048357386,-10625.7600657481,107812.253043484)
(-680393.160554902,-80032.8807430227,104698.663360821)
(-843869.702266469,-168045.684925243,48132.3834195978)
(-1041634.2379193,-165942.761288508,-238640.470010611)
(-1201678.27674517,-88692.1484576098,-1025393.10641934)
(-1046204.27608648,-33747.3462283916,-2453160.96786823)
(0,0,0)
(0,0,0)
(0,0,0)
(0,0,0)
(0,0,0)
(0,0,0)
(-447975.113870297,109556.323458121,19496.0114025579)
(-457986.431866312,102765.298246647,37184.73952632)
(-480006.549063481,86535.6135235264,49943.0762848536)
(-518630.850172306,53596.5083230258,52329.9124527783)
(-582595.192425838,-13939.905793445,38263.7079558749)
(-689248.948673219,-157295.046535931,16507.2004188665)
(-869377.429032638,-432658.739810977,50113.3294355734)
(-1041882.60379506,-427456.547346599,-161429.17480272)
(-1182193.40513909,-173524.564166988,-970419.373570048)
(-1034161.65419039,-54235.1678679955,-2419452.59160794)
(0,0,0)
(0,0,0)
(0,0,0)
(0,0,0)
(0,0,0)
(0,0,0)
(-499356.038431604,146079.585474237,12738.0830888826)
(-507528.973921121,139254.376190827,20964.5210338869)
(-525265.777474142,122834.473087422,16962.2932039473)
(-555672.170118406,88553.1328968033,-15241.4782420943)
(-605788.180217446,10678.3526475383,-105151.111605751)
(-704773.31868155,-209721.749956682,-258926.726820568)
(-1062985.00911049,-1063163.15704866,55279.3344058128)
(-1118108.37077741,-1118557.7193663,92509.9829454124)
(-1136819.80250034,-255446.746621907,-851066.671227366)
(-1009851.52227442,-57601.1925998963,-2365217.36780269)
(0,0,0)
(0,0,0)
(0,0,0)
(0,0,0)
(0,0,0)
(0,0,0)
(-580596.390180418,170392.453072766,5904.55790821908)
(-586614.545338017,165160.300242967,4573.17595322328)
(-599006.081792767,153157.919633154,-17258.8949335134)
(-616868.522088524,130728.835458721,-93015.2601016043)
(-629560.645956786,90129.818342261,-325504.53428546)
(-567297.544570765,23338.3934668165,-1112328.87786351)
(-8.4488808939086e-05,-2.14600554314462e-05,5.46006799102047e-05)