/*--------------------------------*- C++ -*----------------------------------*\
| =========                 |                                                 |
| \\      /  F ield         | foam-extend: Open Source CFD                    |
|  \\    /   O peration     | Version:     4.0                                |
|   \\  /    A nd           | Web:         http://www.foam-extend.org         |
|    \\/     M anipulation  |                                                 |
\*---------------------------------------------------------------------------*/
FoamFile
{
    version 2.0;
    format ascii;
    class volVectorField;
    location "964";
    object      H;
}
// * * * * * * * * * * * * * * * * * * * * * * * * * * * * * * * * * * * * * //

dimensions      [0 1 -1 0 0 0 0];

internalField   nonuniform List<vector>
4096
(
(0,0,0)
(0,0,0)
(0,0,0)
(0,0,0)
(0,0,0)
(0,0,0)
(0,0,0)
(0,0,0)
(0,0,0)
(0,0,0)
(0,0,0)
(0,0,0)
(0,0,0)
(0,0,0)
(0,0,0)
(0,0,0)
(0,0,0)
(0,0,0)
(0,0,0)
(0,0,0)
(0,0,0)
(0,0,0)
(0,0,0)
(0,0,0)
(0,0,0)
(0,0,0)
(0,0,0)
(0,0,0)
(0,0,0)
(0,0,0)
(0,0,0)
(0,0,0)
(0,0,0)
(0,0,0)
(0,0,0)
(0,0,0)
(0,0,0)
(0,0,0)
(0,0,0)
(0,0,0)
(0,0,0)
(0,0,0)
(0,0,0)
(0,0,0)
(0,0,0)
(0,0,0)
(0,0,0)
(0,0,0)
(0,0,0)
(0,0,0)
(0,0,0)
(0,0,0)
(0,0,0)
(0,0,0)
(0,0,0)
(0,0,0)
(0,0,0)
(0,0,0)
(0,0,0)
(0,0,0)
(0,0,0)
(0,0,0)
(0,0,0)
(0,0,0)
(0,0,0)
(0,0,0)
(0,0,0)
(0,0,0)
(0,0,0)
(0,0,0)
(0,0,0)
(0,0,0)
(0,0,0)
(0,0,0)
(0,0,0)
(0,0,0)
(0,0,0)
(0,0,0)
(0,0,0)
(0,0,0)
(0,0,0)
(0,0,0)
(0,0,0)
(0,0,0)
(0,0,0)
(0,0,0)
(0,0,0)
(0,0,0)
(0,0,0)
(0,0,0)
(0,0,0)
(0,0,0)
(0,0,0)
(0,0,0)
(0,0,0)
(0,0,0)
(0,0,0)
(0,0,0)
(0,0,0)
(0,0,0)
(0,0,0)
(0,0,0)
(0,0,0)
(0,0,0)
(0,0,0)
(0,0,0)
(0,0,0)
(0,0,0)
(0,0,0)
(0,0,0)
(0,0,0)
(0,0,0)
(0,0,0)
(0,0,0)
(0,0,0)
(0,0,0)
(0,0,0)
(0,0,0)
(0,0,0)
(0,0,0)
(0,0,0)
(0,0,0)
(0,0,0)
(0,0,0)
(0,0,0)
(0,0,0)
(0,0,0)
(0,0,0)
(0,0,0)
(0,0,0)
(0,0,0)
(0,0,0)
(0,0,0)
(0,0,0)
(0,0,0)
(0,0,0)
(0,0,0)
(0,0,0)
(0,0,0)
(0,0,0)
(0,0,0)
(0,0,0)
(0,0,0)
(0,0,0)
(0,0,0)
(0,0,0)
(0,0,0)
(0,0,0)
(0,0,0)
(0,0,0)
(0,0,0)
(0,0,0)
(0,0,0)
(0,0,0)
(0,0,0)
(0,0,0)
(0,0,0)
(0,0,0)
(0,0,0)
(0,0,0)
(0,0,0)
(0,0,0)
(0,0,0)
(0,0,0)
(0,0,0)
(0,0,0)
(0,0,0)
(0,0,0)
(0,0,0)
(0,0,0)
(0,0,0)
(0,0,0)
(0,0,0)
(0,0,0)
(0,0,0)
(0,0,0)
(0,0,0)
(0,0,0)
(0,0,0)
(0,0,0)
(0,0,0)
(0,0,0)
(0,0,0)
(0,0,0)
(0,0,0)
(0,0,0)
(0,0,0)
(0,0,0)
(0,0,0)
(0,0,0)
(0,0,0)
(0,0,0)
(0,0,0)
(0,0,0)
(0,0,0)
(0,0,0)
(0,0,0)
(0,0,0)
(0,0,0)
(0,0,0)
(0,0,0)
(0,0,0)
(0,0,0)
(0,0,0)
(0,0,0)
(0,0,0)
(0,0,0)
(0,0,0)
(0,0,0)
(0,0,0)
(0,0,0)
(0,0,0)
(0,0,0)
(0,0,0)
(0,0,0)
(0,0,0)
(0,0,0)
(0,0,0)
(0,0,0)
(0,0,0)
(0,0,0)
(0,0,0)
(0,0,0)
(0,0,0)
(0,0,0)
(0,0,0)
(0,0,0)
(0,0,0)
(0,0,0)
(0,0,0)
(0,0,0)
(0,0,0)
(0,0,0)
(0,0,0)
(0,0,0)
(0,0,0)
(0,0,0)
(0,0,0)
(0,0,0)
(0,0,0)
(0,0,0)
(0,0,0)
(0,0,0)
(0,0,0)
(0,0,0)
(0,0,0)
(0,0,0)
(0,0,0)
(0,0,0)
(0,0,0)
(0,0,0)
(0,0,0)
(0,0,0)
(0,0,0)
(0,0,0)
(0,0,0)
(0,0,0)
(0,0,0)
(0,0,0)
(0,0,0)
(0,0,0)
(0,0,0)
(0,0,0)
(0,0,0)
(0,0,0)
(0,0,0)
(0,0,0)
(0,0,0)
(0,0,0)
(0,0,0)
(0,0,0)
(0,0,0)
(0,0,0)
(0,0,0)
(0,0,0)
(0,0,0)
(0,0,0)
(0,0,0)
(0,0,0)
(0,0,0)
(0,0,0)
(0,0,0)
(0,0,0)
(0,0,0)
(0,0,0)
(0,0,0)
(0,0,0)
(0,0,0)
(0,0,0)
(0,0,0)
(0,0,0)
(0,0,0)
(0,0,0)
(0,0,0)
(0,0,0)
(0,0,0)
(0,0,0)
(0,0,0)
(0,0,0)
(0,0,0)
(0,0,0)
(0,0,0)
(0,0,0)
(0,0,0)
(0,0,0)
(0,0,0)
(0,0,0)
(0,0,0)
(0,0,0)
(0,0,0)
(0,0,0)
(0,0,0)
(0,0,0)
(0,0,0)
(0,0,0)
(0,0,0)
(0,0,0)
(0,0,0)
(0,0,0)
(0,0,0)
(0,0,0)
(0,0,0)
(0,0,0)
(0,0,0)
(0,0,0)
(0,0,0)
(0,0,0)
(0,0,0)
(0,0,0)
(0,0,0)
(0,0,0)
(0,0,0)
(0,0,0)
(0,0,0)
(0,0,0)
(0,0,0)
(0,0,0)
(0,0,0)
(0,0,0)
(0,0,0)
(0,0,0)
(0,0,0)
(0,0,0)
(0,0,0)
(0,0,0)
(0,0,0)
(0,0,0)
(0,0,0)
(0,0,0)
(0,0,0)
(0,0,0)
(0,0,0)
(0,0,0)
(0,0,0)
(0,0,0)
(0,0,0)
(0,0,0)
(0,0,0)
(0,0,0)
(0,0,0)
(0,0,0)
(0,0,0)
(0,0,0)
(0,0,0)
(0,0,0)
(0,0,0)
(0,0,0)
(0,0,0)
(0,0,0)
(0,0,0)
(0,0,0)
(0,0,0)
(0,0,0)
(0,0,0)
(0,0,0)
(0,0,0)
(0,0,0)
(0,0,0)
(0,0,0)
(0,0,0)
(0,0,0)
(0,0,0)
(0,0,0)
(0,0,0)
(0,0,0)
(0,0,0)
(0,0,0)
(0,0,0)
(0,0,0)
(0,0,0)
(0,0,0)
(0,0,0)
(0,0,0)
(0,0,0)
(0,0,0)
(0,0,0)
(0,0,0)
(0,0,0)
(0,0,0)
(0,0,0)
(0,0,0)
(0,0,0)
(0,0,0)
(0,0,0)
(0,0,0)
(0,0,0)
(0,0,0)
(0,0,0)
(0,0,0)
(0,0,0)
(0,0,0)
(0,0,0)
(0,0,0)
(0,0,0)
(0,0,0)
(0,0,0)
(0,0,0)
(0,0,0)
(0,0,0)
(0,0,0)
(0,0,0)
(0,0,0)
(0,0,0)
(0,0,0)
(0,0,0)
(0,0,0)
(0,0,0)
(0,0,0)
(0,0,0)
(0,0,0)
(0,0,0)
(0,0,0)
(0,0,0)
(0,0,0)
(0,0,0)
(0,0,0)
(0,0,0)
(0,0,0)
(0,0,0)
(0,0,0)
(0,0,0)
(0,0,0)
(0,0,0)
(0,0,0)
(0,0,0)
(0,0,0)
(0,0,0)
(0,0,0)
(0,0,0)
(0,0,0)
(0,0,0)
(0,0,0)
(0,0,0)
(0,0,0)
(0,0,0)
(0,0,0)
(0,0,0)
(0,0,0)
(0,0,0)
(0,0,0)
(0,0,0)
(0,0,0)
(0,0,0)
(0,0,0)
(0,0,0)
(0,0,0)
(0,0,0)
(0,0,0)
(0,0,0)
(0,0,0)
(0,0,0)
(0,0,0)
(0,0,0)
(0,0,0)
(0,0,0)
(0,0,0)
(0,0,0)
(0,0,0)
(0,0,0)
(0,0,0)
(0,0,0)
(0,0,0)
(0,0,0)
(0,0,0)
(0,0,0)
(0,0,0)
(0,0,0)
(0,0,0)
(0,0,0)
(0,0,0)
(0,0,0)
(0,0,0)
(0,0,0)
(0,0,0)
(0,0,0)
(0,0,0)
(0,0,0)
(0,0,0)
(0,0,0)
(0,0,0)
(0,0,0)
(0,0,0)
(0,0,0)
(0,0,0)
(0,0,0)
(0,0,0)
(0,0,0)
(0,0,0)
(0,0,0)
(0,0,0)
(0,0,0)
(0,0,0)
(0,0,0)
(0,0,0)
(0,0,0)
(0,0,0)
(0,0,0)
(0,0,0)
(0,0,0)
(0,0,0)
(0,0,0)
(0,0,0)
(0,0,0)
(0,0,0)
(0,0,0)
(0,0,0)
(0,0,0)
(0,0,0)
(0,0,0)
(0,0,0)
(0,0,0)
(0,0,0)
(0,0,0)
(0,0,0)
(0,0,0)
(0,0,0)
(0,0,0)
(0,0,0)
(0,0,0)
(0,0,0)
(0,0,0)
(0,0,0)
(0,0,0)
(0,0,0)
(0,0,0)
(0,0,0)
(0,0,0)
(0,0,0)
(0,0,0)
(0,0,0)
(0,0,0)
(0,0,0)
(0,0,0)
(0,0,0)
(0,0,0)
(0,0,0)
(0,0,0)
(0,0,0)
(0,0,0)
(0,0,0)
(0,0,0)
(0,0,0)
(0,0,0)
(0,0,0)
(0,0,0)
(0,0,0)
(0,0,0)
(0,0,0)
(0,0,0)
(0,0,0)
(0,0,0)
(0,0,0)
(0,0,0)
(0,0,0)
(0,0,0)
(0,0,0)
(0,0,0)
(0,0,0)
(0,0,0)
(0,0,0)
(0,0,0)
(0,0,0)
(0,0,0)
(0,0,0)
(0,0,0)
(0,0,0)
(0,0,0)
(0,0,0)
(0,0,0)
(0,0,0)
(0,0,0)
(0,0,0)
(0,0,0)
(0,0,0)
(0,0,0)
(0,0,0)
(0,0,0)
(0,0,0)
(0,0,0)
(0,0,0)
(0,0,0)
(0,0,0)
(0,0,0)
(0,0,0)
(0,0,0)
(0,0,0)
(0,0,0)
(0,0,0)
(0,0,0)
(0,0,0)
(0,0,0)
(0,0,0)
(0,0,0)
(0,0,0)
(0,0,0)
(0,0,0)
(0,0,0)
(0,0,0)
(0,0,0)
(0,0,0)
(0,0,0)
(0,0,0)
(0,0,0)
(0,0,0)
(0,0,0)
(0,0,0)
(0,0,0)
(0,0,0)
(0,0,0)
(0,0,0)
(0,0,0)
(0,0,0)
(0,0,0)
(0,0,0)
(0,0,0)
(0,0,0)
(0,0,0)
(0,0,0)
(0,0,0)
(0,0,0)
(0,0,0)
(0,0,0)
(0,0,0)
(0,0,0)
(0,0,0)
(0,0,0)
(0,0,0)
(0,0,0)
(0,0,0)
(0,0,0)
(0,0,0)
(0,0,0)
(0,0,0)
(0,0,0)
(0,0,0)
(0,0,0)
(0,0,0)
(0,0,0)
(0,0,0)
(0,0,0)
(0,0,0)
(0,0,0)
(0,0,0)
(0,0,0)
(0,0,0)
(0,0,0)
(0,0,0)
(0,0,0)
(0,0,0)
(0,0,0)
(0,0,0)
(0,0,0)
(0,0,0)
(0,0,0)
(0,0,0)
(0,0,0)
(0,0,0)
(0,0,0)
(0,0,0)
(0,0,0)
(0,0,0)
(0,0,0)
(0,0,0)
(0,0,0)
(0,0,0)
(0,0,0)
(0,0,0)
(0,0,0)
(0,0,0)
(0,0,0)
(0,0,0)
(0,0,0)
(0,0,0)
(0,0,0)
(0,0,0)
(0,0,0)
(0,0,0)
(0,0,0)
(0,0,0)
(0,0,0)
(0,0,0)
(0,0,0)
(0,0,0)
(0,0,0)
(0,0,0)
(0,0,0)
(0,0,0)
(0,0,0)
(0,0,0)
(0,0,0)
(0,0,0)
(0,0,0)
(0,0,0)
(0,0,0)
(0,0,0)
(0,0,0)
(0,0,0)
(0,0,0)
(0,0,0)
(0,0,0)
(0,0,0)
(0,0,0)
(0,0,0)
(0,0,0)
(0,0,0)
(0,0,0)
(0,0,0)
(0,0,0)
(0,0,0)
(0,0,0)
(0,0,0)
(0,0,0)
(0,0,0)
(0,0,0)
(0,0,0)
(0,0,0)
(0,0,0)
(0,0,0)
(0,0,0)
(0,0,0)
(0,0,0)
(0,0,0)
(0,0,0)
(0,0,0)
(0,0,0)
(0,0,0)
(0,0,0)
(0,0,0)
(0,0,0)
(0,0,0)
(0,0,0)
(0,0,0)
(0,0,0)
(0,0,0)
(0,0,0)
(0,0,0)
(0,0,0)
(0,0,0)
(0,0,0)
(0,0,0)
(0,0,0)
(0,0,0)
(0,0,0)
(0,0,0)
(0,0,0)
(0,0,0)
(0,0,0)
(0,0,0)
(0,0,0)
(0,0,0)
(0,0,0)
(0,0,0)
(0,0,0)
(0,0,0)
(0,0,0)
(0,0,0)
(0,0,0)
(0,0,0)
(0,0,0)
(0,0,0)
(0,0,0)
(0,0,0)
(0,0,0)
(0,0,0)
(0,0,0)
(0,0,0)
(0,0,0)
(0,0,0)
(0,0,0)
(0,0,0)
(0,0,0)
(0,0,0)
(0,0,0)
(0,0,0)
(0,0,0)
(0,0,0)
(0,0,0)
(0,0,0)
(0,0,0)
(0,0,0)
(0,0,0)
(0,0,0)
(0,0,0)
(0,0,0)
(0,0,0)
(0,0,0)
(0,0,0)
(0,0,0)
(0,0,0)
(0,0,0)
(0,0,0)
(0,0,0)
(0,0,0)
(0,0,0)
(0,0,0)
(0,0,0)
(0,0,0)
(0,0,0)
(0,0,0)
(-2.40029077138311e-12,-4.18289105422763e-12,6.58041350631921e-12)
(-4.02773055280489e-12,-1.22940956544187e-11,6.29675179149982e-12)
(-4.36341407140241e-12,-2.17653828991399e-11,5.25997217762109e-12)
(-3.27918999074674e-12,-3.37699754908355e-11,4.02099718296088e-12)
(-2.3291457776937e-12,-5.19219042833e-11,2.84824885600263e-12)
(-8.50606412316409e-13,-8.17721778380205e-11,1.8936625834978e-12)
(5.42403907376606e-13,-1.31157995206723e-10,1.05751311374062e-12)
(2.13240174898539e-12,-2.12081599313853e-10,3.77894899104916e-13)
(2.61059768053293e-12,-3.45810946247716e-10,2.30644089842554e-13)
(2.16305844943475e-12,-5.32409095864559e-10,2.89748466231327e-13)
(0,0,0)
(0,0,0)
(0,0,0)
(0,0,0)
(0,0,0)
(0,0,0)
(-3.02027154053051e-12,-4.51692498994497e-12,1.47269331391e-11)
(-5.59723388722732e-12,-1.19967619650342e-11,1.38510127315194e-11)
(-6.85473474139465e-12,-2.12529240775714e-11,1.20872175291317e-11)
(-5.42468895571237e-12,-3.32008673164819e-11,9.78308250546883e-12)
(-3.70316863527062e-12,-5.16110123542639e-11,7.58821904353354e-12)
(-1.69750513446949e-12,-8.16237801817549e-11,5.42737084514993e-12)
(5.84105904640252e-13,-1.31057327424381e-10,3.42689610883735e-12)
(2.58213379497524e-12,-2.12029139837693e-10,1.93530845464388e-12)
(2.62649777603966e-12,-3.45636238008795e-10,1.45901063092462e-12)
(1.63776049995916e-12,-5.3191500193429e-10,1.08940255586811e-12)
(0,0,0)
(0,0,0)
(0,0,0)
(0,0,0)
(0,0,0)
(0,0,0)
(-5.10134525344297e-12,-4.41387308190213e-12,2.5151700534017e-11)
(-7.48337003925665e-12,-1.10332156791294e-11,2.37652535353503e-11)
(-8.41680206024813e-12,-1.97799954533703e-11,2.1870202003597e-11)
(-6.93523063619096e-12,-3.18275814485336e-11,1.90670572004658e-11)
(-5.13217408931524e-12,-5.0071039109936e-11,1.56462828616808e-11)
(-3.1026240329235e-12,-7.988188797964e-11,1.17973094479317e-11)
(-8.35551859652994e-13,-1.2973931487431e-10,8.41184469736144e-12)
(1.46099504166646e-12,-2.11753606027196e-10,6.09486550911681e-12)
(2.10900019740842e-12,-3.45831901869833e-10,4.67754886264618e-12)
(1.72974269825807e-12,-5.31834663616234e-10,2.80419961416915e-12)
(0,0,0)
(0,0,0)
(0,0,0)
(0,0,0)
(0,0,0)
(0,0,0)
(-5.92849280607827e-12,-4.25957563803308e-12,3.7764584444398e-11)
(-7.98031175076601e-12,-1.00468649274146e-11,3.61164718424389e-11)
(-8.43362656512791e-12,-1.74400717596424e-11,3.42144076679462e-11)
(-7.19480229724908e-12,-2.87038467756759e-11,3.15290452540892e-11)
(-6.11637971072227e-12,-4.6398360950676e-11,2.76686665455769e-11)
(-4.32261252701508e-12,-7.629362869968e-11,2.28690839989197e-11)
(-2.57966766329461e-12,-1.2732422562144e-10,1.81455087206947e-11)
(-2.01654988225506e-13,-2.10938010571874e-10,1.40466966706516e-11)
(1.48688121906272e-12,-3.45063577558137e-10,1.01990227733014e-11)
(2.71924837222413e-12,-5.30451746175286e-10,5.47595830257109e-12)
(0,0,0)
(0,0,0)
(0,0,0)
(0,0,0)
(0,0,0)
(0,0,0)
(-5.11433331360564e-12,-3.87412175546678e-12,5.48944913056654e-11)
(-7.11728906260773e-12,-8.87710877427999e-12,5.37056084733928e-11)
(-7.708470283716e-12,-1.47278082687982e-11,5.19638334910023e-11)
(-7.50534887332247e-12,-2.41915065364286e-11,4.94197180155088e-11)
(-7.16768804136352e-12,-4.08096622195812e-11,4.58913942360998e-11)
(-5.56067055634884e-12,-7.04924024667491e-11,4.14150315703948e-11)
(-4.05313453391881e-12,-1.22628626989039e-10,3.63372196256631e-11)
(-2.39083523802056e-12,-2.07879446082253e-10,2.91743373854223e-11)
(-1.0934883473202e-13,-3.41282966304969e-10,2.03813865823962e-11)
(1.55350034125782e-12,-5.25860271747964e-10,1.06118928380148e-11)
(0,0,0)
(0,0,0)
(0,0,0)
(0,0,0)
(0,0,0)
(0,0,0)
(-4.07620571113478e-12,-3.41215270159083e-12,8.32973911724069e-11)
(-6.07647135965852e-12,-7.06308664385934e-12,8.20498182025206e-11)
(-7.29567735761763e-12,-1.14968633060614e-11,8.05467087262735e-11)
(-7.7569230676378e-12,-1.9697591264117e-11,7.85953655017702e-11)
(-7.30178889764254e-12,-3.52831529978668e-11,7.58771533016947e-11)
(-6.77188100473775e-12,-6.41214237787666e-11,7.15556511869524e-11)
(-5.91294502322714e-12,-1.16500558374695e-10,6.45558444875345e-11)
(-4.43189632061799e-12,-2.00623699111688e-10,5.35529724738158e-11)
(-2.11015721064811e-12,-3.32224665784592e-10,3.83752727745428e-11)
(-1.04741341767805e-12,-5.15609525401089e-10,2.04536398546305e-11)
(0,0,0)
(0,0,0)
(0,0,0)
(0,0,0)
(0,0,0)
(0,0,0)
(-2.84037539972627e-12,-2.61219884512756e-12,1.30220040122474e-10)
(-4.27967562074987e-12,-5.08926230817702e-12,1.29001536353816e-10)
(-6.12173334105677e-12,-8.67508342502776e-12,1.27803587670992e-10)
(-7.01959707531871e-12,-1.58121544520034e-11,1.25995775555705e-10)
(-7.00580803591638e-12,-2.97090505587437e-11,1.23584856342711e-10)
(-7.45541403194661e-12,-5.61472123872786e-11,1.18985691515906e-10)
(-7.78044397318124e-12,-1.05818370415343e-10,1.09499545828054e-10)
(-6.48249959007646e-12,-1.86053058132107e-10,9.42731320603015e-11)
(-5.08250226313024e-12,-3.14092345225697e-10,7.03868989831861e-11)
(-4.77844733082847e-12,-4.95164056006542e-10,3.86595701032649e-11)
(0,0,0)
(0,0,0)
(0,0,0)
(0,0,0)
(0,0,0)
(0,0,0)
(-1.53704329016148e-12,-1.6203853028898e-12,2.07974899495383e-10)
(-2.89888482915687e-12,-3.31308654578304e-12,2.07336306410439e-10)
(-4.88711957929702e-12,-6.1176939867312e-12,2.06789517330487e-10)
(-6.54884539627048e-12,-1.23976396379463e-11,2.05475328003857e-10)
(-8.27794592263422e-12,-2.45370851148311e-11,2.02789916338688e-10)
(-9.30956133472649e-12,-4.77176483917793e-11,1.96977579360213e-10)
(-9.94345104540822e-12,-9.05828450633062e-11,1.85087102988886e-10)
(-8.91809202439523e-12,-1.61893113458942e-10,1.62691241141944e-10)
(-8.5062676886831e-12,-2.81911377281898e-10,1.25864153064194e-10)
(-8.33930207724016e-12,-4.56724899323671e-10,7.13318784122476e-11)
(0,0,0)
(0,0,0)
(0,0,0)
(0,0,0)
(0,0,0)
(0,0,0)
(-1.18584626503385e-12,-8.93296560334263e-13,3.40081993985848e-10)
(-3.37426728826943e-12,-2.08540400685594e-12,3.39362149899104e-10)
(-5.35011325312555e-12,-3.94337520794212e-12,3.38664608640066e-10)
(-6.52846764744229e-12,-8.64110493165369e-12,3.37485576716419e-10)
(-7.99656508459666e-12,-1.79468312866101e-11,3.34247088857241e-10)
(-8.82203219838599e-12,-3.56508009761104e-11,3.26858085892132e-10)
(-1.03511798789882e-11,-6.78181389663142e-11,3.11450800336358e-10)
(-1.13236769395534e-11,-1.24403200368816e-10,2.81143222915633e-10)
(-1.23334385614463e-11,-2.27063758209241e-10,2.26969502745286e-10)
(-1.19026101845621e-11,-3.85523340171617e-10,1.35994686116849e-10)
(0,0,0)
(0,0,0)
(0,0,0)
(0,0,0)
(0,0,0)
(0,0,0)
(-6.15512425841964e-13,-3.38899988497504e-13,5.2561632064476e-10)
(-2.9847795631553e-12,-1.16464784091367e-12,5.24952200511201e-10)
(-5.37988905985898e-12,-2.01871409181451e-12,5.2387984088436e-10)
(-6.52077198314594e-12,-4.4805500654074e-12,5.2252011979361e-10)
(-7.43015707827688e-12,-9.65428688675612e-12,5.18773124258773e-10)
(-7.3215073055433e-12,-1.92413019661808e-11,5.0983802450164e-10)
(-9.35599705402427e-12,-3.68448060915826e-11,4.91777087739708e-10)
(-1.25190307739166e-11,-7.01091436018004e-11,4.55672371324631e-10)
(-1.45996086667251e-11,-1.36178392414508e-10,3.85111065656277e-10)
(-1.35794878726478e-11,-2.49112386554785e-10,2.48532030768469e-10)
(0,0,0)
(0,0,0)
(0,0,0)
(0,0,0)
(0,0,0)
(0,0,0)
(0,0,0)
(0,0,0)
(0,0,0)
(0,0,0)
(0,0,0)
(0,0,0)
(0,0,0)
(0,0,0)
(0,0,0)
(0,0,0)
(0,0,0)
(0,0,0)
(0,0,0)
(0,0,0)
(0,0,0)
(0,0,0)
(0,0,0)
(0,0,0)
(0,0,0)
(0,0,0)
(0,0,0)
(0,0,0)
(0,0,0)
(0,0,0)
(0,0,0)
(0,0,0)
(0,0,0)
(0,0,0)
(0,0,0)
(0,0,0)
(0,0,0)
(0,0,0)
(0,0,0)
(0,0,0)
(0,0,0)
(0,0,0)
(0,0,0)
(0,0,0)
(0,0,0)
(0,0,0)
(0,0,0)
(0,0,0)
(0,0,0)
(0,0,0)
(0,0,0)
(0,0,0)
(0,0,0)
(0,0,0)
(0,0,0)
(0,0,0)
(0,0,0)
(0,0,0)
(0,0,0)
(0,0,0)
(0,0,0)
(0,0,0)
(0,0,0)
(0,0,0)
(0,0,0)
(0,0,0)
(0,0,0)
(0,0,0)
(0,0,0)
(0,0,0)
(0,0,0)
(0,0,0)
(0,0,0)
(0,0,0)
(0,0,0)
(0,0,0)
(0,0,0)
(0,0,0)
(0,0,0)
(0,0,0)
(0,0,0)
(0,0,0)
(0,0,0)
(0,0,0)
(0,0,0)
(0,0,0)
(0,0,0)
(0,0,0)
(0,0,0)
(0,0,0)
(0,0,0)
(0,0,0)
(0,0,0)
(0,0,0)
(0,0,0)
(0,0,0)
(0,0,0)
(0,0,0)
(0,0,0)
(0,0,0)
(0,0,0)
(0,0,0)
(-1.78259512084241e-12,-9.87173214274636e-12,1.12870682726103e-11)
(-3.28828462831519e-12,-2.38200606159362e-11,1.09655259058361e-11)
(-3.63689789831054e-12,-3.99457397267408e-11,9.53095563768453e-12)
(-2.67554983815451e-12,-6.1152313053546e-11,7.37663890797487e-12)
(-1.68545143422769e-12,-9.38704381716584e-11,5.43805795264984e-12)
(-1.62854598759396e-13,-1.45893759765981e-10,3.44662603178703e-12)
(1.12135433976627e-12,-2.29163942767877e-10,1.42217069517549e-12)
(2.22719308186317e-12,-3.69622980514419e-10,1.59486842927033e-13)
(2.3767850651012e-12,-6.36138484253451e-10,-7.40219278137458e-14)
(1.95871298484979e-12,-1.24711626504337e-09,8.65877086265772e-14)
(0,0,0)
(0,0,0)
(0,0,0)
(0,0,0)
(0,0,0)
(0,0,0)
(-2.24740304099317e-12,-9.68050180241439e-12,2.604190194338e-11)
(-4.79698497073944e-12,-2.26936334089572e-11,2.50066038303165e-11)
(-6.02352834192721e-12,-3.83490024240481e-11,2.22148421015297e-11)
(-4.60311136173032e-12,-5.95117765864586e-11,1.77104021372341e-11)
(-3.08229368120398e-12,-9.22632038150675e-11,1.30932389922529e-11)
(-1.43892260025773e-12,-1.44383897255336e-10,8.27936795929935e-12)
(7.57681008747637e-13,-2.28696355363638e-10,3.92911118096935e-12)
(2.7828978082922e-12,-3.69817038199493e-10,1.49424039495313e-12)
(3.19176971255927e-12,-6.3646194855689e-10,9.71861799791014e-13)
(2.64682473796214e-12,-1.24764723239947e-09,9.16615274820728e-13)
(0,0,0)
(0,0,0)
(0,0,0)
(0,0,0)
(0,0,0)
(0,0,0)
(-3.86919569864426e-12,-8.62747216159839e-12,4.49528447603398e-11)
(-6.57466925921745e-12,-2.03049713506156e-11,4.3229560081857e-11)
(-7.95358095083651e-12,-3.49182493740262e-11,3.96469499675947e-11)
(-6.63819097026489e-12,-5.58916105555632e-11,3.38258549608059e-11)
(-4.9558788348756e-12,-8.82329570813256e-11,2.64630062414055e-11)
(-3.30541856236307e-12,-1.40357505226516e-10,1.77680479635712e-11)
(-9.33661924331583e-13,-2.26823279264375e-10,1.00865028387968e-11)
(2.06271623280638e-12,-3.70231125056259e-10,6.62114604105298e-12)
(3.2140251340425e-12,-6.37672391389336e-10,5.3617175437616e-12)
(3.1510248713424e-12,-1.24892170713965e-09,3.53970716599355e-12)
(0,0,0)
(0,0,0)
(0,0,0)
(0,0,0)
(0,0,0)
(0,0,0)
(-4.66583408668628e-12,-7.62195385725012e-12,6.90002683569406e-11)
(-7.24800372940773e-12,-1.76230143040046e-11,6.66398337961697e-11)
(-8.46052764212167e-12,-2.99753584348385e-11,6.24893269961781e-11)
(-7.84676382798155e-12,-4.90651129544632e-11,5.66846611925772e-11)
(-6.90549589516843e-12,-7.9705669024582e-11,4.8424579010446e-11)
(-5.40026348169607e-12,-1.31893456633001e-10,3.76570145104583e-11)
(-3.17645424569943e-12,-2.22183204320146e-10,2.6848680658933e-11)
(5.87454419455141e-13,-3.70056229276605e-10,2.06507317752298e-11)
(2.42933443682882e-12,-6.37926269353384e-10,1.53306031036724e-11)
(3.60373224755361e-12,-1.24822968661824e-09,8.514209205603e-12)
(0,0,0)
(0,0,0)
(0,0,0)
(0,0,0)
(0,0,0)
(0,0,0)
(-4.38741953520937e-12,-6.5490965043361e-12,1.00760724629975e-10)
(-7.18953621064072e-12,-1.4614582409278e-11,9.86561595585055e-11)
(-8.39529977096378e-12,-2.44721954803818e-11,9.46484410472536e-11)
(-8.47094036621909e-12,-4.03223915136111e-11,8.93844107786638e-11)
(-8.21783459734919e-12,-6.76438497765694e-11,8.22979214453482e-11)
(-6.85383729964572e-12,-1.17784094048412e-10,7.33793539662413e-11)
(-3.01832090797273e-12,-2.11001464100575e-10,6.54936521581299e-11)
(-8.53631405501253e-13,-3.66261630899349e-10,5.11252942493901e-11)
(6.01844389333811e-13,-6.33574475864428e-10,3.55444167431178e-11)
(1.91464683209128e-12,-1.24212966703761e-09,1.85206662047779e-11)
(0,0,0)
(0,0,0)
(0,0,0)
(0,0,0)
(0,0,0)
(0,0,0)
(-3.62858659771195e-12,-5.19662064928889e-12,1.48607417749968e-10)
(-6.54718621909284e-12,-1.08164919631494e-11,1.4696724691573e-10)
(-8.16611401414806e-12,-1.8336380069187e-11,1.43886333446875e-10)
(-8.92414767967952e-12,-3.14200053645205e-11,1.40068501421481e-10)
(-8.55438922201741e-12,-5.54171608497345e-11,1.35002460767668e-10)
(-7.74628569680186e-12,-1.03913915460794e-10,1.27476176167664e-10)
(-5.59226096887159e-12,-2.02331394938996e-10,1.16495330023651e-10)
(-3.82483760092318e-12,-3.55654862902478e-10,9.66336260759562e-11)
(-2.32084484957771e-12,-6.19203576093032e-10,6.89816447202082e-11)
(-1.03924295730442e-12,-1.22499425963264e-09,3.62516164783131e-11)
(0,0,0)
(0,0,0)
(0,0,0)
(0,0,0)
(0,0,0)
(0,0,0)
(-2.61368517330524e-12,-3.60907111195027e-12,2.26474801899253e-10)
(-4.85790270032164e-12,-7.47356254334095e-12,2.25276359768129e-10)
(-6.87131066406603e-12,-1.32543980334585e-11,2.2325118291034e-10)
(-8.02319267638164e-12,-2.38060269340148e-11,2.20689321535522e-10)
(-7.57860865301985e-12,-4.37850051055051e-11,2.17844004895966e-10)
(-6.3988323395738e-12,-8.69714979344146e-11,2.1199497101915e-10)
(-7.78955555750484e-12,-1.83850727839526e-10,1.94278221321359e-10)
(-6.75621118608217e-12,-3.31188359183271e-10,1.70037171905037e-10)
(-5.53614132733016e-12,-5.8819257449143e-10,1.25592416163608e-10)
(-4.55803391006608e-12,-1.18957169062659e-09,6.78454900787829e-11)
(0,0,0)
(0,0,0)
(0,0,0)
(0,0,0)
(0,0,0)
(0,0,0)
(-1.62553894777329e-12,-2.09812194827673e-12,3.60246178685591e-10)
(-3.57977828813172e-12,-4.71421640331944e-12,3.59804753012092e-10)
(-5.74724903145453e-12,-9.112344148228e-12,3.58817472827014e-10)
(-7.61996843739364e-12,-1.87376487838168e-11,3.57579979500932e-10)
(-9.05586277239896e-12,-3.74036727569711e-11,3.55407565699076e-10)
(-9.48593237905992e-12,-7.74374149042056e-11,3.48821879634962e-10)
(-1.03122952954587e-11,-1.59339139846523e-10,3.30280251108956e-10)
(-9.5809170368766e-12,-2.87770997407994e-10,2.90052832057897e-10)
(-8.82161210925894e-12,-5.31441801765925e-10,2.23513963808078e-10)
(-8.20898281746686e-12,-1.12284198280259e-09,1.27154738741155e-10)
(0,0,0)
(0,0,0)
(0,0,0)
(0,0,0)
(0,0,0)
(0,0,0)
(-1.02039875012623e-12,-1.17031571164477e-12,6.24123066897075e-10)
(-3.59748219517246e-12,-2.8326073213585e-12,6.23805672672753e-10)
(-6.09574244560439e-12,-5.90218355253335e-12,6.22785097573831e-10)
(-7.45053465450876e-12,-1.39706205643655e-11,6.21306630086304e-10)
(-8.90010651933271e-12,-2.91209600442063e-11,6.17519417640667e-10)
(-9.82424565255641e-12,-5.9900926223935e-11,6.07430596360232e-10)
(-1.10169353329918e-11,-1.18720660502369e-10,5.82407219579535e-10)
(-1.14440135362244e-11,-2.20944682846905e-10,5.29658756075338e-10)
(-1.22439877278041e-11,-4.35207184661582e-10,4.35042171889811e-10)
(-1.23188776842749e-11,-9.96330392946537e-10,2.71546331819939e-10)
(0,0,0)
(0,0,0)
(0,0,0)
(0,0,0)
(0,0,0)
(0,0,0)
(-2.902922807803e-13,-6.02612417269723e-13,1.23492059114709e-09)
(-3.0770677772282e-12,-1.61727052552843e-12,1.23472922589151e-09)
(-6.03888206092466e-12,-3.17068477411245e-12,1.23328360009715e-09)
(-7.25432651371489e-12,-7.92978892552141e-12,1.23086403516055e-09)
(-8.14934420790287e-12,-1.65660261423525e-11,1.22500894232395e-09)
(-8.50187250979714e-12,-3.29325525877766e-11,1.21151380558242e-09)
(-1.00960867305368e-11,-6.43514920676397e-11,1.18177075901705e-09)
(-1.20668687073545e-11,-1.25442128153748e-10,1.11991074998286e-09)
(-1.41989661934268e-11,-2.71626909629733e-10,9.95631104264415e-10)
(-1.41598436589197e-11,-7.24740615878288e-10,7.24094794844955e-10)
(0,0,0)
(0,0,0)
(0,0,0)
(0,0,0)
(0,0,0)
(0,0,0)
(0,0,0)
(0,0,0)
(0,0,0)
(0,0,0)
(0,0,0)
(0,0,0)
(0,0,0)
(0,0,0)
(0,0,0)
(0,0,0)
(0,0,0)
(0,0,0)
(0,0,0)
(0,0,0)
(0,0,0)
(0,0,0)
(0,0,0)
(0,0,0)
(0,0,0)
(0,0,0)
(0,0,0)
(0,0,0)
(0,0,0)
(0,0,0)
(0,0,0)
(0,0,0)
(0,0,0)
(0,0,0)
(0,0,0)
(0,0,0)
(0,0,0)
(0,0,0)
(0,0,0)
(0,0,0)
(0,0,0)
(0,0,0)
(0,0,0)
(0,0,0)
(0,0,0)
(0,0,0)
(0,0,0)
(0,0,0)
(0,0,0)
(0,0,0)
(0,0,0)
(0,0,0)
(0,0,0)
(0,0,0)
(0,0,0)
(0,0,0)
(0,0,0)
(0,0,0)
(0,0,0)
(0,0,0)
(0,0,0)
(0,0,0)
(0,0,0)
(0,0,0)
(0,0,0)
(0,0,0)
(0,0,0)
(0,0,0)
(0,0,0)
(0,0,0)
(0,0,0)
(0,0,0)
(0,0,0)
(0,0,0)
(0,0,0)
(0,0,0)
(0,0,0)
(0,0,0)
(0,0,0)
(0,0,0)
(0,0,0)
(0,0,0)
(0,0,0)
(0,0,0)
(0,0,0)
(0,0,0)
(0,0,0)
(0,0,0)
(0,0,0)
(0,0,0)
(0,0,0)
(0,0,0)
(0,0,0)
(0,0,0)
(0,0,0)
(0,0,0)
(0,0,0)
(0,0,0)
(0,0,0)
(0,0,0)
(0,0,0)
(0,0,0)
(-1.65228309429088e-12,-1.37429507907369e-11,1.6687429319292e-11)
(-2.98014156764372e-12,-3.20466898153261e-11,1.57701389037642e-11)
(-3.07931847086077e-12,-5.2944327410875e-11,1.35006231492941e-11)
(-2.37750534944818e-12,-7.97006335339911e-11,1.02933246715203e-11)
(-1.30125387043664e-12,-1.1945855161734e-10,6.71673243310799e-12)
(3.51738227472529e-13,-1.79428655890039e-10,2.8274017275909e-12)
(1.91645078734152e-12,-2.68343376912106e-10,-6.95504957809591e-13)
(2.65475953764857e-12,-3.97384385417418e-10,-1.54613125378023e-12)
(2.53963973199608e-12,-5.79569236653175e-10,-1.09519408831384e-12)
(2.57626804983409e-12,-8.00758387994924e-10,-5.55778642069329e-13)
(0,0,0)
(0,0,0)
(0,0,0)
(0,0,0)
(0,0,0)
(0,0,0)
(-2.26513456840795e-12,-1.31811340935883e-11,3.74269891149872e-11)
(-4.39388530097418e-12,-3.02531826842585e-11,3.53740690756283e-11)
(-4.9498414280303e-12,-5.02815785698552e-11,3.1101313639443e-11)
(-3.60611424740537e-12,-7.64524607159042e-11,2.45118560990341e-11)
(-2.29866938141662e-12,-1.15962487461366e-10,1.63781994365286e-11)
(-1.11505785075969e-12,-1.76446146253707e-10,7.05602158709612e-12)
(1.3194756941547e-12,-2.68424147627383e-10,-1.60623404013042e-12)
(3.71936326193028e-12,-3.99307213510514e-10,-3.5488762516736e-12)
(4.45745906941066e-12,-5.81611876661667e-10,-2.23790877854161e-12)
(4.83791475326981e-12,-8.02777933811911e-10,-8.30212958722723e-13)
(0,0,0)
(0,0,0)
(0,0,0)
(0,0,0)
(0,0,0)
(0,0,0)
(-3.15142932506583e-12,-1.13256709689771e-11,6.23275207852888e-11)
(-5.67401619093461e-12,-2.6539700891648e-11,5.95958915290998e-11)
(-7.07537688303444e-12,-4.47539746437826e-11,5.39465368345744e-11)
(-6.10183985210968e-12,-6.93311329994636e-11,4.4810278075153e-11)
(-4.78820861389954e-12,-1.07805069903172e-10,3.1990651413649e-11)
(-4.08792203155756e-12,-1.6923781788424e-10,1.52759321036802e-11)
(-2.10838006978432e-12,-2.68117694483686e-10,-2.20438451308007e-12)
(3.14724895000024e-12,-4.03338359769342e-10,-3.58611496168867e-12)
(5.28991347613384e-12,-5.8567890210835e-10,-2.81381337681499e-13)
(5.99871151548149e-12,-8.06021799122731e-10,9.20994377994722e-13)
(0,0,0)
(0,0,0)
(0,0,0)
(0,0,0)
(0,0,0)
(0,0,0)
(-3.37825687936273e-12,-9.41791928501095e-12,9.17935590068478e-11)
(-6.10592882345847e-12,-2.20160101814927e-11,8.89758940081654e-11)
(-8.15902479333041e-12,-3.71823598783684e-11,8.29538611521605e-11)
(-8.32940308697369e-12,-5.81338016817528e-11,7.32065288278544e-11)
(-8.19975064266676e-12,-9.25097157297094e-11,5.84865789831876e-11)
(-8.70129221467241e-12,-1.52790094529026e-10,3.66837087327919e-11)
(-8.16024558170103e-12,-2.65333698646158e-10,8.06963710073315e-12)
(2.11298471331211e-12,-4.10434030108001e-10,8.43245684251482e-12)
(4.89393484631594e-12,-5.9080661172993e-10,1.03805294549532e-11)
(6.01792187270404e-12,-8.08259023717684e-10,6.88884484998777e-12)
(0,0,0)
(0,0,0)
(0,0,0)
(0,0,0)
(0,0,0)
(0,0,0)
(-3.63533031829877e-12,-7.50976150265234e-12,1.28905300214864e-10)
(-6.97990814554436e-12,-1.67514873284482e-11,1.26487698537733e-10)
(-9.26708491388115e-12,-2.82142986816171e-11,1.21446483660109e-10)
(-1.02868371824012e-11,-4.40241652161218e-11,1.13428236327628e-10)
(-1.15259560441039e-11,-7.01441035968304e-11,1.01765816926923e-10)
(-1.28383140797002e-11,-1.19177309444256e-10,8.71690490852323e-11)
(2.6799678392015e-12,-2.34495294479062e-10,8.95820044984714e-11)
(4.12047810336919e-12,-4.1693852006477e-10,5.83145025655983e-11)
(3.25469515742776e-12,-5.92235463402742e-10,3.9980423136665e-11)
(3.29990563132795e-12,-8.04359261722295e-10,2.09851855231518e-11)
(0,0,0)
(0,0,0)
(0,0,0)
(0,0,0)
(0,0,0)
(0,0,0)
(-3.57596530076335e-12,-5.48541208998533e-12,1.82390991284404e-10)
(-6.8092021700163e-12,-1.16045466377415e-11,1.8078457032355e-10)
(-9.43026402477692e-12,-1.95660333242032e-11,1.77576073896973e-10)
(-1.14720854555297e-11,-3.03362987389718e-11,1.72412519006977e-10)
(-1.26602603669323e-11,-4.86806545971878e-11,1.65296442656116e-10)
(-1.37078570790363e-11,-9.41424407919939e-11,1.55283041941575e-10)
(-4.2112241204193e-12,-2.40426828021731e-10,1.50904872396639e-10)
(-6.39359965006631e-13,-4.119597259049e-10,1.21459886655713e-10)
(-6.01818209013198e-13,-5.78897914000432e-10,8.47969262380262e-11)
(-2.10195485211075e-13,-7.85855509726921e-10,4.34870715017027e-11)
(0,0,0)
(0,0,0)
(0,0,0)
(0,0,0)
(0,0,0)
(0,0,0)
(-2.92619220551021e-12,-3.46292446210254e-12,2.63586500151227e-10)
(-5.59207198226912e-12,-7.42226222683501e-12,2.62610223435248e-10)
(-8.45150317507157e-12,-1.25264745946506e-11,2.61096597912179e-10)
(-1.02462541865575e-11,-1.91587912790698e-11,2.59264163299928e-10)
(-8.11090712475644e-12,-2.86336342411401e-11,2.59585966254043e-10)
(1.78383432783288e-12,-5.64043897000922e-11,2.62377670866992e-10)
(-8.06009413395162e-12,-2.1712587929208e-10,2.25610194857264e-10)
(-5.72881722020719e-12,-3.83948554331481e-10,2.19326942733594e-10)
(-4.53998796774476e-12,-5.41817084495706e-10,1.52626668981314e-10)
(-3.44225165525284e-12,-7.43951595704789e-10,7.82838341928478e-11)
(0,0,0)
(0,0,0)
(0,0,0)
(0,0,0)
(0,0,0)
(0,0,0)
(-2.11191951065052e-12,-1.98904221631703e-12,3.84366755521191e-10)
(-4.47410718525378e-12,-4.65866639038012e-12,3.84210764745844e-10)
(-7.71991630143238e-12,-8.20794145285546e-12,3.84087470874404e-10)
(-1.0214582854272e-11,-1.53115322739876e-11,3.84296004956279e-10)
(-1.07528894214655e-11,-2.95968528904161e-11,3.86199856017214e-10)
(-8.48079253341482e-12,-7.23389403159533e-11,3.88937373079823e-10)
(-1.07033555878906e-11,-1.97249243818382e-10,3.79829348975567e-10)
(-9.8683633492691e-12,-3.18300706947286e-10,3.2398906148688e-10)
(-8.69700414648171e-12,-4.69097572912997e-10,2.36360668303006e-10)
(-7.56583393204603e-12,-6.66388238773889e-10,1.27545028997182e-10)
(0,0,0)
(0,0,0)
(0,0,0)
(0,0,0)
(0,0,0)
(0,0,0)
(-1.27070782059884e-12,-1.12556425820045e-12,5.62287423612906e-10)
(-3.79224389224089e-12,-3.01090827298008e-12,5.62923960702812e-10)
(-7.3487737363467e-12,-5.71821544213863e-12,5.63182570800391e-10)
(-9.70415384785037e-12,-1.29218115438855e-11,5.63097229052274e-10)
(-1.13662191401256e-11,-2.73338582920844e-11,5.61757400925041e-10)
(-1.17692425079512e-11,-6.32016455561844e-11,5.55357465235023e-10)
(-1.26376402637634e-11,-1.38284945196576e-10,5.31818637530873e-10)
(-1.2329984044176e-11,-2.30238195016924e-10,4.67807286197854e-10)
(-1.2328422689522e-11,-3.60450740170076e-10,3.62342168752929e-10)
(-1.23623229327337e-11,-5.39365281060342e-10,2.08138937828134e-10)
(0,0,0)
(0,0,0)
(0,0,0)
(0,0,0)
(0,0,0)
(0,0,0)
(-7.01539442797506e-13,-6.15069225337908e-13,7.83210658944601e-10)
(-3.24871250886473e-12,-1.65092770075053e-12,7.84075591570128e-10)
(-6.79000189800229e-12,-3.27927549270642e-12,7.83941624567085e-10)
(-9.32902260329033e-12,-7.86418347146854e-12,7.82331779296409e-10)
(-1.12202336081697e-11,-1.65264766745652e-11,7.77392163711056e-10)