/*--------------------------------*- C++ -*----------------------------------*\
| =========                 |                                                 |
| \\      /  F ield         | foam-extend: Open Source CFD                    |
|  \\    /   O peration     | Version:     4.0                                |
|   \\  /    A nd           | Web:         http://www.foam-extend.org         |
|    \\/     M anipulation  |                                                 |
\*---------------------------------------------------------------------------*/
FoamFile
{
    version 2.0;
    format ascii;
    class volVectorField;
    location "3925";
    object      E;
}
// * * * * * * * * * * * * * * * * * * * * * * * * * * * * * * * * * * * * * //

dimensions      [0 1 -1 0 0 0 0];

internalField   nonuniform List<vector>
4096
(
(0,0,0)
(0,0,0)
(0,0,0)
(0,0,0)
(0,0,0)
(0,0,0)
(0,0,0)
(0,0,0)
(0,0,0)
(0,0,0)
(0,0,0)
(0,0,0)
(0,0,0)
(0,0,0)
(0,0,0)
(0,0,0)
(0,0,0)
(0,0,0)
(0,0,0)
(0,0,0)
(0,0,0)
(0,0,0)
(0,0,0)
(0,0,0)
(0,0,0)
(0,0,0)
(0,0,0)
(0,0,0)
(0,0,0)
(0,0,0)
(0,0,0)
(0,0,0)
(0,0,0)
(0,0,0)
(0,0,0)
(0,0,0)
(0,0,0)
(0,0,0)
(0,0,0)
(0,0,0)
(0,0,0)
(0,0,0)
(0,0,0)
(0,0,0)
(0,0,0)
(0,0,0)
(0,0,0)
(0,0,0)
(0,0,0)
(0,0,0)
(0,0,0)
(0,0,0)
(0,0,0)
(0,0,0)
(0,0,0)
(0,0,0)
(0,0,0)
(0,0,0)
(0,0,0)
(0,0,0)
(0,0,0)
(0,0,0)
(0,0,0)
(0,0,0)
(0,0,0)
(0,0,0)
(0,0,0)
(0,0,0)
(0,0,0)
(0,0,0)
(0,0,0)
(0,0,0)
(0,0,0)
(0,0,0)
(0,0,0)
(0,0,0)
(0,0,0)
(0,0,0)
(0,0,0)
(0,0,0)
(0,0,0)
(0,0,0)
(0,0,0)
(0,0,0)
(0,0,0)
(0,0,0)
(0,0,0)
(0,0,0)
(0,0,0)
(0,0,0)
(0,0,0)
(0,0,0)
(0,0,0)
(0,0,0)
(0,0,0)
(0,0,0)
(0,0,0)
(0,0,0)
(0,0,0)
(0,0,0)
(0,0,0)
(0,0,0)
(0,0,0)
(0,0,0)
(0,0,0)
(0,0,0)
(0,0,0)
(0,0,0)
(0,0,0)
(0,0,0)
(0,0,0)
(0,0,0)
(0,0,0)
(0,0,0)
(0,0,0)
(0,0,0)
(0,0,0)
(0,0,0)
(0,0,0)
(0,0,0)
(0,0,0)
(0,0,0)
(0,0,0)
(0,0,0)
(0,0,0)
(0,0,0)
(0,0,0)
(0,0,0)
(0,0,0)
(0,0,0)
(0,0,0)
(0,0,0)
(0,0,0)
(0,0,0)
(0,0,0)
(0,0,0)
(0,0,0)
(0,0,0)
(0,0,0)
(0,0,0)
(0,0,0)
(0,0,0)
(0,0,0)
(0,0,0)
(0,0,0)
(0,0,0)
(0,0,0)
(0,0,0)
(0,0,0)
(0,0,0)
(0,0,0)
(0,0,0)
(0,0,0)
(0,0,0)
(0,0,0)
(0,0,0)
(0,0,0)
(0,0,0)
(0,0,0)
(0,0,0)
(0,0,0)
(0,0,0)
(0,0,0)
(0,0,0)
(0,0,0)
(0,0,0)
(0,0,0)
(0,0,0)
(0,0,0)
(0,0,0)
(0,0,0)
(0,0,0)
(0,0,0)
(0,0,0)
(0,0,0)
(0,0,0)
(0,0,0)
(0,0,0)
(0,0,0)
(0,0,0)
(0,0,0)
(0,0,0)
(0,0,0)
(0,0,0)
(0,0,0)
(0,0,0)
(0,0,0)
(0,0,0)
(0,0,0)
(0,0,0)
(0,0,0)
(0,0,0)
(0,0,0)
(0,0,0)
(0,0,0)
(0,0,0)
(0,0,0)
(0,0,0)
(0,0,0)
(0,0,0)
(0,0,0)
(0,0,0)
(0,0,0)
(0,0,0)
(0,0,0)
(0,0,0)
(0,0,0)
(0,0,0)
(0,0,0)
(0,0,0)
(0,0,0)
(0,0,0)
(0,0,0)
(0,0,0)
(0,0,0)
(0,0,0)
(0,0,0)
(0,0,0)
(0,0,0)
(0,0,0)
(0,0,0)
(0,0,0)
(0,0,0)
(0,0,0)
(0,0,0)
(0,0,0)
(0,0,0)
(0,0,0)
(0,0,0)
(0,0,0)
(0,0,0)
(0,0,0)
(0,0,0)
(0,0,0)
(0,0,0)
(0,0,0)
(0,0,0)
(0,0,0)
(0,0,0)
(0,0,0)
(0,0,0)
(0,0,0)
(0,0,0)
(0,0,0)
(0,0,0)
(0,0,0)
(0,0,0)
(0,0,0)
(0,0,0)
(0,0,0)
(0,0,0)
(0,0,0)
(0,0,0)
(0,0,0)
(0,0,0)
(0,0,0)
(0,0,0)
(0,0,0)
(0,0,0)
(0,0,0)
(0,0,0)
(0,0,0)
(0,0,0)
(0,0,0)
(0,0,0)
(0,0,0)
(0,0,0)
(0,0,0)
(0,0,0)
(0,0,0)
(0,0,0)
(0,0,0)
(0,0,0)
(0,0,0)
(0,0,0)
(0,0,0)
(0,0,0)
(0,0,0)
(0,0,0)
(0,0,0)
(0,0,0)
(0,0,0)
(0,0,0)
(0,0,0)
(0,0,0)
(0,0,0)
(0,0,0)
(0,0,0)
(0,0,0)
(0,0,0)
(0,0,0)
(0,0,0)
(0,0,0)
(0,0,0)
(0,0,0)
(0,0,0)
(0,0,0)
(0,0,0)
(0,0,0)
(0,0,0)
(0,0,0)
(0,0,0)
(0,0,0)
(0,0,0)
(0,0,0)
(0,0,0)
(0,0,0)
(0,0,0)
(0,0,0)
(0,0,0)
(0,0,0)
(0,0,0)
(0,0,0)
(0,0,0)
(0,0,0)
(0,0,0)
(0,0,0)
(0,0,0)
(0,0,0)
(0,0,0)
(0,0,0)
(0,0,0)
(0,0,0)
(0,0,0)
(0,0,0)
(0,0,0)
(0,0,0)
(0,0,0)
(0,0,0)
(0,0,0)
(0,0,0)
(0,0,0)
(0,0,0)
(0,0,0)
(0,0,0)
(0,0,0)
(0,0,0)
(0,0,0)
(0,0,0)
(0,0,0)
(0,0,0)
(0,0,0)
(0,0,0)
(0,0,0)
(0,0,0)
(0,0,0)
(0,0,0)
(0,0,0)
(0,0,0)
(0,0,0)
(0,0,0)
(0,0,0)
(0,0,0)
(0,0,0)
(0,0,0)
(0,0,0)
(0,0,0)
(0,0,0)
(0,0,0)
(0,0,0)
(0,0,0)
(0,0,0)
(0,0,0)
(0,0,0)
(0,0,0)
(0,0,0)
(0,0,0)
(0,0,0)
(0,0,0)
(0,0,0)
(0,0,0)
(0,0,0)
(0,0,0)
(0,0,0)
(0,0,0)
(0,0,0)
(0,0,0)
(0,0,0)
(0,0,0)
(0,0,0)
(0,0,0)
(0,0,0)
(0,0,0)
(0,0,0)
(0,0,0)
(0,0,0)
(0,0,0)
(0,0,0)
(0,0,0)
(0,0,0)
(0,0,0)
(0,0,0)
(0,0,0)
(0,0,0)
(0,0,0)
(0,0,0)
(0,0,0)
(0,0,0)
(0,0,0)
(0,0,0)
(0,0,0)
(0,0,0)
(0,0,0)
(0,0,0)
(0,0,0)
(0,0,0)
(0,0,0)
(0,0,0)
(0,0,0)
(0,0,0)
(0,0,0)
(0,0,0)
(0,0,0)
(0,0,0)
(0,0,0)
(0,0,0)
(0,0,0)
(0,0,0)
(0,0,0)
(0,0,0)
(0,0,0)
(0,0,0)
(0,0,0)
(0,0,0)
(0,0,0)
(0,0,0)
(0,0,0)
(0,0,0)
(0,0,0)
(0,0,0)
(0,0,0)
(0,0,0)
(0,0,0)
(0,0,0)
(0,0,0)
(0,0,0)
(0,0,0)
(0,0,0)
(0,0,0)
(0,0,0)
(0,0,0)
(0,0,0)
(0,0,0)
(0,0,0)
(0,0,0)
(0,0,0)
(0,0,0)
(0,0,0)
(0,0,0)
(0,0,0)
(0,0,0)
(0,0,0)
(0,0,0)
(0,0,0)
(0,0,0)
(0,0,0)
(0,0,0)
(0,0,0)
(0,0,0)
(0,0,0)
(0,0,0)
(0,0,0)
(0,0,0)
(0,0,0)
(0,0,0)
(0,0,0)
(0,0,0)
(0,0,0)
(0,0,0)
(0,0,0)
(0,0,0)
(0,0,0)
(0,0,0)
(0,0,0)
(0,0,0)
(0,0,0)
(0,0,0)
(0,0,0)
(0,0,0)
(0,0,0)
(0,0,0)
(0,0,0)
(0,0,0)
(0,0,0)
(0,0,0)
(0,0,0)
(0,0,0)
(0,0,0)
(0,0,0)
(0,0,0)
(0,0,0)
(0,0,0)
(0,0,0)
(0,0,0)
(0,0,0)
(0,0,0)
(0,0,0)
(0,0,0)
(0,0,0)
(0,0,0)
(0,0,0)
(0,0,0)
(0,0,0)
(0,0,0)
(0,0,0)
(0,0,0)
(0,0,0)
(0,0,0)
(0,0,0)
(0,0,0)
(0,0,0)
(0,0,0)
(0,0,0)
(0,0,0)
(0,0,0)
(0,0,0)
(0,0,0)
(0,0,0)
(0,0,0)
(0,0,0)
(0,0,0)
(0,0,0)
(0,0,0)
(0,0,0)
(0,0,0)
(0,0,0)
(0,0,0)
(0,0,0)
(0,0,0)
(0,0,0)
(0,0,0)
(0,0,0)
(0,0,0)
(0,0,0)
(0,0,0)
(0,0,0)
(0,0,0)
(0,0,0)
(0,0,0)
(0,0,0)
(0,0,0)
(0,0,0)
(0,0,0)
(0,0,0)
(0,0,0)
(0,0,0)
(0,0,0)
(0,0,0)
(0,0,0)
(0,0,0)
(0,0,0)
(0,0,0)
(0,0,0)
(0,0,0)
(0,0,0)
(0,0,0)
(0,0,0)
(0,0,0)
(0,0,0)
(0,0,0)
(0,0,0)
(0,0,0)
(0,0,0)
(0,0,0)
(0,0,0)
(0,0,0)
(0,0,0)
(0,0,0)
(0,0,0)
(0,0,0)
(0,0,0)
(0,0,0)
(0,0,0)
(0,0,0)
(0,0,0)
(0,0,0)
(0,0,0)
(0,0,0)
(0,0,0)
(0,0,0)
(0,0,0)
(0,0,0)
(0,0,0)
(0,0,0)
(0,0,0)
(0,0,0)
(0,0,0)
(0,0,0)
(0,0,0)
(0,0,0)
(0,0,0)
(0,0,0)
(0,0,0)
(0,0,0)
(0,0,0)
(0,0,0)
(0,0,0)
(0,0,0)
(0,0,0)
(0,0,0)
(0,0,0)
(0,0,0)
(0,0,0)
(0,0,0)
(0,0,0)
(0,0,0)
(0,0,0)
(0,0,0)
(0,0,0)
(0,0,0)
(0,0,0)
(0,0,0)
(0,0,0)
(0,0,0)
(0,0,0)
(0,0,0)
(0,0,0)
(0,0,0)
(0,0,0)
(0,0,0)
(0,0,0)
(0,0,0)
(0,0,0)
(0,0,0)
(0,0,0)
(0,0,0)
(0,0,0)
(0,0,0)
(0,0,0)
(0,0,0)
(0,0,0)
(0,0,0)
(0,0,0)
(0,0,0)
(0,0,0)
(0,0,0)
(0,0,0)
(0,0,0)
(0,0,0)
(0,0,0)
(0,0,0)
(0,0,0)
(0,0,0)
(0,0,0)
(0,0,0)
(0,0,0)
(0,0,0)
(0,0,0)
(0,0,0)
(0,0,0)
(0,0,0)
(0,0,0)
(0,0,0)
(0,0,0)
(0,0,0)
(0,0,0)
(0,0,0)
(0,0,0)
(0,0,0)
(0,0,0)
(0,0,0)
(0,0,0)
(0,0,0)
(0,0,0)
(0,0,0)
(0,0,0)
(0,0,0)
(0,0,0)
(0,0,0)
(0,0,0)
(0,0,0)
(0,0,0)
(0,0,0)
(0,0,0)
(0,0,0)
(0,0,0)
(0,0,0)
(0,0,0)
(0,0,0)
(0,0,0)
(0,0,0)
(0,0,0)
(0,0,0)
(0,0,0)
(0,0,0)
(0,0,0)
(0,0,0)
(0,0,0)
(0,0,0)
(0,0,0)
(0,0,0)
(0,0,0)
(0,0,0)
(0,0,0)
(0,0,0)
(0,0,0)
(0,0,0)
(0,0,0)
(0,0,0)
(0,0,0)
(0,0,0)
(0,0,0)
(0,0,0)
(0,0,0)
(0,0,0)
(0,0,0)
(0,0,0)
(0,0,0)
(0,0,0)
(0,0,0)
(0,0,0)
(0,0,0)
(0,0,0)
(0,0,0)
(0,0,0)
(0,0,0)
(0,0,0)
(0,0,0)
(0,0,0)
(0,0,0)
(0,0,0)
(0,0,0)
(0,0,0)
(0,0,0)
(0,0,0)
(0,0,0)
(0,0,0)
(0,0,0)
(0,0,0)
(0,0,0)
(0,0,0)
(0,0,0)
(0,0,0)
(0,0,0)
(0,0,0)
(0,0,0)
(0,0,0)
(0,0,0)
(0,0,0)
(0,0,0)
(0,0,0)
(0,0,0)
(0,0,0)
(0,0,0)
(0,0,0)
(0,0,0)
(0,0,0)
(0,0,0)
(0,0,0)
(0,0,0)
(0,0,0)
(0,0,0)
(0,0,0)
(0,0,0)
(0,0,0)
(0,0,0)
(0,0,0)
(0,0,0)
(0,0,0)
(0,0,0)
(0,0,0)
(0,0,0)
(0,0,0)
(0,0,0)
(0,0,0)
(0,0,0)
(0,0,0)
(0,0,0)
(0,0,0)
(0,0,0)
(0,0,0)
(0,0,0)
(0,0,0)
(0,0,0)
(0,0,0)
(0,0,0)
(0,0,0)
(0,0,0)
(0,0,0)
(0,0,0)
(0,0,0)
(0,0,0)
(0,0,0)
(0,0,0)
(0,0,0)
(0,0,0)
(0,0,0)
(0,0,0)
(0,0,0)
(0,0,0)
(0,0,0)
(0,0,0)
(0,0,0)
(0,0,0)
(0,0,0)
(0,0,0)
(0,0,0)
(0,0,0)
(0,0,0)
(0,0,0)
(0,0,0)
(0,0,0)
(0,0,0)
(0,0,0)
(0,0,0)
(0,0,0)
(0,0,0)
(0,0,0)
(0,0,0)
(0,0,0)
(0,0,0)
(0,0,0)
(0,0,0)
(0,0,0)
(0,0,0)
(0,0,0)
(0,0,0)
(0,0,0)
(0,0,0)
(-89577.1679416666,47630.009286451,41947.1586552141)
(-94786.2328230074,45657.0961345893,91076.2953436303)
(-106798.028340914,41565.4118556166,156308.911828923)
(-129442.669367773,35165.7108904714,250585.870306238)
(-170224.09550858,26514.4571476407,394295.508667172)
(-243445.902864333,16568.1681378354,621173.243393676)
(-375990.062428364,7474.01401940547,989689.291802663)
(-615576.04007408,1928.15099945077,1603337.18087729)
(-1015378.6538831,110.556335661223,2618605.27842471)
(-1414818.49915539,-76.336310275313,4033500.11389043)
(0,0,0)
(0,0,0)
(0,0,0)
(0,0,0)
(0,0,0)
(0,0,0)
(-94742.26767019,102392.416497201,39979.8604594398)
(-99997.7769317836,98653.9016710767,86980.8318547364)
(-112214.839193232,90890.7172030934,149870.365700491)
(-135410.762380815,78563.9485140282,241882.890457748)
(-177333.442059526,61434.2488930252,384296.540771887)
(-252303.745754077,41085.3305695092,612083.124094282)
(-386293.254037618,21767.2239159073,984083.168235382)
(-624965.195954587,9548.75127330179,1601427.76391607)
(-1021631.85290795,4731.77559872561,2618438.39756104)
(-1417728.77147982,2415.66786568912,4033675.16486474)
(0,0,0)
(0,0,0)
(0,0,0)
(0,0,0)
(0,0,0)
(0,0,0)
(-106583.342021501,172698.558829782,36277.1996889196)
(-111932.597356545,167697.077913101,79166.6208034431)
(-124537.504131364,157181.117622319,137413.724515587)
(-148869.265021976,140138.675587152,224708.262464439)
(-193448.220193019,115740.210426735,363850.521123735)
(-273044.105478498,85248.6395462861,592731.317625463)
(-411655.114428521,54325.735729979,971827.920239936)
(-648325.273250966,33088.139189225,1596613.80557494)
(-1036679.55819263,21832.3582101697,2616192.78115614)
(-1424549.45266955,11831.4947092993,4031326.40698216)
(0,0,0)
(0,0,0)
(0,0,0)
(0,0,0)
(0,0,0)
(0,0,0)
(-128768.04824097,270112.993256959,31353.6138137929)
(-134171.752797477,264540.673171404,68681.7713529712)
(-147220.690810811,252770.576478144,120313.003307949)
(-173191.240468329,233390.090531842,200252.828831574)
(-222167.803197643,204903.870824641,333256.97163133)
(-310650.857408517,167400.20987218,561756.258713948)
(-460248.551125407,125744.058124902,950586.487444402)
(-693511.723538556,91747.1966746055,1585439.15349755)
(-1064239.35414539,65210.4577946297,2606300.40805843)
(-1436569.95776942,35088.2911931541,4019613.56934425)
(0,0,0)
(0,0,0)
(0,0,0)
(0,0,0)
(0,0,0)
(0,0,0)
(-168363.08276144,412664.434454978,25811.6415634135)
(-173732.639143856,407231.116814137,56853.8370645296)
(-187012.048605172,395783.431494327,100853.030653522)
(-214372.958107955,376883.219951931,171732.859341394)
(-267904.543274435,348776.659126501,295764.614313957)
(-367422.680641927,310482.504454654,520105.0003734)
(-534307.590498687,263559.104679336,916597.544317675)
(-762354.946673169,211698.576192069,1559001.11147336)
(-1104317.42023267,152193.836977291,2576335.15252348)
(-1453960.3422497,80686.4330788489,3984697.35288752)
(0,0,0)
(0,0,0)
(0,0,0)
(0,0,0)
(0,0,0)
(0,0,0)
(-239736.549660553,631998.234657548,20402.7494579878)
(-244859.711950933,627175.213742465,45318.3644805893)
(-257698.914654803,616961.655722009,81839.0549077132)
(-284764.837461962,599908.098590261,143579.013731335)
(-338870.608289474,573713.420234669,257512.860912662)
(-440304.136386906,535065.860194155,473233.641560067)
(-607698.291459814,479721.800027965,864769.237671258)
(-825409.225959809,402366.56072498,1499510.47909819)
(-1147792.81147839,294648.962166636,2504848.16538721)
(-1475860.37498304,157325.541538248,3904069.43191084)
(0,0,0)
(0,0,0)
(0,0,0)
(0,0,0)
(0,0,0)
(0,0,0)
(-370760.508825879,987180.55645621,15578.1870272164)
(-375308.204071125,982991.239268291,35070.3655725308)
(-386839.804943531,974083.767523723,64788.0587143475)
(-411556.499564686,958823.672227232,117428.984642056)
(-461828.511122027,933997.868672905,218973.04732585)
(-557164.541146557,893175.486159237,418027.962507349)
(-714267.458845189,824535.553496397,787481.667884112)
(-912275.271183648,710391.751048393,1391731.74874433)
(-1212636.23439689,531596.348790726,2367420.59651715)
(-1511615.58261836,289684.06750154,3746677.65317226)
(0,0,0)
(0,0,0)
(0,0,0)
(0,0,0)
(0,0,0)
(0,0,0)
(-610398.785125301,1586110.89102727,11468.4505542234)
(-614045.866738478,1582321.95495317,26183.6016078291)
(-623341.938894263,1574062.34295965,49546.9650661687)
(-643466.453843972,1559208.16871581,92628.922421533)
(-684812.42975447,1533241.62398346,178197.596865444)
(-764094.474013433,1486034.08235331,349433.474684775)
(-895672.542618537,1396314.25663882,673327.314160841)
(-1055997.09270822,1226894.19069159,1212821.9672259)
(-1330283.84372347,949265.045105539,2125437.11463456)
(-1579971.81221206,538081.786602484,3457011.20774563)
(0,0,0)
(0,0,0)
(0,0,0)
(0,0,0)
(0,0,0)
(0,0,0)
(-1011754.65663854,2590131.00977716,7734.53788864645)
(-1014245.50607195,2586401.59350136,17900.4054123848)
(-1020574.8352627,2577842.81857169,34694.7650630115)
(-1034160.92840118,2561411.68164777,66652.1805322303)
(-1061509.7605019,2530408.48931004,130995.075707596)
(-1112836.37179244,2470126.73530094,259738.794552422)
(-1198991.88372831,2351130.44679958,503914.48812)
(-1327039.44735891,2122695.43140235,935152.694768166)
(-1547223.42454706,1717352.54961046,1714288.61481018)
(-1699166.71040011,1032580.26400726,2918956.84780548)
(0,0,0)
(0,0,0)
(0,0,0)
(0,0,0)
(0,0,0)
(0,0,0)
(-1413114.33290181,3999294.92614872,3950.41653024289)
(-1414346.36030756,3995463.77787765,9234.59246148787)
(-1417502.37899148,3986370.01817763,18209.7718470317)
(-1424193.82746428,3968235.07416177,35580.2067973631)
(-1437441.0789754,3932779.71027612,70650.0648067138)
(-1462169.91026307,3862261.28120214,140685.429168532)
(-1505290.48269894,3721658.20153795,275448.157129112)
(-1577974.11118689,3446292.7357292,529824.963989111)
(-1698807.11987353,2916394.79376496,1029589.83970803)
(-1710880.57194521,1886609.1151918,1886441.5604688)
(0,0,0)
(0,0,0)
(0,0,0)
(0,0,0)
(0,0,0)
(0,0,0)
(0,0,0)
(0,0,0)
(0,0,0)
(0,0,0)
(0,0,0)
(0,0,0)
(0,0,0)
(0,0,0)
(0,0,0)
(0,0,0)
(0,0,0)
(0,0,0)
(0,0,0)
(0,0,0)
(0,0,0)
(0,0,0)
(0,0,0)
(0,0,0)
(0,0,0)
(0,0,0)
(0,0,0)
(0,0,0)
(0,0,0)
(0,0,0)
(0,0,0)
(0,0,0)
(0,0,0)
(0,0,0)
(0,0,0)
(0,0,0)
(0,0,0)
(0,0,0)
(0,0,0)
(0,0,0)
(0,0,0)
(0,0,0)
(0,0,0)
(0,0,0)
(0,0,0)
(0,0,0)
(0,0,0)
(0,0,0)
(0,0,0)
(0,0,0)
(0,0,0)
(0,0,0)
(0,0,0)
(0,0,0)
(0,0,0)
(0,0,0)
(0,0,0)
(0,0,0)
(0,0,0)
(0,0,0)
(0,0,0)
(0,0,0)
(0,0,0)
(0,0,0)
(0,0,0)
(0,0,0)
(0,0,0)
(0,0,0)
(0,0,0)
(0,0,0)
(0,0,0)
(0,0,0)
(0,0,0)
(0,0,0)
(0,0,0)
(0,0,0)
(0,0,0)
(0,0,0)
(0,0,0)
(0,0,0)
(0,0,0)
(0,0,0)
(0,0,0)
(0,0,0)
(0,0,0)
(0,0,0)
(0,0,0)
(0,0,0)
(0,0,0)
(0,0,0)
(0,0,0)
(0,0,0)
(0,0,0)
(0,0,0)
(0,0,0)
(0,0,0)
(0,0,0)
(0,0,0)
(0,0,0)
(0,0,0)
(0,0,0)
(0,0,0)
(13269645.8992513,42463.495653245,36796.1405508075)
(13260925.9288625,40446.6189988996,79120.0632634896)
(13240956.0867524,36151.8348205312,133696.816746515)
(13203738.3482122,29212.3905962443,209786.111967264)
(13137527.1004864,19439.0125547222,321078.606814566)
(13019772.4635464,7768.10110869916,488574.842691942)
(12803785.9102482,-2775.0588808994,750056.632293057)
(12376895.2129396,-7434.67122395216,1203502.75390028)
(11413602.4251637,-6143.85569982513,2219148.23395024)
(8797501.92067837,-3011.2875838834,5448321.80509755)
(0,0,0)
(0,0,0)
(0,0,0)
(0,0,0)
(0,0,0)
(0,0,0)
(13260837.9064238,90584.7664284175,34781.2585278814)
(13252109.0935719,86771.9968419291,74831.71357814)
(13231942.5409848,78588.6047659684,126720.266851607)
(13193992.5022562,65068.5928252115,199943.50338269)
(13125962.9215257,45275.0469730996,309293.808776129)
(13004920.1037044,20313.6169983943,478007.146824969)
(12785651.2099107,-3593.52233279122,745363.849725624)
(12360534.4699505,-13817.3075709255,1204729.52356447)
(11403442.9585565,-10319.4293740131,2222312.98917092)
(8793083.60733732,-4403.21769084259,5451375.2438575)
(0,0,0)
(0,0,0)
(0,0,0)
(0,0,0)
(0,0,0)
(0,0,0)
(13240819.4812588,150689.248632139,30975.3979128347)
(13232053.5208377,145604.096619072,66639.8833383717)
(13211486.9899086,134564.320507968,113122.376953481)
(13171905.5878641,115803.082485481,180095.737804195)
(13099205.500638,86999.0048138136,284200.762529447)
(12968286.4146755,47608.2239298585,454058.338841062)
(12736470.2452933,5695.06043089181,735127.099752587)
(12315386.0262754,-12150.6632680202,1208231.85932037)
(11377185.7391021,-5766.2285319239,2228296.06458026)
(8782203.02289624,-207.373080295821,5455830.44780085)
(0,0,0)
(0,0,0)
(0,0,0)
(0,0,0)
(0,0,0)
(0,0,0)
(13203872.0823988,230603.378138643,25928.4432506065)
(13195162.0765399,225037.463199317,55643.9507299512)
(13174162.8097208,212966.39126104,94341.0828421998)
(13132048.6982029,192148.324851119,151238.605202354)
(13050696.3011987,159134.641600455,244721.567416439)
(12897397.5523096,110627.813113602,412136.271911585)
(12627068.7630456,51669.1837385996,717327.537829824)
(12212577.8594124,22857.2319569708,1214712.76305094)
(11324134.8188424,25097.2474419951,2233957.81748615)
(8761842.01600918,17683.6649320315,5456137.5090923)
(0,0,0)
(0,0,0)
(0,0,0)
(0,0,0)
(0,0,0)
(0,0,0)
(13139028.114876,341293.965898129,20400.9180000564)
(13130534.4631953,336105.618184625,43548.3640724946)
(13109462.4300682,325049.921822377,73473.0582349113)
(13065178.4925008,306387.73107118,118164.904802931)
(12973935.1175509,277755.828750287,196186.760224846)
(12787039.7771503,237631.592545754,353203.226397477)
(12430289.8621602,190205.190512151,688552.470362048)
(12021826.600219,148675.295614085,1217035.56320983)
(11240899.8880196,108742.344353091,2226655.86144329)
(8731499.46735096,58781.181947271,5438581.23822424)
(0,0,0)
(0,0,0)
(0,0,0)
(0,0,0)
(0,0,0)
(0,0,0)
(13023810.7727504,500953.225360739,15276.1215232455)
(13015868.3944756,496680.680367082,32455.6563111637)
(12995806.8641771,487742.83257633,54739.6701223115)
(12952370.6004617,473014.352977881,89460.3136890016)
(12860079.1792851,450706.328881553,156042.729380083)
(12667793.6018685,418245.330717917,305813.956349429)
(12306506.7759953,373229.130907403,647067.651896173)
(11916067.0567955,315606.0275466,1177143.34060527)
(11169929.0076903,229885.231255052,2176761.33793179)
(8696687.37666427,121589.982412687,5379887.48921591)
(0,0,0)
(0,0,0)
(0,0,0)
(0,0,0)
(0,0,0)
(0,0,0)
(12810100.8320871,747510.773386662,11063.8144580541)
(12803179.310212,744194.546039304,23545.1378996959)
(12785387.9482742,737494.715793047,40048.204862268)
(12745968.278725,726848.927984761,67171.5549626216)
(12659900.1232555,711004.59275848,123627.360105102)
(12475991.7464929,686312.926235147,260886.180345352)
(12125576.2752738,643241.773939498,589512.506591003)
(11773156.5962747,566764.972320838,1091404.39775544)
(11064738.3793847,413979.212387963,2068418.50623769)
(8637247.81463823,221338.819930301,5258288.97486056)
(0,0,0)
(0,0,0)
(0,0,0)
(0,0,0)
(0,0,0)
(0,0,0)
(12382936.0598562,1184788.51767903,7870.11412316361)
(12377462.9407678,1182121.46507745,16917.0909756892)
(12363272.8388103,1176821.246203,29458.4862580907)
(12331398.8916586,1168565.82414366,51358.9479934925)
(12260447.0881338,1156626.94248872,98959.7837718604)
(12104416.1668676,1137399.00648677,217845.766036277)
(11797697.9208054,1093128.34341665,513071.436532078)
(11567782.5448987,955940.149524152,938599.325118567)
(10852692.430845,732323.918637679,1875761.04769737)
(8499734.10803852,418879.353456915,5036997.29731719)
(0,0,0)
(0,0,0)
(0,0,0)
(0,0,0)
(0,0,0)
(0,0,0)
(11417247.2570297,2188966.15160537,5303.15580248217)
(11413566.2033804,2186461.46886305,11634.1459614455)
(11404064.1184861,2181088.7373808,21210.4044317601)
(11383138.1303668,2171543.05745578,39416.8157485249)
(11338686.0340265,2154595.06753372,79735.5995720017)
(11248306.3619733,2120880.53123117,173594.044458974)
(11085428.2498566,2044883.74125122,375901.216436626)
(10856537.547942,1871768.64926108,714978.424795843)
(10210449.7764642,1565760.17670397,1562351.66911532)
(8081513.84793034,1020885.20027205,4618147.96736667)
(0,0,0)
(0,0,0)
(0,0,0)
(0,0,0)
(0,0,0)
(0,0,0)
(8798914.55663718,5412674.37954662,2745.58591665693)
(8797107.81709249,5410095.63390385,6139.9468725945)
(8792433.40582084,5404166.05948214,11609.5433559196)
(8782356.33427179,5392673.2152129,22411.9272598351)
(8761681.52295809,5370398.36689184,45968.7293652823)
(8721044.01014665,5324547.94881749,97570.0947663098)
(8645853.40069073,5227006.25061325,202786.40541157)
(8501825.28019121,5024224.25357305,409014.113118637)
(8081781.83061523,4615129.45682497,1017538.58590596)
(6571228.94893156,3597471.49870079,3597325.46999741)
(0,0,0)
(0,0,0)
(0,0,0)
(0,0,0)
(0,0,0)
(0,0,0)
(0,0,0)
(0,0,0)
(0,0,0)
(0,0,0)
(0,0,0)
(0,0,0)
(0,0,0)
(0,0,0)
(0,0,0)
(0,0,0)
(0,0,0)
(0,0,0)
(0,0,0)
(0,0,0)
(0,0,0)
(0,0,0)
(0,0,0)
(0,0,0)
(0,0,0)
(0,0,0)
(0,0,0)
(0,0,0)
(0,0,0)
(0,0,0)
(0,0,0)
(0,0,0)
(0,0,0)
(0,0,0)
(0,0,0)
(0,0,0)
(0,0,0)
(0,0,0)
(0,0,0)
(0,0,0)
(0,0,0)
(0,0,0)
(0,0,0)
(0,0,0)
(0,0,0)
(0,0,0)
(0,0,0)
(0,0,0)
(0,0,0)
(0,0,0)
(0,0,0)
(0,0,0)
(0,0,0)
(0,0,0)
(0,0,0)
(0,0,0)
(0,0,0)
(0,0,0)
(0,0,0)
(0,0,0)
(0,0,0)
(0,0,0)
(0,0,0)
(0,0,0)
(0,0,0)
(0,0,0)
(0,0,0)
(0,0,0)
(0,0,0)
(0,0,0)
(0,0,0)
(0,0,0)
(0,0,0)
(0,0,0)
(0,0,0)
(0,0,0)
(0,0,0)
(0,0,0)
(0,0,0)
(0,0,0)
(0,0,0)
(0,0,0)
(0,0,0)
(0,0,0)
(0,0,0)
(0,0,0)
(0,0,0)
(0,0,0)
(0,0,0)
(0,0,0)
(0,0,0)
(0,0,0)
(0,0,0)
(0,0,0)
(0,0,0)
(0,0,0)
(0,0,0)
(0,0,0)
(0,0,0)
(0,0,0)
(0,0,0)
(0,0,0)
(-230665.228085469,33645.0595476271,28183.3643921229)
(-240284.564845109,31623.0212262675,59288.1334763744)
(-261955.430355482,27151.4233081843,96565.5238792035)
(-301308.778907335,19495.4620005838,143634.485601178)
(-368591.479063435,7904.53547676396,203365.826277259)
(-480842.274866082,-7060.47203982375,272558.333332747)
(-664388.037651179,-20886.4244934097,323136.002328711)
(-954889.285775751,-23767.9388472932,240205.736494418)
(-1371466.90446042,-16298.5831038364,-396909.054174557)
(-1681325.09474718,-7457.77799596167,-3349106.96414994)
(0,0,0)
(0,0,0)
(0,0,0)
(0,0,0)
(0,0,0)
(0,0,0)
(-240759.808335205,70610.2947139341,26149.7761956501)
(-250224.644302604,66797.4047936299,54826.4271058169)
(-271687.464107273,58215.6604602998,88909.4916488408)
(-311087.958814817,43001.7307646651,132000.980558713)
(-379382.314224788,18493.6284100902,188274.419978849)
(-494666.720057012,-16369.0721384896,258687.140441904)
(-682484.286173262,-52786.1208209784,320239.629456374)
(-970165.745474578,-58956.5805889103,247645.783226077)
(-1379100.58960106,-36567.5442173007,-388024.410899584)
(-1683985.23993884,-15283.7362173537,-3341612.3087989)
(0,0,0)
(0,0,0)
(0,0,0)
(0,0,0)
(0,0,0)
(0,0,0)
(-263355.13315622,113997.739235903,22304.4664961971)
(-272508.336218469,108935.495616708,46245.5293323588)
(-293573.200042549,97370.686528037,73667.9898186951)
(-333328.444756982,75974.6891233571,107446.360684035)
(-405115.968653857,38497.9786457015,153280.776343286)
(-532217.696176779,-23283.8074169086,222216.919076893)
(-742970.15878606,-103686.987555344,314075.486493588)
(-1023076.77455395,-114962.296743635,270061.300080607)
(-1402283.29424206,-58844.5297722492,-366675.384416998)
(-1691390.77177974,-20582.1202213318,-3326265.90913401)
(0,0,0)
(0,0,0)
(0,0,0)
(0,0,0)
(0,0,0)
(0,0,0)
(-303794.773946175,165933.754473626,17248.1377103622)
(-312420.987443689,160559.855079535,34724.1388341569)
(-332828.008303774,148327.329532901,52275.610456928)
(-373345.157602848,125259.010424067,69902.4415649421)
(-453120.729369792,82334.4199116437,91400.3274704324)
(-615013.858080933,257.141633279125,141788.085413791)
(-931075.834322236,-145092.219282984,302855.211112283)
(-1196403.9633151,-167890.638554418,326282.6722535)
(-1460421.7948077,-58144.9024950503,-328343.044770476)
(-1707317.59280873,-12642.9922397075,-3305605.26733134)
(0,0,0)
(0,0,0)
(0,0,0)
(0,0,0)
(0,0,0)
(0,0,0)
(-371575.689937497,226123.842558999,11931.0133311432)
(-379477.965066369,221493.926365618,22526.666909828)
(-398740.886605099,211384.424930354,29190.1847885442)
(-439228.666425448,193494.882036432,26878.7687055891)
(-528406.414936433,163834.287614187,9237.73009330032)
(-756806.890800175,118413.588879129,-3554.7525990675)
(-1503450.36801953,66492.1270474472,280118.427853173)
(-1783559.11295216,42989.8679112433,436140.931161665)
(-1574663.11992478,37823.7069458085,-282747.373731669)
(-1733515.69163143,23992.0577307568,-3292849.96811657)
(0,0,0)
(0,0,0)
(0,0,0)
(0,0,0)
(0,0,0)
(0,0,0)
(-483195.484638942,287263.25586581,7384.14068572655)
(-490138.213544532,283974.25770218,12427.7139723884)
(-507401.539197771,277276.656244892,11261.1826357118)
(-545017.455161269,266549.111399714,-2887.6945016439)
(-631707.81859656,250524.13575094,-36273.2481536516)
(-859604.144680095,226534.167751192,-55478.7838740308)
(-1570063.31861363,192438.994327834,256661.740057381)
(-1826711.2902042,172873.067944744,431074.183626579)
(-1628055.46681051,124840.032599593,-296440.370923575)
(-1759773.65355842,62203.8753161629,-3316673.86168321)
(0,0,0)
(0,0,0)
(0,0,0)
(0,0,0)
(0,0,0)
(0,0,0)
(-665634.486428939,320310.916270191,4204.9547146885)
(-671358.00753828,318426.371942165,5807.45482800012)
(-685896.880672951,315311.977449292,574.259173716258)
(-718685.271784402,312252.873687973,-18958.6560020537)
(-798324.527565652,311603.459385125,-60296.0322120184)
(-1021565.4399347,314852.729126287,-89540.1105564442)
(-1762697.22615902,315527.530601187,237162.151206275)
(-1999910.23319894,361547.969179185,383071.376048519)
(-1708800.82354151,202020.655486839,-359052.74730926)
(-1803130.22806057,83863.5204588736,-3378817.05315023)
(0,0,0)
(0,0,0)
(0,0,0)
(0,0,0)
(0,0,0)
(0,0,0)
(-956850.264304733,219154.890724264,2459.6463098303)
(-961182.253488335,218244.624662719,2803.88444845591)
(-972308.115793307,217630.242123854,-2416.12901942089)
(-998050.677452123,220415.618006094,-19612.0076236987)
(-1064007.55033109,235032.651900675,-57069.2650712283)
(-1268867.89580018,281463.084586076,-88878.2612602852)
(-2078398.16853012,381041.930848895,283220.72443065)
(-1694321.48942162,244819.843933496,223570.180599836)
(-1773125.63333466,90122.5657589865,-477196.36888951)
(-1870147.42496866,685.916976347201,-3462619.93579675)
(0,0,0)
(0,0,0)
(0,0,0)
(0,0,0)
(0,0,0)
(0,0,0)
(-1374697.47177364,-429032.904174569,1649.82030513101)
(-1377514.69843211,-429714.774443778,2207.41782725753)
(-1384676.63532828,-430276.932181982,372.64255055059)
(-1400578.42845282,-428982.767774815,-4995.11624578548)
(-1436939.77552744,-422182.044697394,-10637.3134906724)
(-1523867.56353489,-406181.960326584,10698.9535330622)
(-1713806.81650088,-394540.929205662,147034.176547989)
(-1776114.65170298,-482869.430255809,68892.9469851749)
(-1939564.5298016,-562854.490780845,-566598.393606159)
(-1970279.05782537,-489334.830407401,-3463267.44386362)
(0,0,0)
(0,0,0)
(0,0,0)
(0,0,0)
(0,0,0)
(0,0,0)
(-1683817.18552771,-3385715.42505575,931.559649142493)
(-1685176.80852945,-3386497.70841749,1516.41584779967)
(-1688617.89005629,-3387795.29783536,1603.37398138518)
(-1695997.0865189,-3389280.60297775,1771.92657789928)
(-1711622.26157576,-3390945.5807079,5356.54372523608)
(-1744397.03718575,-3396249.53992317,22382.4672571425)
(-1804904.35507105,-3418664.98618024,58781.5765965716)
(-1872221.52715597,-3477517.67658996,-11006.0731192118)
(-1970934.12742864,-3466619.54966309,-493007.759590171)
(-1902043.44236351,-2973708.29160213,-2973844.61049739)
(0,0,0)
(0,0,0)
(0,0,0)
(0,0,0)
(0,0,0)
(0,0,0)
(0,0,0)
(0,0,0)
(0,0,0)
(0,0,0)
(0,0,0)
(0,0,0)
(0,0,0)
(0,0,0)
(0,0,0)
(0,0,0)
(0,0,0)
(0,0,0)
(0,0,0)
(0,0,0)
(0,0,0)
(0,0,0)
(0,0,0)
(0,0,0)
(0,0,0)
(0,0,0)
(0,0,0)
(0,0,0)
(0,0,0)
(0,0,0)
(0,0,0)
(0,0,0)
(0,0,0)
(0,0,0)
(0,0,0)
(0,0,0)
(0,0,0)
(0,0,0)
(0,0,0)
(0,0,0)
(0,0,0)
(0,0,0)
(0,0,0)
(0,0,0)
(0,0,0)
(0,0,0)
(0,0,0)
(0,0,0)
(0,0,0)
(0,0,0)
(0,0,0)
(0,0,0)
(0,0,0)
(0,0,0)
(0,0,0)
(0,0,0)
(0,0,0)
(0,0,0)
(0,0,0)
(0,0,0)
(0,0,0)
(0,0,0)
(0,0,0)
(0,0,0)
(0,0,0)
(0,0,0)
(0,0,0)
(0,0,0)
(0,0,0)
(0,0,0)
(0,0,0)
(0,0,0)
(0,0,0)
(0,0,0)
(0,0,0)
(0,0,0)
(0,0,0)
(0,0,0)
(0,0,0)
(0,0,0)
(0,0,0)
(0,0,0)
(0,0,0)
(0,0,0)
(0,0,0)
(0,0,0)
(0,0,0)
(0,0,0)
(0,0,0)
(0,0,0)
(0,0,0)
(0,0,0)
(0,0,0)
(0,0,0)
(0,0,0)
(0,0,0)
(0,0,0)
(0,0,0)
(0,0,0)
(0,0,0)
(0,0,0)
(0,0,0)
(-272933.383326553,23553.6628632033,18714.4923778816)
(-281059.380690555,21690.2212781968,37799.0869451328)
(-298970.270949997,17455.2292680782,57358.6982715718)
(-330192.295110148,9779.82037400556,76462.3941003814)
(-380486.438594809,-2828.71389674485,91186.0675285008)
(-457839.725794214,-20850.5693669316,89034.0878235611)
(-569038.273241071,-38961.0835983933,32645.4070118463)
(-706893.031624335,-39008.6265375259,-176342.220602039)
(-817157.93236321,-23917.0386153299,-706734.154083879)
(-710122.283660656,-10140.325883865,-1667796.63928649)
(0,0,0)
(0,0,0)
(0,0,0)
(0,0,0)
(0,0,0)
(0,0,0)
(-282138.341368858,48094.325746159,16837.8701506933)
(-289837.749249752,44588.3395271318,33552.8568489099)
(-306760.703027595,36415.2843777684,49666.040659543)
(-336295.989496148,20847.9390615895,63805.9526532858)
(-384281.128845218,-7178.32849763207,73054.3818745982)
(-459409.823311396,-53929.548027678,70876.4637897336)
(-569851.794834498,-113279.495051623,32562.383904204)
(-703491.259258637,-111836.417699932,-161284.311149333)
(-811681.474233805,-59717.7510698089,-692902.714062082)
(-706737.737315809,-22689.9864247069,-1657600.55614437)
(0,0,0)
(0,0,0)
(0,0,0)
(0,0,0)
(0,0,0)
(0,0,0)
(-302293.471974807,73751.4916191636,13281.1729455845)
(-309130.896280589,69164.2063168222,25327.8662180128)
(-324064.181231623,58206.7810261656,34027.3507586885)
(-350165.382092246,36014.1442063876,35698.0829491511)
(-393330.496962476,-9447.92098721855,26182.2037473554)
(-465329.84650628,-106074.65542287,11439.461472033)
(-586937.015407425,-291809.687368477,33936.5104102483)
(-703496.353102212,-288293.126621378,-109187.202120056)
(-798409.47712268,-116975.807557508,-655802.962751741)
(-698544.885726162,-36512.1603467811,-1634826.67488329)
(0,0,0)
(0,0,0)
(0,0,0)
(0,0,0)
(0,0,0)
(0,0,0)
(-337035.738751331,98324.5930667981,8667.86335753132)
(-342608.259638717,93668.6866433506,14350.6552260377)
(-354616.10212868,82554.6528849166,11790.8771921972)
(-375159.575838709,59468.600653202,-9849.16101875173)
(-408979.403187479,7075.50654679126,-70513.9147350738)
(-475732.683221493,-141534.294973857,-174335.450043538)
(-717225.11433991,-717417.743978783,37421.8865844481)
(-754430.521317709,-755011.715258249,62167.0332239059)
(-767593.887961154,-172345.13632046,-575291.544859679)
(-682080.396202422,-38813.2803301466,-1598227.62148271)
(0,0,0)
(0,0,0)
(0,0,0)
(0,0,0)
(0,0,0)
(0,0,0)
(-391893.739458759,114583.783104633,4058.85948342391)
(-395993.251753328,110954.036875914,3288.79593782284)
(-404401.313697549,102820.680874614,-11316.8049594202)
(-416472.266845441,87737.2543373467,-62341.8582235689)
(-425020.045224137,60529.4982217447,-219182.219610821)
(-382975.459678298,15647.4360925647,-750195.381799116)
(8.50898488932861e-05,2.33357989253203e-05,-5.53729812801705e-05)