/*--------------------------------*- C++ -*----------------------------------*\
| =========                 |                                                 |
| \\      /  F ield         | foam-extend: Open Source CFD                    |
|  \\    /   O peration     | Version:     4.0                                |
|   \\  /    A nd           | Web:         http://www.foam-extend.org         |
|    \\/     M anipulation  |                                                 |
\*---------------------------------------------------------------------------*/
FoamFile
{
    version 2.0;
    format ascii;
    class volVectorField;
    location "1818";
    object      H;
}
// * * * * * * * * * * * * * * * * * * * * * * * * * * * * * * * * * * * * * //

dimensions      [0 1 -1 0 0 0 0];

internalField   nonuniform List<vector>
4096
(
(0,0,0)
(0,0,0)
(0,0,0)
(0,0,0)
(0,0,0)
(0,0,0)
(0,0,0)
(0,0,0)
(0,0,0)
(0,0,0)
(0,0,0)
(0,0,0)
(0,0,0)
(0,0,0)
(0,0,0)
(0,0,0)
(0,0,0)
(0,0,0)
(0,0,0)
(0,0,0)
(0,0,0)
(0,0,0)
(0,0,0)
(0,0,0)
(0,0,0)
(0,0,0)
(0,0,0)
(0,0,0)
(0,0,0)
(0,0,0)
(0,0,0)
(0,0,0)
(0,0,0)
(0,0,0)
(0,0,0)
(0,0,0)
(0,0,0)
(0,0,0)
(0,0,0)
(0,0,0)
(0,0,0)
(0,0,0)
(0,0,0)
(0,0,0)
(0,0,0)
(0,0,0)
(0,0,0)
(0,0,0)
(0,0,0)
(0,0,0)
(0,0,0)
(0,0,0)
(0,0,0)
(0,0,0)
(0,0,0)
(0,0,0)
(0,0,0)
(0,0,0)
(0,0,0)
(0,0,0)
(0,0,0)
(0,0,0)
(0,0,0)
(0,0,0)
(0,0,0)
(0,0,0)
(0,0,0)
(0,0,0)
(0,0,0)
(0,0,0)
(0,0,0)
(0,0,0)
(0,0,0)
(0,0,0)
(0,0,0)
(0,0,0)
(0,0,0)
(0,0,0)
(0,0,0)
(0,0,0)
(0,0,0)
(0,0,0)
(0,0,0)
(0,0,0)
(0,0,0)
(0,0,0)
(0,0,0)
(0,0,0)
(0,0,0)
(0,0,0)
(0,0,0)
(0,0,0)
(0,0,0)
(0,0,0)
(0,0,0)
(0,0,0)
(0,0,0)
(0,0,0)
(0,0,0)
(0,0,0)
(0,0,0)
(0,0,0)
(0,0,0)
(0,0,0)
(0,0,0)
(0,0,0)
(0,0,0)
(0,0,0)
(0,0,0)
(0,0,0)
(0,0,0)
(0,0,0)
(0,0,0)
(0,0,0)
(0,0,0)
(0,0,0)
(0,0,0)
(0,0,0)
(0,0,0)
(0,0,0)
(0,0,0)
(0,0,0)
(0,0,0)
(0,0,0)
(0,0,0)
(0,0,0)
(0,0,0)
(0,0,0)
(0,0,0)
(0,0,0)
(0,0,0)
(0,0,0)
(0,0,0)
(0,0,0)
(0,0,0)
(0,0,0)
(0,0,0)
(0,0,0)
(0,0,0)
(0,0,0)
(0,0,0)
(0,0,0)
(0,0,0)
(0,0,0)
(0,0,0)
(0,0,0)
(0,0,0)
(0,0,0)
(0,0,0)
(0,0,0)
(0,0,0)
(0,0,0)
(0,0,0)
(0,0,0)
(0,0,0)
(0,0,0)
(0,0,0)
(0,0,0)
(0,0,0)
(0,0,0)
(0,0,0)
(0,0,0)
(0,0,0)
(0,0,0)
(0,0,0)
(0,0,0)
(0,0,0)
(0,0,0)
(0,0,0)
(0,0,0)
(0,0,0)
(0,0,0)
(0,0,0)
(0,0,0)
(0,0,0)
(0,0,0)
(0,0,0)
(0,0,0)
(0,0,0)
(0,0,0)
(0,0,0)
(0,0,0)
(0,0,0)
(0,0,0)
(0,0,0)
(0,0,0)
(0,0,0)
(0,0,0)
(0,0,0)
(0,0,0)
(0,0,0)
(0,0,0)
(0,0,0)
(0,0,0)
(0,0,0)
(0,0,0)
(0,0,0)
(0,0,0)
(0,0,0)
(0,0,0)
(0,0,0)
(0,0,0)
(0,0,0)
(0,0,0)
(0,0,0)
(0,0,0)
(0,0,0)
(0,0,0)
(0,0,0)
(0,0,0)
(0,0,0)
(0,0,0)
(0,0,0)
(0,0,0)
(0,0,0)
(0,0,0)
(0,0,0)
(0,0,0)
(0,0,0)
(0,0,0)
(0,0,0)
(0,0,0)
(0,0,0)
(0,0,0)
(0,0,0)
(0,0,0)
(0,0,0)
(0,0,0)
(0,0,0)
(0,0,0)
(0,0,0)
(0,0,0)
(0,0,0)
(0,0,0)
(0,0,0)
(0,0,0)
(0,0,0)
(0,0,0)
(0,0,0)
(0,0,0)
(0,0,0)
(0,0,0)
(0,0,0)
(0,0,0)
(0,0,0)
(0,0,0)
(0,0,0)
(0,0,0)
(0,0,0)
(0,0,0)
(0,0,0)
(0,0,0)
(0,0,0)
(0,0,0)
(0,0,0)
(0,0,0)
(0,0,0)
(0,0,0)
(0,0,0)
(0,0,0)
(0,0,0)
(0,0,0)
(0,0,0)
(0,0,0)
(0,0,0)
(0,0,0)
(0,0,0)
(0,0,0)
(0,0,0)
(0,0,0)
(0,0,0)
(0,0,0)
(0,0,0)
(0,0,0)
(0,0,0)
(0,0,0)
(0,0,0)
(0,0,0)
(0,0,0)
(0,0,0)
(0,0,0)
(0,0,0)
(0,0,0)
(0,0,0)
(0,0,0)
(0,0,0)
(0,0,0)
(0,0,0)
(0,0,0)
(0,0,0)
(0,0,0)
(0,0,0)
(0,0,0)
(0,0,0)
(0,0,0)
(0,0,0)
(0,0,0)
(0,0,0)
(0,0,0)
(0,0,0)
(0,0,0)
(0,0,0)
(0,0,0)
(0,0,0)
(0,0,0)
(0,0,0)
(0,0,0)
(0,0,0)
(0,0,0)
(0,0,0)
(0,0,0)
(0,0,0)
(0,0,0)
(0,0,0)
(0,0,0)
(0,0,0)
(0,0,0)
(0,0,0)
(0,0,0)
(0,0,0)
(0,0,0)
(0,0,0)
(0,0,0)
(0,0,0)
(0,0,0)
(0,0,0)
(0,0,0)
(0,0,0)
(0,0,0)
(0,0,0)
(0,0,0)
(0,0,0)
(0,0,0)
(0,0,0)
(0,0,0)
(0,0,0)
(0,0,0)
(0,0,0)
(0,0,0)
(0,0,0)
(0,0,0)
(0,0,0)
(0,0,0)
(0,0,0)
(0,0,0)
(0,0,0)
(0,0,0)
(0,0,0)
(0,0,0)
(0,0,0)
(0,0,0)
(0,0,0)
(0,0,0)
(0,0,0)
(0,0,0)
(0,0,0)
(0,0,0)
(0,0,0)
(0,0,0)
(0,0,0)
(0,0,0)
(0,0,0)
(0,0,0)
(0,0,0)
(0,0,0)
(0,0,0)
(0,0,0)
(0,0,0)
(0,0,0)
(0,0,0)
(0,0,0)
(0,0,0)
(0,0,0)
(0,0,0)
(0,0,0)
(0,0,0)
(0,0,0)
(0,0,0)
(0,0,0)
(0,0,0)
(0,0,0)
(0,0,0)
(0,0,0)
(0,0,0)
(0,0,0)
(0,0,0)
(0,0,0)
(0,0,0)
(0,0,0)
(0,0,0)
(0,0,0)
(0,0,0)
(0,0,0)
(0,0,0)
(0,0,0)
(0,0,0)
(0,0,0)
(0,0,0)
(0,0,0)
(0,0,0)
(0,0,0)
(0,0,0)
(0,0,0)
(0,0,0)
(0,0,0)
(0,0,0)
(0,0,0)
(0,0,0)
(0,0,0)
(0,0,0)
(0,0,0)
(0,0,0)
(0,0,0)
(0,0,0)
(0,0,0)
(0,0,0)
(0,0,0)
(0,0,0)
(0,0,0)
(0,0,0)
(0,0,0)
(0,0,0)
(0,0,0)
(0,0,0)
(0,0,0)
(0,0,0)
(0,0,0)
(0,0,0)
(0,0,0)
(0,0,0)
(0,0,0)
(0,0,0)
(0,0,0)
(0,0,0)
(0,0,0)
(0,0,0)
(0,0,0)
(0,0,0)
(0,0,0)
(0,0,0)
(0,0,0)
(0,0,0)
(0,0,0)
(0,0,0)
(0,0,0)
(0,0,0)
(0,0,0)
(0,0,0)
(0,0,0)
(0,0,0)
(0,0,0)
(0,0,0)
(0,0,0)
(0,0,0)
(0,0,0)
(0,0,0)
(0,0,0)
(0,0,0)
(0,0,0)
(0,0,0)
(0,0,0)
(0,0,0)
(0,0,0)
(0,0,0)
(0,0,0)
(0,0,0)
(0,0,0)
(0,0,0)
(0,0,0)
(0,0,0)
(0,0,0)
(0,0,0)
(0,0,0)
(0,0,0)
(0,0,0)
(0,0,0)
(0,0,0)
(0,0,0)
(0,0,0)
(0,0,0)
(0,0,0)
(0,0,0)
(0,0,0)
(0,0,0)
(0,0,0)
(0,0,0)
(0,0,0)
(0,0,0)
(0,0,0)
(0,0,0)
(0,0,0)
(0,0,0)
(0,0,0)
(0,0,0)
(0,0,0)
(0,0,0)
(0,0,0)
(0,0,0)
(0,0,0)
(0,0,0)
(0,0,0)
(0,0,0)
(0,0,0)
(0,0,0)
(0,0,0)
(0,0,0)
(0,0,0)
(0,0,0)
(0,0,0)
(0,0,0)
(0,0,0)
(0,0,0)
(0,0,0)
(0,0,0)
(0,0,0)
(0,0,0)
(0,0,0)
(0,0,0)
(0,0,0)
(0,0,0)
(0,0,0)
(0,0,0)
(0,0,0)
(0,0,0)
(0,0,0)
(0,0,0)
(0,0,0)
(0,0,0)
(0,0,0)
(0,0,0)
(0,0,0)
(0,0,0)
(0,0,0)
(0,0,0)
(0,0,0)
(0,0,0)
(0,0,0)
(0,0,0)
(0,0,0)
(0,0,0)
(0,0,0)
(0,0,0)
(0,0,0)
(0,0,0)
(0,0,0)
(0,0,0)
(0,0,0)
(0,0,0)
(0,0,0)
(0,0,0)
(0,0,0)
(0,0,0)
(0,0,0)
(0,0,0)
(0,0,0)
(0,0,0)
(0,0,0)
(0,0,0)
(0,0,0)
(0,0,0)
(0,0,0)
(0,0,0)
(0,0,0)
(0,0,0)
(0,0,0)
(0,0,0)
(0,0,0)
(0,0,0)
(0,0,0)
(0,0,0)
(0,0,0)
(0,0,0)
(0,0,0)
(0,0,0)
(0,0,0)
(0,0,0)
(0,0,0)
(0,0,0)
(0,0,0)
(0,0,0)
(0,0,0)
(0,0,0)
(0,0,0)
(0,0,0)
(0,0,0)
(0,0,0)
(0,0,0)
(0,0,0)
(0,0,0)
(0,0,0)
(0,0,0)
(0,0,0)
(0,0,0)
(0,0,0)
(0,0,0)
(0,0,0)
(0,0,0)
(0,0,0)
(0,0,0)
(0,0,0)
(0,0,0)
(0,0,0)
(0,0,0)
(0,0,0)
(0,0,0)
(0,0,0)
(0,0,0)
(0,0,0)
(0,0,0)
(0,0,0)
(0,0,0)
(0,0,0)
(0,0,0)
(0,0,0)
(0,0,0)
(0,0,0)
(0,0,0)
(0,0,0)
(0,0,0)
(0,0,0)
(0,0,0)
(0,0,0)
(0,0,0)
(0,0,0)
(0,0,0)
(0,0,0)
(0,0,0)
(0,0,0)
(0,0,0)
(0,0,0)
(0,0,0)
(0,0,0)
(0,0,0)
(0,0,0)
(0,0,0)
(0,0,0)
(0,0,0)
(0,0,0)
(0,0,0)
(0,0,0)
(0,0,0)
(0,0,0)
(0,0,0)
(0,0,0)
(0,0,0)
(0,0,0)
(0,0,0)
(0,0,0)
(0,0,0)
(0,0,0)
(0,0,0)
(0,0,0)
(0,0,0)
(0,0,0)
(0,0,0)
(0,0,0)
(0,0,0)
(0,0,0)
(0,0,0)
(0,0,0)
(0,0,0)
(0,0,0)
(0,0,0)
(0,0,0)
(0,0,0)
(0,0,0)
(0,0,0)
(0,0,0)
(0,0,0)
(0,0,0)
(0,0,0)
(0,0,0)
(0,0,0)
(0,0,0)
(0,0,0)
(0,0,0)
(0,0,0)
(0,0,0)
(0,0,0)
(0,0,0)
(0,0,0)
(0,0,0)
(0,0,0)
(0,0,0)
(0,0,0)
(0,0,0)
(0,0,0)
(0,0,0)
(0,0,0)
(0,0,0)
(0,0,0)
(0,0,0)
(0,0,0)
(0,0,0)
(0,0,0)
(0,0,0)
(0,0,0)
(0,0,0)
(0,0,0)
(0,0,0)
(0,0,0)
(0,0,0)
(0,0,0)
(0,0,0)
(0,0,0)
(0,0,0)
(0,0,0)
(0,0,0)
(0,0,0)
(0,0,0)
(0,0,0)
(0,0,0)
(0,0,0)
(0,0,0)
(0,0,0)
(0,0,0)
(0,0,0)
(0,0,0)
(0,0,0)
(0,0,0)
(0,0,0)
(0,0,0)
(0,0,0)
(0,0,0)
(0,0,0)
(0,0,0)
(0,0,0)
(0,0,0)
(0,0,0)
(0,0,0)
(0,0,0)
(0,0,0)
(0,0,0)
(0,0,0)
(0,0,0)
(0,0,0)
(0,0,0)
(0,0,0)
(0,0,0)
(0,0,0)
(0,0,0)
(0,0,0)
(0,0,0)
(0,0,0)
(0,0,0)
(0,0,0)
(0,0,0)
(0,0,0)
(0,0,0)
(0,0,0)
(0,0,0)
(0,0,0)
(0,0,0)
(0,0,0)
(0,0,0)
(0,0,0)
(0,0,0)
(0,0,0)
(0,0,0)
(0,0,0)
(0,0,0)
(0,0,0)
(0,0,0)
(0,0,0)
(0,0,0)
(0,0,0)
(0,0,0)
(0,0,0)
(0,0,0)
(0,0,0)
(0,0,0)
(0,0,0)
(0,0,0)
(0,0,0)
(0,0,0)
(0,0,0)
(0,0,0)
(0,0,0)
(0,0,0)
(0,0,0)
(0,0,0)
(0,0,0)
(0,0,0)
(0,0,0)
(0,0,0)
(0,0,0)
(0,0,0)
(0,0,0)
(0,0,0)
(0,0,0)
(0,0,0)
(0,0,0)
(0,0,0)
(0,0,0)
(0,0,0)
(0,0,0)
(0,0,0)
(0,0,0)
(0,0,0)
(0,0,0)
(0,0,0)
(0,0,0)
(0,0,0)
(0,0,0)
(0,0,0)
(0,0,0)
(0,0,0)
(0,0,0)
(0,0,0)
(0,0,0)
(0,0,0)
(0,0,0)
(0,0,0)
(0,0,0)
(0,0,0)
(0,0,0)
(0,0,0)
(0,0,0)
(0,0,0)
(-1.82382680994042e-12,-1.19076324240538e-11,1.24510218650659e-11)
(-3.86626656559847e-12,-2.58888687428728e-11,1.19873042913673e-11)
(-5.26139374229059e-12,-4.43754621846498e-11,1.0950168524081e-11)
(-5.16447367646722e-12,-7.17929140263835e-11,9.48073150530436e-12)
(-3.66147334276152e-12,-1.14013928988847e-10,7.37107100990561e-12)
(-2.04692852603021e-12,-1.83006464280007e-10,4.76570683269297e-12)
(6.25832626676792e-13,-2.94803164030096e-10,2.12192193117868e-12)
(3.39257944354263e-12,-4.79490924855893e-10,5.91448449326291e-13)
(4.85722975965971e-12,-7.84797992965784e-10,3.06882302305049e-13)
(4.52901649412524e-12,-1.21271980109458e-09,4.09797478392456e-13)
(0,0,0)
(0,0,0)
(0,0,0)
(0,0,0)
(0,0,0)
(0,0,0)
(-3.29043236916409e-12,-1.15729664100427e-11,2.78911390073407e-11)
(-6.11728904345913e-12,-2.50682078444336e-11,2.69247271402463e-11)
(-7.89557542810687e-12,-4.31469945126449e-11,2.48368054823647e-11)
(-8.08271804891238e-12,-7.01673003507634e-11,2.16133932350871e-11)
(-6.66226876932881e-12,-1.1206742484133e-10,1.70628156177727e-11)
(-4.06152718336094e-12,-1.81134934398812e-10,1.20530540612733e-11)
(1.10209519101877e-13,-2.93433597054328e-10,7.35150504687179e-12)
(4.74974942272496e-12,-4.79020146372211e-10,4.44441580789482e-12)
(7.46170053815539e-12,-7.85032080337506e-10,2.67166880993236e-12)
(8.02512116519045e-12,-1.2131450558755e-09,1.30797696791938e-12)
(0,0,0)
(0,0,0)
(0,0,0)
(0,0,0)
(0,0,0)
(0,0,0)
(-3.56684504067135e-12,-1.05504947774977e-11,4.86551549502708e-11)
(-6.90774892114431e-12,-2.31109370648056e-11,4.74612329202666e-11)
(-8.86743306311606e-12,-4.01373878407719e-11,4.44450544849795e-11)
(-8.99836171212777e-12,-6.62645532262045e-11,3.97453299472786e-11)
(-8.19129372041637e-12,-1.07624761875385e-10,3.31804690590051e-11)
(-4.61435432532041e-12,-1.77000803946144e-10,2.58719604298244e-11)
(3.3205095615626e-13,-2.90968650038849e-10,1.84106094396207e-11)
(7.03742257716436e-12,-4.78066604068898e-10,1.28340132748946e-11)
(1.24925382363325e-11,-7.85090623519999e-10,8.53690151872194e-12)
(1.52440099151183e-11,-1.21366500457146e-09,4.325209157252e-12)
(0,0,0)
(0,0,0)
(0,0,0)
(0,0,0)
(0,0,0)
(0,0,0)
(-3.02819334579788e-12,-9.05047822630279e-12,7.71390302033115e-11)
(-5.6805294640984e-12,-2.01264252517294e-11,7.57477879842897e-11)
(-7.76407762326685e-12,-3.52313626887585e-11,7.24915922517302e-11)
(-8.57612596393026e-12,-5.91758059182866e-11,6.73405010294807e-11)
(-8.01588338603374e-12,-9.91170141312275e-11,5.98084929444402e-11)
(-3.54649152311026e-12,-1.68060327984854e-10,5.09056969168387e-11)
(2.84404248240928e-12,-2.84520810237095e-10,4.11952462076822e-11)
(1.15648224304133e-11,-4.74832452230284e-10,3.18277133420673e-11)
(1.8960469037849e-11,-7.83000491589621e-10,2.24312182797224e-11)
(2.26403565555066e-11,-1.21139594984363e-09,1.18830702029033e-11)
(0,0,0)
(0,0,0)
(0,0,0)
(0,0,0)
(0,0,0)
(0,0,0)
(-2.60531584941757e-12,-7.62703654166822e-12,1.19334804668189e-10)
(-4.36618033501789e-12,-1.70468128241146e-11,1.18003719051297e-10)
(-5.82377313919461e-12,-2.95200911435651e-11,1.14782724702191e-10)
(-6.21363909193829e-12,-5.01041899545694e-11,1.09942346911391e-10)
(-4.39159276737336e-12,-8.73738162414185e-11,1.03358326968916e-10)
(6.25668209212455e-13,-1.54773664767012e-10,9.53324608111224e-11)
(8.13093905738947e-12,-2.73076379179489e-10,8.54298671482925e-11)
(1.66431497789679e-11,-4.67093029441516e-10,6.91712965982561e-11)
(2.45072321098635e-11,-7.75213911139248e-10,4.89291676290345e-11)
(2.86511402322254e-11,-1.20200732972134e-09,2.55286513337324e-11)
(0,0,0)
(0,0,0)
(0,0,0)
(0,0,0)
(0,0,0)
(0,0,0)
(-2.0764689074175e-12,-6.38638911489153e-12,1.85806626824878e-10)
(-3.42392416440074e-12,-1.38276033938243e-11,1.84388033775933e-10)
(-3.58204090692838e-12,-2.37279224019828e-11,1.81786243791134e-10)
(-3.00398154941175e-12,-4.1135490623069e-11,1.78240287087524e-10)
(-5.39138584675273e-13,-7.49837038382435e-11,1.7286390359497e-10)
(4.59503217594194e-12,-1.39850083289988e-10,1.64697558635857e-10)
(1.17855220571421e-11,-2.58375815662106e-10,1.51178999473379e-10)
(1.9904324825132e-11,-4.50577102822096e-10,1.26766070468668e-10)
(2.75623352202787e-11,-7.55273954090403e-10,9.19808314334881e-11)
(3.17083548763334e-11,-1.17938221103776e-09,4.86684404342393e-11)
(0,0,0)
(0,0,0)
(0,0,0)
(0,0,0)
(0,0,0)
(0,0,0)
(-1.19714014682216e-12,-4.83597104833902e-12,2.92642477952614e-10)
(-1.536097770005e-12,-1.0546461107194e-11,2.91890969164068e-10)
(-1.04588807273639e-12,-1.84743895736811e-11,2.90364132777328e-10)
(-1.11843692231622e-13,-3.29016143188616e-11,2.8789900846369e-10)
(3.22291401581802e-12,-6.2587992776505e-11,2.83217963571218e-10)
(8.87031821640812e-12,-1.22356993573945e-10,2.74213024069823e-10)
(1.39080625956143e-11,-2.35782528252224e-10,2.54518395982276e-10)
(2.02509915661453e-11,-4.19518410006609e-10,2.20028640041744e-10)
(2.66467850142905e-11,-7.15351968039304e-10,1.64371224698094e-10)
(3.03232919171517e-11,-1.1336960228061e-09,8.92168537520542e-11)
(0,0,0)
(0,0,0)
(0,0,0)
(0,0,0)
(0,0,0)
(0,0,0)
(1.16886419907625e-12,-3.64626336094692e-12,4.73425364223133e-10)
(1.98879157350348e-12,-7.90120269162138e-12,4.73128709563691e-10)
(3.15185694524308e-12,-1.42410961293013e-11,4.71979320971038e-10)
(4.47814887709607e-12,-2.60907301283915e-11,4.69896577345953e-10)
(7.31842520766348e-12,-5.20043519053914e-11,4.64962578319063e-10)
(1.19508349817921e-11,-1.0440198857891e-10,4.53738877969408e-10)
(1.63167004238582e-11,-2.02683883071892e-10,4.27595503058802e-10)
(2.03876598377002e-11,-3.66466299131e-10,3.76145845560455e-10)
(2.52436786352249e-11,-6.43069577398807e-10,2.90535205680497e-10)
(2.79468868945353e-11,-1.04685867034512e-09,1.64332263056685e-10)
(0,0,0)
(0,0,0)
(0,0,0)
(0,0,0)
(0,0,0)
(0,0,0)
(3.17501566294004e-12,-2.59468234527712e-12,7.77749127763026e-10)
(5.40028944770262e-12,-5.48786473594492e-12,7.77136875441853e-10)
(7.10621649034961e-12,-1.04067636439827e-11,7.75621543081871e-10)
(8.59545506698182e-12,-1.91672965927724e-11,7.72642780808859e-10)
(1.09415369393443e-11,-3.92184393932848e-11,7.66155023089381e-10)
(1.38845753432591e-11,-7.85714110467421e-11,7.50750490550982e-10)
(1.75416959211147e-11,-1.52025423598017e-10,7.15672861103086e-10)
(2.06707395778942e-11,-2.82551241805393e-10,6.46386320811816e-10)
(2.43828960743767e-11,-5.19051003369599e-10,5.22505744595775e-10)
(2.49222611532501e-11,-8.84430437104061e-10,3.13993275859836e-10)
(0,0,0)
(0,0,0)
(0,0,0)
(0,0,0)
(0,0,0)
(0,0,0)
(4.05463774327688e-12,-1.48817001456544e-12,1.20557210002963e-09)
(7.83801610037413e-12,-2.92571322583004e-12,1.20447586258835e-09)
(9.43029997760135e-12,-5.60218486427372e-12,1.20280793781852e-09)
(1.0658510293438e-11,-1.02802223207568e-11,1.19889459496308e-09)
(1.23237689864806e-11,-2.14505226345012e-11,1.19102269091905e-09)
(1.46259369272645e-11,-4.27148240001858e-11,1.1720463449233e-09)
(1.82935900038667e-11,-8.31565631395095e-11,1.13028602336429e-09)
(2.14666364169468e-11,-1.60141012433878e-10,1.04705513961173e-09)
(2.47357068616069e-11,-3.11960450916087e-10,8.85660996563048e-10)
(2.36829991924617e-11,-5.71769078994874e-10,5.72815846999653e-10)
(0,0,0)
(0,0,0)
(0,0,0)
(0,0,0)
(0,0,0)
(0,0,0)
(0,0,0)
(0,0,0)
(0,0,0)
(0,0,0)
(0,0,0)
(0,0,0)
(0,0,0)
(0,0,0)
(0,0,0)
(0,0,0)
(0,0,0)
(0,0,0)
(0,0,0)
(0,0,0)
(0,0,0)
(0,0,0)
(0,0,0)
(0,0,0)
(0,0,0)
(0,0,0)
(0,0,0)
(0,0,0)
(0,0,0)
(0,0,0)
(0,0,0)
(0,0,0)
(0,0,0)
(0,0,0)
(0,0,0)
(0,0,0)
(0,0,0)
(0,0,0)
(0,0,0)
(0,0,0)
(0,0,0)
(0,0,0)
(0,0,0)
(0,0,0)
(0,0,0)
(0,0,0)
(0,0,0)
(0,0,0)
(0,0,0)
(0,0,0)
(0,0,0)
(0,0,0)
(0,0,0)
(0,0,0)
(0,0,0)
(0,0,0)
(0,0,0)
(0,0,0)
(0,0,0)
(0,0,0)
(0,0,0)
(0,0,0)
(0,0,0)
(0,0,0)
(0,0,0)
(0,0,0)
(0,0,0)
(0,0,0)
(0,0,0)
(0,0,0)
(0,0,0)
(0,0,0)
(0,0,0)
(0,0,0)
(0,0,0)
(0,0,0)
(0,0,0)
(0,0,0)
(0,0,0)
(0,0,0)
(0,0,0)
(0,0,0)
(0,0,0)
(0,0,0)
(0,0,0)
(0,0,0)
(0,0,0)
(0,0,0)
(0,0,0)
(0,0,0)
(0,0,0)
(0,0,0)
(0,0,0)
(0,0,0)
(0,0,0)
(0,0,0)
(0,0,0)
(0,0,0)
(0,0,0)
(0,0,0)
(0,0,0)
(0,0,0)
(-1.69477525025598e-12,-2.24962966315222e-11,2.46419345039215e-11)
(-3.64979169675406e-12,-4.84976159904404e-11,2.3514540741059e-11)
(-5.02042439554376e-12,-8.28609970053776e-11,2.08675851256424e-11)
(-4.68042685668855e-12,-1.32641916475121e-10,1.70502094028427e-11)
(-3.00261331310766e-12,-2.07986664772612e-10,1.26331440905032e-11)
(-1.27467350568474e-12,-3.27345830795488e-10,7.32507587277321e-12)
(7.8673913283595e-13,-5.17579496752943e-10,2.07362454511014e-12)
(3.20636710668514e-12,-8.37984034598833e-10,-8.27722250552084e-13)
(4.98840195499866e-12,-1.44950504575226e-09,-1.50390129675697e-12)
(5.36406875299143e-12,-2.85584003754913e-09,-7.5776407477215e-13)
(0,0,0)
(0,0,0)
(0,0,0)
(0,0,0)
(0,0,0)
(0,0,0)
(-3.34649213461376e-12,-2.16580679465238e-11,5.43794769835484e-11)
(-5.98663816520239e-12,-4.6677816852136e-11,5.21326109674561e-11)
(-7.68176985269177e-12,-8.02189574068882e-11,4.727200487071e-11)
(-7.43488755616178e-12,-1.29170104851324e-10,3.95969059046962e-11)
(-6.09517017877799e-12,-2.03640668542195e-10,2.97352518355935e-11)
(-3.49410862164476e-12,-3.23373190524088e-10,1.85024703660655e-11)
(5.52351742498767e-13,-5.15919279596101e-10,7.77858817033039e-12)
(5.56895411759419e-12,-8.38919435538981e-10,2.38155435712616e-12)
(8.88393556305467e-12,-1.45176011950843e-09,5.496504487614e-13)
(9.8530468292877e-12,-2.85796070603853e-09,2.56504378953781e-13)
(0,0,0)
(0,0,0)
(0,0,0)
(0,0,0)
(0,0,0)
(0,0,0)
(-3.87293956186084e-12,-1.98901574416242e-11,9.37488427973775e-11)
(-6.87608229892925e-12,-4.29164502467285e-11,9.04736417901248e-11)
(-9.07373367741223e-12,-7.38026721753273e-11,8.37704713141089e-11)
(-9.52224813176921e-12,-1.20240224803767e-10,7.32116619952226e-11)
(-9.3905328354474e-12,-1.93174123939134e-10,5.87176231891157e-11)
(-6.09347929640752e-12,-3.13565891648463e-10,4.09580212471977e-11)
(-5.39192680865944e-13,-5.11653243083656e-10,2.27397283500213e-11)
(8.10038249461786e-12,-8.3987307470133e-10,1.3660085221842e-11)
(1.46140986671485e-11,-1.45454159605239e-09,9.22637200218717e-12)
(1.7300164344382e-11,-2.86053260107432e-09,5.14990094535692e-12)
(0,0,0)
(0,0,0)
(0,0,0)
(0,0,0)
(0,0,0)
(0,0,0)
(-3.06039281141158e-12,-1.71494769617112e-11,1.45827966446908e-10)
(-5.50394615915585e-12,-3.70703161075368e-11,1.42409109427785e-10)
(-8.32425794621875e-12,-6.38730608985509e-11,1.35449156224125e-10)
(-1.01157338426017e-11,-1.05455880444927e-10,1.24019320995294e-10)
(-1.08562852482465e-11,-1.74256533680286e-10,1.07236851133286e-10)
(-7.12270403178985e-12,-2.93422465991902e-10,8.54308750251896e-11)
(7.67144290393832e-13,-5.00408518868875e-10,6.17200198991603e-11)
(1.32218947040773e-11,-8.38928132340783e-10,4.64641710397482e-11)
(2.17220366647546e-11,-1.45496732159807e-09,3.34577597390464e-11)
(2.51348066368995e-11,-2.8591628585495e-09,1.81524396095655e-11)
(0,0,0)
(0,0,0)
(0,0,0)
(0,0,0)
(0,0,0)
(0,0,0)
(-2.51487765930209e-12,-1.38921046111287e-11,2.19727845933103e-10)
(-4.3643954162044e-12,-2.98895904523228e-11,2.16740690877188e-10)
(-6.77556408997726e-12,-5.14409316449752e-11,2.1062858957511e-10)
(-8.59831848096897e-12,-8.60192915344897e-11,2.00851227147618e-10)
(-8.75583901274515e-12,-1.4715380446687e-10,1.87052412606381e-10)
(-4.39531960499285e-12,-2.60608048758929e-10,1.70445740350119e-10)
(9.68894609006263e-12,-4.73866329891849e-10,1.55527471795379e-10)
(2.03693521289493e-11,-8.30164631983025e-10,1.21112644258525e-10)
(2.7967791356283e-11,-1.44571926768801e-09,8.40501368177008e-11)
(3.15546728819961e-11,-2.84594010362041e-09,4.36126539739844e-11)
(0,0,0)
(0,0,0)
(0,0,0)
(0,0,0)
(0,0,0)
(0,0,0)
(-2.20829392502537e-12,-1.0827345324918e-11,3.32310779815776e-10)
(-4.10327646623319e-12,-2.27583754098652e-11,3.29841818578921e-10)
(-5.28961703162523e-12,-3.89794921419324e-11,3.25565634696781e-10)
(-5.86147436105605e-12,-6.65228543626581e-11,3.18959051256983e-10)
(-4.76850468729005e-12,-1.19448378528902e-10,3.09209559602923e-10)
(6.20501622344777e-13,-2.2814914543629e-10,2.95517169259016e-10)
(1.36051636520145e-11,-4.51323342540961e-10,2.75816854264087e-10)
(2.36308710448227e-11,-8.05281758784343e-10,2.29310677987435e-10)
(3.09527401683133e-11,-1.41363551630431e-09,1.639367411105e-10)
(3.46906070791321e-11,-2.80813498246644e-09,8.59034242107233e-11)
(0,0,0)
(0,0,0)
(0,0,0)
(0,0,0)
(0,0,0)
(0,0,0)
(-1.63533904566942e-12,-8.11540024232853e-12,5.12327488913966e-10)
(-2.6545197988357e-12,-1.69637288182386e-11,5.11035352960029e-10)
(-2.81405720347732e-12,-2.87539651069169e-11,5.08971329005389e-10)
(-2.24168299023525e-12,-5.00133872751464e-11,5.05824364349502e-10)
(1.64421264612204e-12,-9.41611077143267e-11,5.00780372765047e-10)
(1.06099413089449e-11,-1.91701039620598e-10,4.89338124666292e-10)
(1.52991733558605e-11,-4.12896694622387e-10,4.52163358738285e-10)
(2.28562960340199e-11,-7.50978110738516e-10,3.95964992296053e-10)
(2.95187653195019e-11,-1.34328499383463e-09,2.91759712327286e-10)
(3.27027932087953e-11,-2.72761499821518e-09,1.5683272282764e-10)
(0,0,0)
(0,0,0)
(0,0,0)
(0,0,0)
(0,0,0)
(0,0,0)
(4.13937842848625e-13,-6.33503111205877e-12,8.24938255963178e-10)
(7.24842210480846e-13,-1.29385298100836e-11,8.2423189691311e-10)
(1.40026808501271e-12,-2.19045203390814e-11,8.23009804769948e-10)
(2.48871436836623e-12,-4.00745145633835e-11,8.21366231506451e-10)
(5.75621304518602e-12,-8.07167686809819e-11,8.16890392720943e-10)
(1.22636323602587e-11,-1.70904375060786e-10,8.03171985783277e-10)
(1.71078984483565e-11,-3.5826351138512e-10,7.62277313036111e-10)
(2.20832423918769e-11,-6.52145867138135e-10,6.69399199431035e-10)
(2.74280472299756e-11,-1.21318694091397e-09,5.14639740457092e-10)
(2.98509167095045e-11,-2.57439811422293e-09,2.92268754127859e-10)
(0,0,0)
(0,0,0)
(0,0,0)
(0,0,0)
(0,0,0)
(0,0,0)
(2.68075565340161e-12,-4.83882332564764e-12,1.43302677678758e-09)
(4.35347029757013e-12,-9.48552153365077e-12,1.4320698457193e-09)
(5.28039998365474e-12,-1.63129490562741e-11,1.43041836531467e-09)
(6.19613851444797e-12,-3.05840552271695e-11,1.4273120401403e-09)
(8.57815271897351e-12,-6.31200676586547e-11,1.41880631863682e-09)
(1.31056177445763e-11,-1.31879889081272e-10,1.39572483538734e-09)
(1.79593757538765e-11,-2.66574903408107e-10,1.33838707207928e-09)
(2.21410864224154e-11,-5.00388639517222e-10,1.2168476691336e-09)
(2.58048123567749e-11,-9.9392300224421e-10,9.99518779931162e-10)
(2.62541789040501e-11,-2.28468879188434e-09,6.24684417920072e-10)
(0,0,0)
(0,0,0)
(0,0,0)
(0,0,0)
(0,0,0)
(0,0,0)
(3.6627051699948e-12,-2.78604234610996e-12,2.83738110013977e-09)
(6.58022764437023e-12,-5.13500919449885e-12,2.83561252867406e-09)
(7.74145796876327e-12,-8.86911980471088e-12,2.8333061085867e-09)
(8.25019201671075e-12,-1.68792263043612e-11,2.82855337342793e-09)
(9.84959234772732e-12,-3.51894818903819e-11,2.81652020307106e-09)
(1.3671434486076e-11,-7.22105064941733e-11,2.78603404841573e-09)
(1.83679106169018e-11,-1.44753615237537e-10,2.71669687830557e-09)
(2.27197670318e-11,-2.84682502891776e-10,2.57278158678509e-09)
(2.56204055089165e-11,-6.21279160940891e-10,2.28705301025956e-09)
(2.4729767197333e-11,-1.6624908085916e-09,1.66434364173828e-09)
(0,0,0)
(0,0,0)
(0,0,0)
(0,0,0)
(0,0,0)
(0,0,0)
(0,0,0)
(0,0,0)
(0,0,0)
(0,0,0)
(0,0,0)
(0,0,0)
(0,0,0)
(0,0,0)
(0,0,0)
(0,0,0)
(0,0,0)
(0,0,0)
(0,0,0)
(0,0,0)
(0,0,0)
(0,0,0)
(0,0,0)
(0,0,0)
(0,0,0)
(0,0,0)
(0,0,0)
(0,0,0)
(0,0,0)
(0,0,0)
(0,0,0)
(0,0,0)
(0,0,0)
(0,0,0)
(0,0,0)
(0,0,0)
(0,0,0)
(0,0,0)
(0,0,0)
(0,0,0)
(0,0,0)
(0,0,0)
(0,0,0)
(0,0,0)
(0,0,0)
(0,0,0)
(0,0,0)
(0,0,0)
(0,0,0)
(0,0,0)
(0,0,0)
(0,0,0)
(0,0,0)
(0,0,0)
(0,0,0)
(0,0,0)
(0,0,0)
(0,0,0)
(0,0,0)
(0,0,0)
(0,0,0)
(0,0,0)
(0,0,0)
(0,0,0)
(0,0,0)
(0,0,0)
(0,0,0)
(0,0,0)
(0,0,0)
(0,0,0)
(0,0,0)
(0,0,0)
(0,0,0)
(0,0,0)
(0,0,0)
(0,0,0)
(0,0,0)
(0,0,0)
(0,0,0)
(0,0,0)
(0,0,0)
(0,0,0)
(0,0,0)
(0,0,0)
(0,0,0)
(0,0,0)
(0,0,0)
(0,0,0)
(0,0,0)
(0,0,0)
(0,0,0)
(0,0,0)
(0,0,0)
(0,0,0)
(0,0,0)
(0,0,0)
(0,0,0)
(0,0,0)
(0,0,0)
(0,0,0)
(0,0,0)
(0,0,0)
(-1.40561017247307e-12,-3.08888266207575e-11,3.48340234273918e-11)
(-2.8226352198365e-12,-6.56672515622283e-11,3.27594826722232e-11)
(-3.84508827052401e-12,-1.1070270583255e-10,2.85348295749249e-11)
(-3.73517316801452e-12,-1.73899575206913e-10,2.22353951294196e-11)
(-2.04054132610777e-12,-2.67099530286066e-10,1.46486064710292e-11)
(4.13755084021095e-15,-4.07538962839273e-10,5.56900448500423e-12)
(2.02786877117987e-12,-6.12191264019329e-10,-3.05174089601588e-12)
(4.81794709297606e-12,-9.05914207273619e-10,-6.02977925933594e-12)
(6.497338489273e-12,-1.32399894397081e-09,-5.223579385595e-12)
(6.72697316752827e-12,-1.83560578290519e-09,-2.64218501035734e-12)
(0,0,0)
(0,0,0)
(0,0,0)
(0,0,0)
(0,0,0)
(0,0,0)
(-2.867536623614e-12,-2.95458423537154e-11,7.53300044510229e-11)
(-4.88739867446298e-12,-6.2636085059402e-11,7.14964289814042e-11)
(-6.42295611933488e-12,-1.05882849342923e-10,6.40866650096275e-11)
(-6.50311353368762e-12,-1.67624784646511e-10,5.18360477365754e-11)
(-5.32893331245913e-12,-2.59266282520879e-10,3.48653141801637e-11)
(-2.57752530143765e-12,-4.00603676931203e-10,1.41526385409055e-11)
(1.68334904216298e-12,-6.11365416275013e-10,-6.03260224370317e-12)
(8.35449718958253e-12,-9.09732255964074e-10,-1.12390412119126e-11)
(1.19585581768016e-11,-1.32925380534323e-09,-8.17049636924673e-12)
(1.26814462441566e-11,-1.84041729483873e-09,-3.50031311284603e-12)
(0,0,0)
(0,0,0)
(0,0,0)
(0,0,0)
(0,0,0)
(0,0,0)
(-3.33841903650924e-12,-2.69622720184212e-11,1.26076873208687e-10)
(-6.019045961079e-12,-5.67586784263193e-11,1.21126413666632e-10)
(-8.44453563471279e-12,-9.54184231228612e-11,1.11289414711201e-10)
(-9.81255368505764e-12,-1.5245723314381e-10,9.43624802592305e-11)
(-1.05485211524302e-11,-2.4047689869324e-10,6.88746717450087e-11)
(-8.01861205588983e-12,-3.83066049352288e-10,3.35479941445886e-11)
(-2.70427376646686e-12,-6.09373994396594e-10,-6.11966654403064e-12)
(1.15891533528006e-11,-9.18618838844685e-10,-1.08795110950467e-11)
(1.91162952705108e-11,-1.33927647720573e-09,-4.05178930629012e-12)
(2.10803227642529e-11,-1.8485459236645e-09,2.67633845935941e-13)
(0,0,0)
(0,0,0)
(0,0,0)
(0,0,0)
(0,0,0)
(0,0,0)
(-2.89890814355557e-12,-2.30886179203243e-11,1.93278526145659e-10)
(-5.72471860950536e-12,-4.81412138966597e-11,1.88249626826546e-10)
(-9.32655197156683e-12,-8.01878452832038e-11,1.77918706494515e-10)
(-1.27698528917612e-11,-1.28333554015054e-10,1.59074872815431e-10)
(-1.61530383527969e-11,-2.06165668122434e-10,1.28867088492599e-10)
(-1.62262661393707e-11,-3.43978713991921e-10,8.30032216528725e-11)
(-1.05191958269971e-11,-6.00880077831309e-10,2.09950227183979e-11)
(1.74648056474647e-11,-9.34768671077787e-10,1.94499023531954e-11)
(2.77793028844151e-11,-1.35194079896515e-09,2.26205068074405e-11)
(3.00644913167867e-11,-1.85462084670099e-09,1.52786119996241e-11)
(0,0,0)
(0,0,0)
(0,0,0)
(0,0,0)
(0,0,0)
(0,0,0)
(-2.5924818897907e-12,-1.85064551555957e-11,2.8529209961005e-10)
(-5.38350915571258e-12,-3.78272001531904e-11,2.80656917258304e-10)
(-9.45964116676479e-12,-6.15068341027044e-11,2.71467781515146e-10)
(-1.42959411112914e-11,-9.69218114121555e-11,2.55708463064304e-10)
(-1.98545926935626e-11,-1.55544590366027e-10,2.31621190429795e-10)
(-2.19359543738592e-11,-2.6631972945709e-10,2.04018502948655e-10)
(2.15607862751877e-11,-5.28452834336972e-10,2.18847236315951e-10)
(3.25489863710756e-11,-9.50739966550606e-10,1.42936676448932e-10)
(3.63215228179535e-11,-1.35689556555607e-09,9.61804924537028e-11)
(3.73622057015579e-11,-1.84760711263939e-09,5.01177730263507e-11)
(0,0,0)
(0,0,0)
(0,0,0)
(0,0,0)
(0,0,0)
(0,0,0)
(-2.45127777011061e-12,-1.36670650470076e-11,4.14759263802867e-10)
(-5.62173917607887e-12,-2.73205493469511e-11,4.11445514632898e-10)
(-8.90856062712017e-12,-4.31951395997571e-11,4.05225388173697e-10)
(-1.2621449793297e-11,-6.60778278978801e-11,3.95255926999767e-10)
(-1.63633851588027e-11,-1.07439396171505e-10,3.80906285724476e-10)
(-1.61272891984552e-11,-2.07100530841177e-10,3.64135630202542e-10)
(2.16846920106797e-11,-5.31049154383393e-10,3.72150497597336e-10)
(3.47011598751344e-11,-9.37729923689716e-10,2.94236722602425e-10)
(3.86355345990632e-11,-1.32666452935091e-09,2.03208478873543e-10)
(4.00740470376506e-11,-1.80642994979125e-09,1.04240038216187e-10)
(0,0,0)
(0,0,0)
(0,0,0)
(0,0,0)
(0,0,0)
(0,0,0)
(-2.12357222150404e-12,-9.58079819240969e-12,6.03316900780925e-10)
(-4.61569485305689e-12,-1.88071966515388e-11,6.0197178095051e-10)
(-6.51653731514255e-12,-2.84181865547901e-11,5.99718155036939e-10)
(-7.13656411751582e-12,-4.0829912051188e-11,5.97736309075526e-10)
(-3.57878288138985e-13,-6.25205589035699e-11,6.00707443549164e-10)
(2.69880426768474e-11,-1.23479370936871e-10,6.11410329592962e-10)
(1.68643565609077e-11,-4.91316296114417e-10,5.37506769126669e-10)
(2.82293324020066e-11,-8.76385774817284e-10,5.16168795316951e-10)
(3.43477018989083e-11,-1.24165066319048e-09,3.57384320959694e-10)
(3.63186320446512e-11,-1.70978159261172e-09,1.83516506820573e-10)
(0,0,0)
(0,0,0)
(0,0,0)
(0,0,0)
(0,0,0)
(0,0,0)
(-3.7591089308396e-13,-7.23197644016506e-12,8.8514045609429e-10)
(-1.50607392263751e-12,-1.3798188852664e-11,8.84550787531827e-10)
(-2.54772993512325e-12,-2.08887264414364e-11,8.84113152073906e-10)
(-2.52590618097707e-12,-3.36979275995171e-11,8.85280273795361e-10)
(1.87791895969783e-12,-6.56547183913159e-11,8.9053717444691e-10)
(1.41338191282241e-11,-1.60516301696538e-10,8.99250463655204e-10)
(1.82974040762513e-11,-4.4539590820987e-10,8.81416872656301e-10)
(2.50854737438237e-11,-7.25177648986145e-10,7.5048773650849e-10)
(3.05350948898877e-11,-1.0746697689762e-09,5.46246375056048e-10)
(3.24103484993923e-11,-1.53132429798349e-09,2.94575151701509e-10)
(0,0,0)
(0,0,0)
(0,0,0)
(0,0,0)
(0,0,0)
(0,0,0)
(1.58490574215488e-12,-5.29840060582544e-12,1.29651398672843e-09)
(1.65443836289254e-12,-1.00426883028987e-11,1.29578654244788e-09)
(9.42895907127967e-13,-1.58608657479938e-11,1.29493800710963e-09)
(9.97031095154723e-13,-2.87293369422061e-11,1.29430042596223e-09)
(3.72905020059877e-12,-6.11881975875776e-11,1.29136171976181e-09)
(1.0773998465153e-11,-1.41132210665456e-10,1.27712516008472e-09)
(1.76774905288957e-11,-3.13400153880586e-10,1.22378782784067e-09)
(2.37638389983409e-11,-5.24505478324487e-10,1.07571512472842e-09)
(2.7995333065223e-11,-8.26285833868954e-10,8.32982238291312e-10)
(2.87406135313001e-11,-1.2397709617548e-09,4.78687854298398e-10)
(0,0,0)
(0,0,0)
(0,0,0)
(0,0,0)
(0,0,0)
(0,0,0)
(2.64523428897e-12,-2.98279560918969e-12,1.80540499206862e-09)
(3.75163853699971e-12,-5.65426003642954e-12,1.80399005105052e-09)
(3.6250733232711e-12,-9.13675517044793e-12,1.80202870506232e-09)
(3.40413606881136e-12,-1.72692272832616e-11,1.79897889724168e-09)
(5.14626511303222e-12,-3.68334564854822e-11,1.78906233951496e-09)
(1.07980981016537e-11,-8.01077755071116e-11,1.75973427101869e-09)
(1.75295869001244e-11,-1.63756673682349e-10,1.6853808805802e-09)