/*--------------------------------*- C++ -*----------------------------------*\
| =========                 |                                                 |
| \\      /  F ield         | foam-extend: Open Source CFD                    |
|  \\    /   O peration     | Version:     4.0                                |
|   \\  /    A nd           | Web:         http://www.foam-extend.org         |
|    \\/     M anipulation  |                                                 |
\*---------------------------------------------------------------------------*/
FoamFile
{
    version 2.0;
    format ascii;
    class volVectorField;
    location "Data/2995";
    object      E;
}
// * * * * * * * * * * * * * * * * * * * * * * * * * * * * * * * * * * * * * //

dimensions      [0 1 -1 0 0 0 0];

internalField   nonuniform List<vector>
4096
(
(0,0,0)
(0,0,0)
(0,0,0)
(0,0,0)
(0,0,0)
(0,0,0)
(0,0,0)
(0,0,0)
(0,0,0)
(0,0,0)
(0,0,0)
(0,0,0)
(0,0,0)
(0,0,0)
(0,0,0)
(0,0,0)
(0,0,0)
(0,0,0)
(0,0,0)
(0,0,0)
(0,0,0)
(0,0,0)
(0,0,0)
(0,0,0)
(0,0,0)
(0,0,0)
(0,0,0)
(0,0,0)
(0,0,0)
(0,0,0)
(0,0,0)
(0,0,0)
(0,0,0)
(0,0,0)
(0,0,0)
(0,0,0)
(0,0,0)
(0,0,0)
(0,0,0)
(0,0,0)
(0,0,0)
(0,0,0)
(0,0,0)
(0,0,0)
(0,0,0)
(0,0,0)
(0,0,0)
(0,0,0)
(0,0,0)
(0,0,0)
(0,0,0)
(0,0,0)
(0,0,0)
(0,0,0)
(0,0,0)
(0,0,0)
(0,0,0)
(0,0,0)
(0,0,0)
(0,0,0)
(0,0,0)
(0,0,0)
(0,0,0)
(0,0,0)
(0,0,0)
(0,0,0)
(0,0,0)
(0,0,0)
(0,0,0)
(0,0,0)
(0,0,0)
(0,0,0)
(0,0,0)
(0,0,0)
(0,0,0)
(0,0,0)
(0,0,0)
(0,0,0)
(0,0,0)
(0,0,0)
(0,0,0)
(0,0,0)
(0,0,0)
(0,0,0)
(0,0,0)
(0,0,0)
(0,0,0)
(0,0,0)
(0,0,0)
(0,0,0)
(0,0,0)
(0,0,0)
(0,0,0)
(0,0,0)
(0,0,0)
(0,0,0)
(0,0,0)
(0,0,0)
(0,0,0)
(0,0,0)
(0,0,0)
(0,0,0)
(0,0,0)
(0,0,0)
(0,0,0)
(0,0,0)
(0,0,0)
(0,0,0)
(0,0,0)
(0,0,0)
(0,0,0)
(0,0,0)
(0,0,0)
(0,0,0)
(0,0,0)
(0,0,0)
(0,0,0)
(0,0,0)
(0,0,0)
(0,0,0)
(0,0,0)
(0,0,0)
(0,0,0)
(0,0,0)
(0,0,0)
(0,0,0)
(0,0,0)
(0,0,0)
(0,0,0)
(0,0,0)
(0,0,0)
(0,0,0)
(0,0,0)
(0,0,0)
(0,0,0)
(0,0,0)
(0,0,0)
(0,0,0)
(0,0,0)
(0,0,0)
(0,0,0)
(0,0,0)
(0,0,0)
(0,0,0)
(0,0,0)
(0,0,0)
(0,0,0)
(0,0,0)
(0,0,0)
(0,0,0)
(0,0,0)
(0,0,0)
(0,0,0)
(0,0,0)
(0,0,0)
(0,0,0)
(0,0,0)
(0,0,0)
(0,0,0)
(0,0,0)
(0,0,0)
(0,0,0)
(0,0,0)
(0,0,0)
(0,0,0)
(0,0,0)
(0,0,0)
(0,0,0)
(0,0,0)
(0,0,0)
(0,0,0)
(0,0,0)
(0,0,0)
(0,0,0)
(0,0,0)
(0,0,0)
(0,0,0)
(0,0,0)
(0,0,0)
(0,0,0)
(0,0,0)
(0,0,0)
(0,0,0)
(0,0,0)
(0,0,0)
(0,0,0)
(0,0,0)
(0,0,0)
(0,0,0)
(0,0,0)
(0,0,0)
(0,0,0)
(0,0,0)
(0,0,0)
(0,0,0)
(0,0,0)
(0,0,0)
(0,0,0)
(0,0,0)
(0,0,0)
(0,0,0)
(0,0,0)
(0,0,0)
(0,0,0)
(0,0,0)
(0,0,0)
(0,0,0)
(0,0,0)
(0,0,0)
(0,0,0)
(0,0,0)
(0,0,0)
(0,0,0)
(0,0,0)
(0,0,0)
(0,0,0)
(0,0,0)
(0,0,0)
(0,0,0)
(0,0,0)
(0,0,0)
(0,0,0)
(0,0,0)
(0,0,0)
(0,0,0)
(0,0,0)
(0,0,0)
(0,0,0)
(0,0,0)
(0,0,0)
(0,0,0)
(0,0,0)
(0,0,0)
(0,0,0)
(0,0,0)
(0,0,0)
(0,0,0)
(0,0,0)
(0,0,0)
(0,0,0)
(0,0,0)
(0,0,0)
(0,0,0)
(0,0,0)
(0,0,0)
(0,0,0)
(0,0,0)
(0,0,0)
(0,0,0)
(0,0,0)
(0,0,0)
(0,0,0)
(0,0,0)
(0,0,0)
(0,0,0)
(0,0,0)
(0,0,0)
(0,0,0)
(0,0,0)
(0,0,0)
(0,0,0)
(0,0,0)
(0,0,0)
(0,0,0)
(0,0,0)
(0,0,0)
(0,0,0)
(0,0,0)
(0,0,0)
(0,0,0)
(0,0,0)
(0,0,0)
(0,0,0)
(0,0,0)
(0,0,0)
(0,0,0)
(0,0,0)
(0,0,0)
(0,0,0)
(0,0,0)
(0,0,0)
(0,0,0)
(0,0,0)
(0,0,0)
(0,0,0)
(0,0,0)
(0,0,0)
(0,0,0)
(0,0,0)
(0,0,0)
(0,0,0)
(0,0,0)
(0,0,0)
(0,0,0)
(0,0,0)
(0,0,0)
(0,0,0)
(0,0,0)
(0,0,0)
(0,0,0)
(0,0,0)
(0,0,0)
(0,0,0)
(0,0,0)
(0,0,0)
(0,0,0)
(0,0,0)
(0,0,0)
(0,0,0)
(0,0,0)
(0,0,0)
(0,0,0)
(0,0,0)
(0,0,0)
(0,0,0)
(0,0,0)
(0,0,0)
(0,0,0)
(0,0,0)
(0,0,0)
(0,0,0)
(0,0,0)
(0,0,0)
(0,0,0)
(0,0,0)
(0,0,0)
(0,0,0)
(0,0,0)
(0,0,0)
(0,0,0)
(0,0,0)
(0,0,0)
(0,0,0)
(0,0,0)
(0,0,0)
(0,0,0)
(0,0,0)
(0,0,0)
(0,0,0)
(0,0,0)
(0,0,0)
(0,0,0)
(0,0,0)
(0,0,0)
(0,0,0)
(0,0,0)
(0,0,0)
(0,0,0)
(0,0,0)
(0,0,0)
(0,0,0)
(0,0,0)
(0,0,0)
(0,0,0)
(0,0,0)
(0,0,0)
(0,0,0)
(0,0,0)
(0,0,0)
(0,0,0)
(0,0,0)
(0,0,0)
(0,0,0)
(0,0,0)
(0,0,0)
(0,0,0)
(0,0,0)
(0,0,0)
(0,0,0)
(0,0,0)
(0,0,0)
(0,0,0)
(0,0,0)
(0,0,0)
(0,0,0)
(0,0,0)
(0,0,0)
(0,0,0)
(0,0,0)
(0,0,0)
(0,0,0)
(0,0,0)
(0,0,0)
(0,0,0)
(0,0,0)
(0,0,0)
(0,0,0)
(0,0,0)
(0,0,0)
(0,0,0)
(0,0,0)
(0,0,0)
(0,0,0)
(0,0,0)
(0,0,0)
(0,0,0)
(0,0,0)
(0,0,0)
(0,0,0)
(0,0,0)
(0,0,0)
(0,0,0)
(0,0,0)
(0,0,0)
(0,0,0)
(0,0,0)
(0,0,0)
(0,0,0)
(0,0,0)
(0,0,0)
(0,0,0)
(0,0,0)
(0,0,0)
(0,0,0)
(0,0,0)
(0,0,0)
(0,0,0)
(0,0,0)
(0,0,0)
(0,0,0)
(0,0,0)
(0,0,0)
(0,0,0)
(0,0,0)
(0,0,0)
(0,0,0)
(0,0,0)
(0,0,0)
(0,0,0)
(0,0,0)
(0,0,0)
(0,0,0)
(0,0,0)
(0,0,0)
(0,0,0)
(0,0,0)
(0,0,0)
(0,0,0)
(0,0,0)
(0,0,0)
(0,0,0)
(0,0,0)
(0,0,0)
(0,0,0)
(0,0,0)
(0,0,0)
(0,0,0)
(0,0,0)
(0,0,0)
(0,0,0)
(0,0,0)
(0,0,0)
(0,0,0)
(0,0,0)
(0,0,0)
(0,0,0)
(0,0,0)
(0,0,0)
(0,0,0)
(0,0,0)
(0,0,0)
(0,0,0)
(0,0,0)
(0,0,0)
(0,0,0)
(0,0,0)
(0,0,0)
(0,0,0)
(0,0,0)
(0,0,0)
(0,0,0)
(0,0,0)
(0,0,0)
(0,0,0)
(0,0,0)
(0,0,0)
(0,0,0)
(0,0,0)
(0,0,0)
(0,0,0)
(0,0,0)
(0,0,0)
(0,0,0)
(0,0,0)
(0,0,0)
(0,0,0)
(0,0,0)
(0,0,0)
(0,0,0)
(0,0,0)
(0,0,0)
(0,0,0)
(0,0,0)
(0,0,0)
(0,0,0)
(0,0,0)
(0,0,0)
(0,0,0)
(0,0,0)
(0,0,0)
(0,0,0)
(0,0,0)
(0,0,0)
(0,0,0)
(0,0,0)
(0,0,0)
(0,0,0)
(0,0,0)
(0,0,0)
(0,0,0)
(0,0,0)
(0,0,0)
(0,0,0)
(0,0,0)
(0,0,0)
(0,0,0)
(0,0,0)
(0,0,0)
(0,0,0)
(0,0,0)
(0,0,0)
(0,0,0)
(0,0,0)
(0,0,0)
(0,0,0)
(0,0,0)
(0,0,0)
(0,0,0)
(0,0,0)
(0,0,0)
(0,0,0)
(0,0,0)
(0,0,0)
(0,0,0)
(0,0,0)
(0,0,0)
(0,0,0)
(0,0,0)
(0,0,0)
(0,0,0)
(0,0,0)
(0,0,0)
(0,0,0)
(0,0,0)
(0,0,0)
(0,0,0)
(0,0,0)
(0,0,0)
(0,0,0)
(0,0,0)
(0,0,0)
(0,0,0)
(0,0,0)
(0,0,0)
(0,0,0)
(0,0,0)
(0,0,0)
(0,0,0)
(0,0,0)
(0,0,0)
(0,0,0)
(0,0,0)
(0,0,0)
(0,0,0)
(0,0,0)
(0,0,0)
(0,0,0)
(0,0,0)
(0,0,0)
(0,0,0)
(0,0,0)
(0,0,0)
(0,0,0)
(0,0,0)
(0,0,0)
(0,0,0)
(0,0,0)
(0,0,0)
(0,0,0)
(0,0,0)
(0,0,0)
(0,0,0)
(0,0,0)
(0,0,0)
(0,0,0)
(0,0,0)
(0,0,0)
(0,0,0)
(0,0,0)
(0,0,0)
(0,0,0)
(0,0,0)
(0,0,0)
(0,0,0)
(0,0,0)
(0,0,0)
(0,0,0)
(0,0,0)
(0,0,0)
(0,0,0)
(0,0,0)
(0,0,0)
(0,0,0)
(0,0,0)
(0,0,0)
(0,0,0)
(0,0,0)
(0,0,0)
(0,0,0)
(0,0,0)
(0,0,0)
(0,0,0)
(0,0,0)
(0,0,0)
(0,0,0)
(0,0,0)
(0,0,0)
(0,0,0)
(0,0,0)
(0,0,0)
(0,0,0)
(0,0,0)
(0,0,0)
(0,0,0)
(0,0,0)
(0,0,0)
(0,0,0)
(0,0,0)
(0,0,0)
(0,0,0)
(0,0,0)
(0,0,0)
(0,0,0)
(0,0,0)
(0,0,0)
(0,0,0)
(0,0,0)
(0,0,0)
(0,0,0)
(0,0,0)
(0,0,0)
(0,0,0)
(0,0,0)
(0,0,0)
(0,0,0)
(0,0,0)
(0,0,0)
(0,0,0)
(0,0,0)
(0,0,0)
(0,0,0)
(0,0,0)
(0,0,0)
(0,0,0)
(0,0,0)
(0,0,0)
(0,0,0)
(0,0,0)
(0,0,0)
(0,0,0)
(0,0,0)
(0,0,0)
(0,0,0)
(0,0,0)
(0,0,0)
(0,0,0)
(0,0,0)
(0,0,0)
(0,0,0)
(0,0,0)
(0,0,0)
(0,0,0)
(0,0,0)
(0,0,0)
(0,0,0)
(0,0,0)
(0,0,0)
(0,0,0)
(0,0,0)
(0,0,0)
(0,0,0)
(0,0,0)
(0,0,0)
(0,0,0)
(0,0,0)
(0,0,0)
(0,0,0)
(0,0,0)
(0,0,0)
(0,0,0)
(0,0,0)
(0,0,0)
(0,0,0)
(0,0,0)
(0,0,0)
(0,0,0)
(0,0,0)
(0,0,0)
(0,0,0)
(0,0,0)
(0,0,0)
(0,0,0)
(0,0,0)
(0,0,0)
(0,0,0)
(0,0,0)
(0,0,0)
(0,0,0)
(0,0,0)
(0,0,0)
(0,0,0)
(0,0,0)
(0,0,0)
(0,0,0)
(0,0,0)
(0,0,0)
(0,0,0)
(0,0,0)
(0,0,0)
(0,0,0)
(0,0,0)
(0,0,0)
(0,0,0)
(0,0,0)
(0,0,0)
(0,0,0)
(0,0,0)
(0,0,0)
(0,0,0)
(0,0,0)
(0,0,0)
(0,0,0)
(0,0,0)
(0,0,0)
(0,0,0)
(0,0,0)
(0,0,0)
(0,0,0)
(0,0,0)
(0,0,0)
(0,0,0)
(0,0,0)
(0,0,0)
(0,0,0)
(0,0,0)
(0,0,0)
(0,0,0)
(0,0,0)
(0,0,0)
(0,0,0)
(0,0,0)
(0,0,0)
(0,0,0)
(0,0,0)
(0,0,0)
(0,0,0)
(0,0,0)
(0,0,0)
(0,0,0)
(0,0,0)
(0,0,0)
(0,0,0)
(0,0,0)
(0,0,0)
(0,0,0)
(0,0,0)
(0,0,0)
(0,0,0)
(0,0,0)
(0,0,0)
(0,0,0)
(0,0,0)
(0,0,0)
(0,0,0)
(0,0,0)
(0,0,0)
(0,0,0)
(0,0,0)
(0,0,0)
(0,0,0)
(0,0,0)
(0,0,0)
(0,0,0)
(0,0,0)
(0,0,0)
(0,0,0)
(0,0,0)
(0,0,0)
(0,0,0)
(0,0,0)
(0,0,0)
(0,0,0)
(0,0,0)
(0,0,0)
(0,0,0)
(0,0,0)
(0,0,0)
(0,0,0)
(0,0,0)
(0,0,0)
(0,0,0)
(0,0,0)
(0,0,0)
(0,0,0)
(0,0,0)
(0,0,0)
(0,0,0)
(0,0,0)
(0,0,0)
(0,0,0)
(0,0,0)
(0,0,0)
(0,0,0)
(0,0,0)
(0,0,0)
(0,0,0)
(0,0,0)
(0,0,0)
(0,0,0)
(-27759.1543096288,14801.0103009289,12958.1440086989)
(-29357.4644316925,14222.6808770009,28092.9275633898)
(-33088.06971506,13019.9967689512,48161.0005094951)
(-40086.4847244565,11093.8959958777,77153.5892380845)
(-52745.0325693422,8444.08049445219,121454.541312974)
(-75420.9970818154,5315.50800033575,191560.030394458)
(-116555.275127546,2464.31160062688,305650.9939214)
(-190884.473590005,728.728758815112,495806.738752601)
(-314971.364792619,123.0635730201,810655.039972165)
(-438965.775790907,33.9200618975172,1249586.89570125)
(0,0,0)
(0,0,0)
(0,0,0)
(0,0,0)
(0,0,0)
(0,0,0)
(-29404.4386282023,31846.5757109051,12358.8732182244)
(-31017.4585120026,30761.0557064153,26837.956900815)
(-34776.0854946841,28453.7710734552,46180.2680909921)
(-41907.7945810763,24674.2702308855,74507.6884370611)
(-54881.2342780004,19401.6906792413,118431.312530269)
(-78108.8402786981,13046.1638025311,188809.497006761)
(-119710.189186403,7016.1734253391,303967.824368443)
(-193754.634248972,3215.10882725413,495236.078548935)
(-316882.296598356,1656.38400197971,810585.054718379)
(-439848.209940884,845.792454924478,1249621.39226614)
(0,0,0)
(0,0,0)
(0,0,0)
(0,0,0)
(0,0,0)
(0,0,0)
(-33080.1413689019,53756.5763362616,11170.1407435455)
(-34728.3437950003,52288.8362115823,24370.7040333826)
(-38584.8504392693,49130.0167426344,42279.3088034779)
(-46056.4612206307,43836.8002773173,69173.2399776777)
(-59832.4383251629,36258.0295966108,112149.339385458)
(-84489.9809614929,26785.1030613807,182900.381088104)
(-127501.036901843,17186.7581337973,300230.833281502)
(-200951.965422514,10580.7641268532,493817.143404356)
(-321528.196485728,7005.48111815911,809996.242773979)
(-441944.77667572,3770.77855411104,1249016.03335051)
(0,0,0)
(0,0,0)
(0,0,0)
(0,0,0)
(0,0,0)
(0,0,0)
(-39914.6876740436,83997.6802679862,9673.5837423202)
(-41559.1245030383,82346.6538620441,21174.8905948987)
(-45557.6519594914,78792.419558494,37070.1397385226)
(-53582.7143238894,72754.7274953942,61734.9268443271)
(-68746.8547739369,63898.8164426512,102840.994772235)
(-96147.7733512281,52288.4035513574,173485.467633478)
(-142517.053655932,39365.9007182858,293823.378704917)
(-214921.093440728,28795.9809425095,490529.255329965)
(-330049.682196816,20476.165953505,807108.25269137)
(-445665.285510144,10994.6100885786,1245549.70666722)
(0,0,0)
(0,0,0)
(0,0,0)
(0,0,0)
(0,0,0)
(0,0,0)
(-52189.3253525105,128210.15546013,7976.85016035992)
(-53824.4523522952,126588.599340079,17559.3570346192)
(-57895.2096852776,123118.535021268,31128.4512571207)
(-66371.9814265806,117216.693640335,53038.4665387621)
(-82958.0124342919,108487.995119813,91407.3002958919)
(-113758.772001258,96643.5277720805,160810.948076407)
(-165463.035393253,82087.2982632442,283552.585924699)
(-236263.75904786,66004.3283246609,482607.997590449)
(-342479.521578363,47469.1849905648,798094.500131862)
(-451062.146954394,25154.9457284424,1234996.31144638)
(0,0,0)
(0,0,0)
(0,0,0)
(0,0,0)
(0,0,0)
(0,0,0)
(-74325.0133483467,196264.701687773,6270.46712071034)
(-75878.288653633,194769.131939443,13968.2231749715)
(-79818.8203425339,191621.945817997,25283.6327207803)
(-88229.4671513548,186318.224686279,44411.5688261815)
(-104996.553875085,178199.996294261,79696.1215268268)
(-136374.211344962,166237.439617143,146476.421026736)
(-188257.723665433,149100.654786863,267720.788168546)
(-255867.728429896,125150.788764891,464442.056158223)
(-355972.73111324,91656.0946444895,776227.877617594)
(-457856.479022346,48924.5013147482,1210314.80105357)
(0,0,0)
(0,0,0)
(0,0,0)
(0,0,0)
(0,0,0)
(0,0,0)
(-115003.617229725,306453.037489495,4815.28142799456)
(-116373.764838439,305098.500864315,10859.6773415679)
(-119903.596910214,302298.469162102,20086.7509076778)
(-127573.140460522,297563.657629185,36414.4584252927)
(-143150.427699483,289896.335223098,67868.5471959386)
(-172654.863804884,277275.768865971,129485.081752005)
(-221371.150892393,256019.866320792,243937.021110483)
(-282844.965141156,220669.294273513,431263.480743014)
(-376094.094665229,165115.619231301,733898.050821372)
(-468941.395423713,89960.0316509255,1161803.91590901)
(0,0,0)
(0,0,0)
(0,0,0)
(0,0,0)
(0,0,0)
(0,0,0)
(-189337.949913816,492220.914649025,3570.07275428388)
(-190433.630323433,490975.383313967,8126.82062807727)
(-193298.237493487,488363.887634031,15359.6396496583)
(-199527.272881126,483731.166293916,28719.4038660367)
(-212312.726816695,475715.696678395,55212.7692274345)
(-236858.881711875,461112.225853758,108235.193951509)
(-277685.838120932,433294.695801886,208646.202591304)
(-327447.589990059,380786.911938219,375976.174916679)
(-412590.124876689,294604.096596958,659077.822427705)
(-490137.020475168,167000.3222868,1072174.55226696)
(0,0,0)
(0,0,0)
(0,0,0)
(0,0,0)
(0,0,0)
(0,0,0)
(-313837.057288124,803668.159769327,2389.81216781766)
(-314586.604682991,802434.958357191,5516.8418075788)
(-316540.645470902,799724.656426726,10696.7184857267)
(-320740.260141836,794552.201313768,20615.9436076947)
(-329183.817481322,784966.169757689,40549.2880097278)
(-345073.417918525,766313.487011285,80421.444770735)
(-371826.842813777,729407.472908132,156135.510478273)
(-411556.217146989,658547.785924791,289930.853638721)
(-479910.088252442,532799.094946943,531645.943541065)
(-527128.957581369,320377.54974943,905397.673659817)
(0,0,0)
(0,0,0)
(0,0,0)
(0,0,0)
(0,0,0)
(0,0,0)
(-438369.372138795,1240825.89749284,1211.63441527507)
(-438759.433061052,1239584.81415338,2821.21168013743)
(-439736.522015573,1236701.23563307,5581.1544893919)
(-441818.000623,1230987.51135472,10963.8450714823)
(-445915.309768563,1220007.77543617,21837.5491615724)
(-453565.599186986,1198185.90813332,43530.7272264866)
(-466952.579310147,1154592.56743793,85298.2120068135)
(-489497.9455189,1069106.67225583,164237.271194653)
(-527023.770839084,904724.011986166,319336.124994451)
(-530823.677830366,585318.023374152,585219.329200149)
(0,0,0)
(0,0,0)
(0,0,0)
(0,0,0)
(0,0,0)
(0,0,0)
(0,0,0)
(0,0,0)
(0,0,0)
(0,0,0)
(0,0,0)
(0,0,0)
(0,0,0)
(0,0,0)
(0,0,0)
(0,0,0)
(0,0,0)
(0,0,0)
(0,0,0)
(0,0,0)
(0,0,0)
(0,0,0)
(0,0,0)
(0,0,0)
(0,0,0)
(0,0,0)
(0,0,0)
(0,0,0)
(0,0,0)
(0,0,0)
(0,0,0)
(0,0,0)
(0,0,0)
(0,0,0)
(0,0,0)
(0,0,0)
(0,0,0)
(0,0,0)
(0,0,0)
(0,0,0)
(0,0,0)
(0,0,0)
(0,0,0)
(0,0,0)
(0,0,0)
(0,0,0)
(0,0,0)
(0,0,0)
(0,0,0)
(0,0,0)
(0,0,0)
(0,0,0)
(0,0,0)
(0,0,0)
(0,0,0)
(0,0,0)
(0,0,0)
(0,0,0)
(0,0,0)
(0,0,0)
(0,0,0)
(0,0,0)
(0,0,0)
(0,0,0)
(0,0,0)
(0,0,0)
(0,0,0)
(0,0,0)
(0,0,0)
(0,0,0)
(0,0,0)
(0,0,0)
(0,0,0)
(0,0,0)
(0,0,0)
(0,0,0)
(0,0,0)
(0,0,0)
(0,0,0)
(0,0,0)
(0,0,0)
(0,0,0)
(0,0,0)
(0,0,0)
(0,0,0)
(0,0,0)
(0,0,0)
(0,0,0)
(0,0,0)
(0,0,0)
(0,0,0)
(0,0,0)
(0,0,0)
(0,0,0)
(0,0,0)
(0,0,0)
(0,0,0)
(0,0,0)
(0,0,0)
(0,0,0)
(0,0,0)
(0,0,0)
(4117977.89034074,13268.1953335467,11340.4034764444)
(4115308.37774091,12665.2505219286,24354.9542424126)
(4109098.59036936,11389.6837244739,41124.2538938076)
(4097591.24202669,9274.3108170249,64517.8597859779)
(4077076.5804574,6238.99075626864,98802.8994632807)
(4040617.90896012,2591.2002428463,150518.436638813)
(3973601.14544281,-694.121091221398,231401.780619909)
(3841128.24088173,-2170.02424945978,371904.733858009)
(3542173.09705382,-1809.00743106905,686914.922903045)
(2730313.87101529,-879.231076095755,1688860.15063337)
(0,0,0)
(0,0,0)
(0,0,0)
(0,0,0)
(0,0,0)
(0,0,0)
(4115199.89323382,28266.1776379583,10743.3292939756)
(4112525.84137486,27146.7261733553,23064.1972161194)
(4106308.8986094,24700.8160626497,39013.7242342611)
(4094624.03848173,20536.4434503673,61565.4019985328)
(4073590.82028036,14399.7265207956,95278.2551360732)
(4036106.64822082,6634.73683627681,147364.873503527)
(3968059.28349542,-795.043944235876,230041.9671352)
(3836138.72704288,-4000.94033258684,372325.165386808)
(3539086.91221997,-2991.68641794066,687884.27901566)
(2728981.58881366,-1262.11403345897,1689783.00667871)
(0,0,0)
(0,0,0)
(0,0,0)
(0,0,0)
(0,0,0)
(0,0,0)
(4109001.38981099,46982.9944787303,9547.29543958624)
(4106319.12627949,45475.3197242622,20516.8752745305)
(4100011.14219936,42154.0192756968,34813.3228832763)
(4087835.593872,36345.1560088192,55458.1986927069)
(4065377.49043389,27394.6400683869,87598.9998464711)
(4024849.42746614,15159.9964646071,140079.975250961)
(3952963.333259,2179.55397238987,226986.65063391)
(3822265.39323379,-3385.72010934916,373499.715214852)
(3531008.33174449,-1510.42298326509,689827.567010166)
(2725640.22184676,63.6019205598738,1691262.49599415)
(0,0,0)
(0,0,0)
(0,0,0)
(0,0,0)
(0,0,0)
(0,0,0)
(4097604.04450127,71802.7665194847,8007.13924426702)
(4094962.52398906,70145.1705083012,17161.2834285314)
(4088513.90186806,66498.0372546935,29091.3550823712)
(4075501.6469008,60036.0529087361,46661.7404182032)
(4050343.2235662,49765.7151552489,75546.2304516518)
(4002915.93792841,34702.9295101497,127285.229586842)
(3919198.78190016,16442.1449047915,221652.446558801)
(3790558.20649168,7483.32455351409,375649.745424014)
(3514638.45432393,8075.61482654248,691721.214553711)
(2719343.637908,5619.0034264441,1691502.53309027)
(0,0,0)
(0,0,0)
(0,0,0)
(0,0,0)
(0,0,0)
(0,0,0)
(4077503.55575111,106136.831739951,6318.69713629387)
(4074927.04079373,104592.689383117,13465.3285758075)
(4068464.86730065,101240.610739702,22708.3215653859)
(4054761.74339055,95423.2150859217,36533.0780313861)
(4026515.401355,86507.7355608484,60663.2872970129)
(3968695.12107868,74037.6154085044,109220.351779227)
(3858271.82715961,59310.7541254017,212962.523466184)
(3731528.16553314,46401.9079344292,376597.658964713)
(3488863.85210353,33975.0820263662,689700.461543258)
(2709946.2083639,18361.8466739166,1686294.90643776)
(0,0,0)
(0,0,0)
(0,0,0)
(0,0,0)
(0,0,0)
(0,0,0)
(4041753.81273097,155700.567317567,4703.08180335423)
(4039353.48751972,154391.162172877,10018.4763006016)
(4033216.32543388,151636.456100789,16933.1286235163)
(4019758.48952092,147031.738610151,27682.2918875586)
(3991159.92844231,140072.997073626,48306.1915177695)
(3931653.05488743,129984.97611476,94677.2080394487)
(3819744.2856922,116017.93962384,200313.656643842)
(3698501.93908168,98169.4707778517,364522.069749218)
(3466784.8184016,71540.5456665448,674544.700054621)
(2699140.1648011,37835.0112356521,1668420.53512971)
(0,0,0)
(0,0,0)
(0,0,0)
(0,0,0)
(0,0,0)
(0,0,0)
(3975420.06071163,232200.767245959,3421.76559064249)
(3973342.01986926,231139.970260676,7302.81625551732)
(3967922.26309251,229027.528647495,12431.527166552)
(3955708.19391231,225694.684585823,20832.8902783873)
(3929017.488914,220756.255724859,38327.3584740719)
(3872083.49076494,213092.54155113,80827.0819281631)
(3763503.08153508,199716.683880007,182599.748704835)
(3654109.01175351,176016.805820595,338144.080227829)
(3434127.70893525,128590.224375102,641218.241379058)
(2680700.39598501,68740.904554826,1631016.20011161)
(0,0,0)
(0,0,0)
(0,0,0)
(0,0,0)
(0,0,0)
(0,0,0)
(3842916.83802038,367841.181330737,2450.44144144363)
(3841284.52544866,366960.443649019,5257.45574135344)
(3836937.20944318,365252.789807838,9142.39110475599)
(3827070.01443163,362649.387284227,15936.0445539434)
(3805097.56365919,358937.818575804,30689.8346873885)
(3756774.73483569,352970.271940257,67524.1312112074)
(3661684.31608246,339209.284697936,159007.019650302)
(3590275.72143318,296684.931498792,290961.226009093)
(3368297.62040299,227307.929675203,581701.418889695)
(2638014.07845984,130025.116636107,1562611.75133375)
(0,0,0)
(0,0,0)
(0,0,0)
(0,0,0)
(0,0,0)
(0,0,0)
(3543318.50335101,679383.425907812,1647.83824424679)
(3542235.45997305,678532.959470973,3598.90122668721)
(3539316.34381909,676794.261446576,6546.08375830666)
(3532843.89496929,673766.745416491,12190.2139752506)
(3519097.3063914,668497.521954478,24695.0301841751)
(3491097.75689866,658045.525272828,53794.2454949312)
(3440547.52660519,634459.092017837,116515.712216546)
(3369517.90795847,580761.619463786,221710.542606553)
(3168996.34923909,485844.673174748,484613.005075904)
(2508235.66660145,316786.690323021,1432832.45066656)
(0,0,0)
(0,0,0)
(0,0,0)
(0,0,0)
(0,0,0)
(0,0,0)
(2730801.9291584,1679715.80310113,841.964969819306)
(2730261.46012115,1678821.56604328,1878.10867558979)
(2728820.68931773,1676900.98361879,3559.81863050794)
(2725682.96973958,1673263.13119011,6908.10595483407)
(2719279.28402818,1666337.51915483,14219.1584182067)
(2706698.08582788,1652129.04137796,30217.6007586723)
(2683366.02337413,1621874.00411422,62829.72943844)
(2638690.45686683,1558931.98179441,126816.608182645)
(2508325.72945075,1432007.30723811,315650.117289905)
(2039492.86981686,1116268.71722358,1116197.18620249)
(0,0,0)
(0,0,0)
(0,0,0)
(0,0,0)
(0,0,0)
(0,0,0)
(0,0,0)
(0,0,0)
(0,0,0)
(0,0,0)
(0,0,0)
(0,0,0)
(0,0,0)
(0,0,0)
(0,0,0)
(0,0,0)
(0,0,0)
(0,0,0)
(0,0,0)
(0,0,0)
(0,0,0)
(0,0,0)
(0,0,0)
(0,0,0)
(0,0,0)
(0,0,0)
(0,0,0)
(0,0,0)
(0,0,0)
(0,0,0)
(0,0,0)
(0,0,0)
(0,0,0)
(0,0,0)
(0,0,0)
(0,0,0)
(0,0,0)
(0,0,0)
(0,0,0)
(0,0,0)
(0,0,0)
(0,0,0)
(0,0,0)
(0,0,0)
(0,0,0)
(0,0,0)
(0,0,0)
(0,0,0)
(0,0,0)
(0,0,0)
(0,0,0)
(0,0,0)
(0,0,0)
(0,0,0)
(0,0,0)
(0,0,0)
(0,0,0)
(0,0,0)
(0,0,0)
(0,0,0)
(0,0,0)
(0,0,0)
(0,0,0)
(0,0,0)
(0,0,0)
(0,0,0)
(0,0,0)
(0,0,0)
(0,0,0)
(0,0,0)
(0,0,0)
(0,0,0)
(0,0,0)
(0,0,0)
(0,0,0)
(0,0,0)
(0,0,0)
(0,0,0)
(0,0,0)
(0,0,0)
(0,0,0)
(0,0,0)
(0,0,0)
(0,0,0)
(0,0,0)
(0,0,0)
(0,0,0)
(0,0,0)
(0,0,0)
(0,0,0)
(0,0,0)
(0,0,0)
(0,0,0)
(0,0,0)
(0,0,0)
(0,0,0)
(0,0,0)
(0,0,0)
(0,0,0)
(0,0,0)
(0,0,0)
(0,0,0)
(-71547.9381497513,10538.965689986,8641.21934014634)
(-74509.2074679297,9940.91193546989,18172.2491530135)
(-81270.0545891691,8604.4513712502,29590.7992800063)
(-93445.6877119872,6268.26474559146,44013.8208127471)
(-114287.290396659,2655.21420798202,62376.8339985201)
(-149038.246949492,-1992.81371218129,83680.1601599881)
(-205977.203272795,-6279.93603838862,99192.8014537156)
(-296097.350717501,-7202.55559888938,73275.3051914492)
(-425389.214773145,-4936.61693885545,-124571.409503117)
(-521601.259467348,-2260.70464960206,-1040741.21783122)
(0,0,0)
(0,0,0)
(0,0,0)
(0,0,0)
(0,0,0)
(0,0,0)
(-74732.9837304754,22082.880342512,8043.31885135637)
(-77632.9484204412,20963.4143721789,16833.9627495144)
(-84257.8178388852,18376.8077212522,27282.6793873948)
(-96406.4731879731,13700.3348315994,40535.4775106722)
(-117526.045320756,6093.00760268846,57868.9062566698)
(-153191.341466095,-4708.67602665465,79537.1147976531)
(-211445.230026037,-15968.6673533652,98384.7161736234)
(-300712.214460676,-17912.7582075511,75600.2168254699)
(-427689.902593507,-11074.3743636666,-121830.854396525)
(-522402.700929585,-4612.85904990048,-1038440.05371322)
(0,0,0)
(0,0,0)
(0,0,0)
(0,0,0)
(0,0,0)
(0,0,0)
(-81708.6225174344,35608.3144215008,6838.93478918624)
(-84507.7854282228,34100.2034020848,14183.4140066481)
(-90987.5823163761,30600.8718506038,22612.4309326065)
(-103235.050235674,24010.6644872275,33027.1019241492)
(-125410.225999068,12392.7850693349,47169.3974300424)
(-164687.172082098,-6760.9122882582,68412.5897794311)
(-229942.967930209,-31599.4516116929,96604.0317665465)
(-316878.618848563,-35110.6946057074,82600.3367865885)
(-434768.671834456,-17885.212673764,-115157.464784569)
(-524656.741816419,-6216.08477107284,-1033602.91886069)
(0,0,0)
(0,0,0)
(0,0,0)
(0,0,0)
(0,0,0)
(0,0,0)
(-94220.6813998266,51799.854979541,5287.5418827156)
(-96845.9082758086,50177.1206963916,10673.413392877)
(-103117.356458951,46459.2924185618,16100.6076915373)
(-115624.078159363,39341.5930254801,21549.7607530075)
(-140255.760846877,26008.3574511215,28187.5293238607)
(-190234.344673601,521.596190468814,43709.6599867968)
(-287887.173402659,-44433.0633990742,93283.5836165344)
(-370144.839854243,-51527.0572689721,100057.34916525)
(-452627.476632075,-17716.4117528099,-103191.164259964)
(-529550.556794327,-3792.80674405875,-1027065.89104516)
(0,0,0)
(0,0,0)
(0,0,0)
(0,0,0)
(0,0,0)
(0,0,0)
(-115229.767536484,70506.0186142136,3681.51619253674)
(-117635.101950918,69127.17415808,6947.9620151364)
(-123529.370601768,66044.1539846669,9011.69489092922)
(-136026.937764521,60481.8257169541,8314.49989421188)
(-163597.37042744,51224.8966791955,2865.08898806351)
(-234177.402250043,37044.4016199964,-1130.83657323705)
(-464952.114688545,20867.3547082804,86447.0437071006)
(-551510.897600857,13392.3893496052,134221.016762118)
(-487981.458144597,11845.5647730892,-88841.2929759268)
(-537685.602959664,7518.23724534329,-1022866.1691021)
(0,0,0)
(0,0,0)
(0,0,0)
(0,0,0)
(0,0,0)
(0,0,0)
(-149846.310685852,89494.8315126667,2265.66705808652)
(-151944.647409778,88514.0285876719,3831.30409764437)
(-157202.769523254,86449.3886160039,3499.52096302131)
(-168816.056701226,83070.8580575817,-860.608616002561)
(-195659.692503916,78014.8269841733,-11176.5614351302)
(-266168.212559298,70490.1640457831,-17146.6998745101)
(-486083.703683658,59844.4107785011,79358.5899706406)
(-565924.651548346,53773.8903400324,133058.036149801)
(-504775.2277859,38852.8464260279,-92734.842776131)
(-545870.581443252,19372.7844237421,-1029924.28717042)
(0,0,0)
(0,0,0)
(0,0,0)
(0,0,0)
(0,0,0)
(0,0,0)
(-206456.829021985,99748.4931645619,1277.58462131485)
(-208171.679342709,99166.3471869659,1793.3217736173)
(-212577.265579648,98180.1468130101,216.448788284396)
(-222711.481466027,97178.1597736662,-5816.82100979689)
(-247404.743040397,96893.1887653539,-18618.5942969762)
(-316507.966246877,97835.8356558014,-27718.4523554529)
(-546033.724386854,97944.8435049909,73372.2773796936)
(-619581.034108367,112157.743979484,118332.826141761)
(-529883.856575788,62748.0969404766,-111896.502321847)
(-559328.555676635,26067.8018638148,-1048908.21156073)
(0,0,0)
(0,0,0)
(0,0,0)
(0,0,0)
(0,0,0)
(0,0,0)
(-296765.59054671,68344.0283578761,741.249913360518)
(-298039.846412691,68040.5591684431,845.76633289224)
(-301431.666702782,67789.1258330421,-739.980001594664)
(-309395.575873254,68601.8572642829,-6043.73064768549)
(-329845.566471343,73087.7627698668,-17640.8179819363)
(-393307.18302385,87438.2316580658,-27506.9395851519)
(-644138.625449418,118206.368486701,87708.8335046034)
(-525328.645247878,75989.8536804335,69135.4470244008)
(-549926.593525679,28036.4188967876,-148274.304463545)
(-580153.884182365,273.34275088981,-1074657.52616868)
(0,0,0)
(0,0,0)
(0,0,0)
(0,0,0)
(0,0,0)
(0,0,0)
(-426387.660291986,-132789.599712903,494.148253320015)
(-427185.749234895,-133046.978562429,657.251731703624)
(-429380.013545622,-133293.305746115,90.3972152248346)
(-434301.512450635,-132941.188498178,-1566.7930627325)
(-445573.102640006,-130855.51598158,-3298.748740204)
(-472531.049958712,-125905.708605453,3328.35492016449)
(-531489.255305602,-122343.889857536,45569.7517147549)
(-550850.27878465,-149743.337471663,21325.4861495111)
(-601595.352196907,-174549.852623935,-175842.184354156)
(-611225.042700919,-151766.120021496,-1074687.65573982)
(0,0,0)
(0,0,0)
(0,0,0)
(0,0,0)
(0,0,0)
(0,0,0)
(-522369.68503017,-1050220.18372428,256.554739564861)
(-522739.656119928,-1050560.80809127,425.857049052785)
(-523802.582760628,-1051043.25024973,453.430170654723)
(-526110.678688445,-1051553.85328982,514.099929808484)
(-530959.207100231,-1052087.22998999,1638.66160623423)
(-541108.384845672,-1053727.34449286,6921.12470672182)
(-559890.059118864,-1060715.04834063,18202.7222223974)
(-580775.111162646,-1078974.27832553,-3446.41235482877)
(-611420.421525915,-1075607.78722787,-152987.97023468)
(-590104.509651933,-922698.06675956,-922804.287488298)
(0,0,0)
(0,0,0)
(0,0,0)
(0,0,0)
(0,0,0)
(0,0,0)
(0,0,0)
(0,0,0)
(0,0,0)
(0,0,0)
(0,0,0)
(0,0,0)
(0,0,0)
(0,0,0)
(0,0,0)
(0,0,0)
(0,0,0)
(0,0,0)
(0,0,0)
(0,0,0)
(0,0,0)
(0,0,0)
(0,0,0)
(0,0,0)
(0,0,0)
(0,0,0)
(0,0,0)
(0,0,0)
(0,0,0)
(0,0,0)
(0,0,0)
(0,0,0)
(0,0,0)
(0,0,0)
(0,0,0)
(0,0,0)
(0,0,0)
(0,0,0)
(0,0,0)
(0,0,0)
(0,0,0)
(0,0,0)
(0,0,0)
(0,0,0)
(0,0,0)
(0,0,0)
(0,0,0)
(0,0,0)
(0,0,0)
(0,0,0)
(0,0,0)
(0,0,0)
(0,0,0)
(0,0,0)
(0,0,0)
(0,0,0)
(0,0,0)
(0,0,0)
(0,0,0)
(0,0,0)
(0,0,0)
(0,0,0)
(0,0,0)
(0,0,0)
(0,0,0)
(0,0,0)
(0,0,0)
(0,0,0)
(0,0,0)
(0,0,0)
(0,0,0)
(0,0,0)
(0,0,0)
(0,0,0)
(0,0,0)
(0,0,0)
(0,0,0)
(0,0,0)
(0,0,0)
(0,0,0)
(0,0,0)
(0,0,0)
(0,0,0)
(0,0,0)
(0,0,0)
(0,0,0)
(0,0,0)
(0,0,0)
(0,0,0)
(0,0,0)
(0,0,0)
(0,0,0)
(0,0,0)
(0,0,0)
(0,0,0)
(0,0,0)
(0,0,0)
(0,0,0)
(0,0,0)
(0,0,0)
(0,0,0)
(0,0,0)
(-84685.7913543104,7441.1484817889,5696.70472276974)
(-87194.3400822897,6882.79579439056,11499.0415427433)
(-92805.6086595509,5590.09592746179,17444.4996856651)
(-102475.189259632,3235.87422030676,23238.1270130004)
(-118080.949763672,-684.368631189501,27716.1550112016)
(-142001.252773512,-6249.08839793706,26928.249233159)
(-176475.949826188,-11824.436494851,9251.43228140299)
(-219206.441437758,-11858.4913572653,-55780.9856410735)
(-253421.504343458,-7257.14286089152,-220491.553209833)
(-220250.15361091,-3065.80244087412,-518776.856625375)
(0,0,0)
(0,0,0)
(0,0,0)
(0,0,0)
(0,0,0)
(0,0,0)
(-87585.5124740484,15155.0020981807,5138.67512717942)
(-89935.2089823392,14105.1937451032,10218.5377383665)
(-95175.1546162083,11605.308860342,15120.6615828134)
(-104289.013484823,6797.6917929271,19441.3843070371)
(-119139.140027048,-1886.48126487652,22256.59164701)
(-142334.885349055,-16303.2874572891,21454.3345893269)
(-176554.681671857,-34564.4794436843,9303.82918398085)
(-218021.029001573,-34119.7918333381,-51126.0557990477)
(-251669.716889242,-18168.7896183717,-216234.594745816)
(-219194.92243413,-6880.73972681813,-515627.435955408)
(0,0,0)
(0,0,0)
(0,0,0)
(0,0,0)
(0,0,0)
(0,0,0)
(-93801.3873400435,23193.1423847204,4054.62453607516)
(-95883.8809988272,21810.5026398746,7725.41121190672)
(-100501.178076034,18463.6169672455,10380.6988646595)
(-108547.646746641,11598.0535353348,10892.9336332195)
(-121861.916389056,-2473.66400573472,7931.80676406451)
(-144026.477089211,-32320.9513416846,3288.77565555665)
(-181537.877865038,-89560.9739286797,9880.18007538126)
(-217706.065519099,-88395.6035204752,-35016.5615669637)
(-247450.910186958,-35773.9114913771,-204729.201341453)
(-216625.898853077,-11141.0033907721,-508499.780640861)
(0,0,0)
(0,0,0)
(0,0,0)
(0,0,0)
(0,0,0)
(0,0,0)
(-104580.217421742,30899.3533760424,2653.32503060199)
(-106279.493390426,29481.0754462661,4416.33733883284)
(-109965.638765178,26087.660047651,3640.57656465954)
(-116288.364603204,18932.0792134846,-3029.16266964839)
(-126662.338124668,2664.92073812333,-21761.1701357131)
(-147080.587532097,-43372.1843552133,-53863.6942636948)
(-221129.075051839,-221369.510937437,11186.7443942394)
(-232363.233111688,-232841.692109138,17851.2262403392)
(-237693.532960246,-53081.9791528844,-179774.649769996)
(-211470.736016983,-11955.8215864667,-497039.652351708)
(0,0,0)
(0,0,0)
(0,0,0)
(0,0,0)
(0,0,0)
(0,0,0)
(-121570.291016663,35993.5295330031,1246.34732321778)
(-122834.297170055,34914.6680594684,1011.94992915453)
(-125371.284411323,32430.9347444096,-3489.41095804148)
(-129064.666122553,27698.5611804618,-19218.1645669859)
(-131646.976706755,19165.62109685,-67669.2586464034)
(-118511.319100248,5113.15611529868,-231820.682266717)
(5.64986125998417e-05,1.46799946011104e-05,-3.62239978582458e-05)