/*--------------------------------*- C++ -*----------------------------------*\
| =========                 |                                                 |
| \\      /  F ield         | foam-extend: Open Source CFD                    |
|  \\    /   O peration     | Version:     4.0                                |
|   \\  /    A nd           | Web:         http://www.foam-extend.org         |
|    \\/     M anipulation  |                                                 |
\*---------------------------------------------------------------------------*/
FoamFile
{
    version 2.0;
    format ascii;
    class volVectorField;
    location "Data/2466";
    object      E;
}
// * * * * * * * * * * * * * * * * * * * * * * * * * * * * * * * * * * * * * //

dimensions      [0 1 -1 0 0 0 0];

internalField   nonuniform List<vector>
4096
(
(0,0,0)
(0,0,0)
(0,0,0)
(0,0,0)
(0,0,0)
(0,0,0)
(0,0,0)
(0,0,0)
(0,0,0)
(0,0,0)
(0,0,0)
(0,0,0)
(0,0,0)
(0,0,0)
(0,0,0)
(0,0,0)
(0,0,0)
(0,0,0)
(0,0,0)
(0,0,0)
(0,0,0)
(0,0,0)
(0,0,0)
(0,0,0)
(0,0,0)
(0,0,0)
(0,0,0)
(0,0,0)
(0,0,0)
(0,0,0)
(0,0,0)
(0,0,0)
(0,0,0)
(0,0,0)
(0,0,0)
(0,0,0)
(0,0,0)
(0,0,0)
(0,0,0)
(0,0,0)
(0,0,0)
(0,0,0)
(0,0,0)
(0,0,0)
(0,0,0)
(0,0,0)
(0,0,0)
(0,0,0)
(0,0,0)
(0,0,0)
(0,0,0)
(0,0,0)
(0,0,0)
(0,0,0)
(0,0,0)
(0,0,0)
(0,0,0)
(0,0,0)
(0,0,0)
(0,0,0)
(0,0,0)
(0,0,0)
(0,0,0)
(0,0,0)
(0,0,0)
(0,0,0)
(0,0,0)
(0,0,0)
(0,0,0)
(0,0,0)
(0,0,0)
(0,0,0)
(0,0,0)
(0,0,0)
(0,0,0)
(0,0,0)
(0,0,0)
(0,0,0)
(0,0,0)
(0,0,0)
(0,0,0)
(0,0,0)
(0,0,0)
(0,0,0)
(0,0,0)
(0,0,0)
(0,0,0)
(0,0,0)
(0,0,0)
(0,0,0)
(0,0,0)
(0,0,0)
(0,0,0)
(0,0,0)
(0,0,0)
(0,0,0)
(0,0,0)
(0,0,0)
(0,0,0)
(0,0,0)
(0,0,0)
(0,0,0)
(0,0,0)
(0,0,0)
(0,0,0)
(0,0,0)
(0,0,0)
(0,0,0)
(0,0,0)
(0,0,0)
(0,0,0)
(0,0,0)
(0,0,0)
(0,0,0)
(0,0,0)
(0,0,0)
(0,0,0)
(0,0,0)
(0,0,0)
(0,0,0)
(0,0,0)
(0,0,0)
(0,0,0)
(0,0,0)
(0,0,0)
(0,0,0)
(0,0,0)
(0,0,0)
(0,0,0)
(0,0,0)
(0,0,0)
(0,0,0)
(0,0,0)
(0,0,0)
(0,0,0)
(0,0,0)
(0,0,0)
(0,0,0)
(0,0,0)
(0,0,0)
(0,0,0)
(0,0,0)
(0,0,0)
(0,0,0)
(0,0,0)
(0,0,0)
(0,0,0)
(0,0,0)
(0,0,0)
(0,0,0)
(0,0,0)
(0,0,0)
(0,0,0)
(0,0,0)
(0,0,0)
(0,0,0)
(0,0,0)
(0,0,0)
(0,0,0)
(0,0,0)
(0,0,0)
(0,0,0)
(0,0,0)
(0,0,0)
(0,0,0)
(0,0,0)
(0,0,0)
(0,0,0)
(0,0,0)
(0,0,0)
(0,0,0)
(0,0,0)
(0,0,0)
(0,0,0)
(0,0,0)
(0,0,0)
(0,0,0)
(0,0,0)
(0,0,0)
(0,0,0)
(0,0,0)
(0,0,0)
(0,0,0)
(0,0,0)
(0,0,0)
(0,0,0)
(0,0,0)
(0,0,0)
(0,0,0)
(0,0,0)
(0,0,0)
(0,0,0)
(0,0,0)
(0,0,0)
(0,0,0)
(0,0,0)
(0,0,0)
(0,0,0)
(0,0,0)
(0,0,0)
(0,0,0)
(0,0,0)
(0,0,0)
(0,0,0)
(0,0,0)
(0,0,0)
(0,0,0)
(0,0,0)
(0,0,0)
(0,0,0)
(0,0,0)
(0,0,0)
(0,0,0)
(0,0,0)
(0,0,0)
(0,0,0)
(0,0,0)
(0,0,0)
(0,0,0)
(0,0,0)
(0,0,0)
(0,0,0)
(0,0,0)
(0,0,0)
(0,0,0)
(0,0,0)
(0,0,0)
(0,0,0)
(0,0,0)
(0,0,0)
(0,0,0)
(0,0,0)
(0,0,0)
(0,0,0)
(0,0,0)
(0,0,0)
(0,0,0)
(0,0,0)
(0,0,0)
(0,0,0)
(0,0,0)
(0,0,0)
(0,0,0)
(0,0,0)
(0,0,0)
(0,0,0)
(0,0,0)
(0,0,0)
(0,0,0)
(0,0,0)
(0,0,0)
(0,0,0)
(0,0,0)
(0,0,0)
(0,0,0)
(0,0,0)
(0,0,0)
(0,0,0)
(0,0,0)
(0,0,0)
(0,0,0)
(0,0,0)
(0,0,0)
(0,0,0)
(0,0,0)
(0,0,0)
(0,0,0)
(0,0,0)
(0,0,0)
(0,0,0)
(0,0,0)
(0,0,0)
(0,0,0)
(0,0,0)
(0,0,0)
(0,0,0)
(0,0,0)
(0,0,0)
(0,0,0)
(0,0,0)
(0,0,0)
(0,0,0)
(0,0,0)
(0,0,0)
(0,0,0)
(0,0,0)
(0,0,0)
(0,0,0)
(0,0,0)
(0,0,0)
(0,0,0)
(0,0,0)
(0,0,0)
(0,0,0)
(0,0,0)
(0,0,0)
(0,0,0)
(0,0,0)
(0,0,0)
(0,0,0)
(0,0,0)
(0,0,0)
(0,0,0)
(0,0,0)
(0,0,0)
(0,0,0)
(0,0,0)
(0,0,0)
(0,0,0)
(0,0,0)
(0,0,0)
(0,0,0)
(0,0,0)
(0,0,0)
(0,0,0)
(0,0,0)
(0,0,0)
(0,0,0)
(0,0,0)
(0,0,0)
(0,0,0)
(0,0,0)
(0,0,0)
(0,0,0)
(0,0,0)
(0,0,0)
(0,0,0)
(0,0,0)
(0,0,0)
(0,0,0)
(0,0,0)
(0,0,0)
(0,0,0)
(0,0,0)
(0,0,0)
(0,0,0)
(0,0,0)
(0,0,0)
(0,0,0)
(0,0,0)
(0,0,0)
(0,0,0)
(0,0,0)
(0,0,0)
(0,0,0)
(0,0,0)
(0,0,0)
(0,0,0)
(0,0,0)
(0,0,0)
(0,0,0)
(0,0,0)
(0,0,0)
(0,0,0)
(0,0,0)
(0,0,0)
(0,0,0)
(0,0,0)
(0,0,0)
(0,0,0)
(0,0,0)
(0,0,0)
(0,0,0)
(0,0,0)
(0,0,0)
(0,0,0)
(0,0,0)
(0,0,0)
(0,0,0)
(0,0,0)
(0,0,0)
(0,0,0)
(0,0,0)
(0,0,0)
(0,0,0)
(0,0,0)
(0,0,0)
(0,0,0)
(0,0,0)
(0,0,0)
(0,0,0)
(0,0,0)
(0,0,0)
(0,0,0)
(0,0,0)
(0,0,0)
(0,0,0)
(0,0,0)
(0,0,0)
(0,0,0)
(0,0,0)
(0,0,0)
(0,0,0)
(0,0,0)
(0,0,0)
(0,0,0)
(0,0,0)
(0,0,0)
(0,0,0)
(0,0,0)
(0,0,0)
(0,0,0)
(0,0,0)
(0,0,0)
(0,0,0)
(0,0,0)
(0,0,0)
(0,0,0)
(0,0,0)
(0,0,0)
(0,0,0)
(0,0,0)
(0,0,0)
(0,0,0)
(0,0,0)
(0,0,0)
(0,0,0)
(0,0,0)
(0,0,0)
(0,0,0)
(0,0,0)
(0,0,0)
(0,0,0)
(0,0,0)
(0,0,0)
(0,0,0)
(0,0,0)
(0,0,0)
(0,0,0)
(0,0,0)
(0,0,0)
(0,0,0)
(0,0,0)
(0,0,0)
(0,0,0)
(0,0,0)
(0,0,0)
(0,0,0)
(0,0,0)
(0,0,0)
(0,0,0)
(0,0,0)
(0,0,0)
(0,0,0)
(0,0,0)
(0,0,0)
(0,0,0)
(0,0,0)
(0,0,0)
(0,0,0)
(0,0,0)
(0,0,0)
(0,0,0)
(0,0,0)
(0,0,0)
(0,0,0)
(0,0,0)
(0,0,0)
(0,0,0)
(0,0,0)
(0,0,0)
(0,0,0)
(0,0,0)
(0,0,0)
(0,0,0)
(0,0,0)
(0,0,0)
(0,0,0)
(0,0,0)
(0,0,0)
(0,0,0)
(0,0,0)
(0,0,0)
(0,0,0)
(0,0,0)
(0,0,0)
(0,0,0)
(0,0,0)
(0,0,0)
(0,0,0)
(0,0,0)
(0,0,0)
(0,0,0)
(0,0,0)
(0,0,0)
(0,0,0)
(0,0,0)
(0,0,0)
(0,0,0)
(0,0,0)
(0,0,0)
(0,0,0)
(0,0,0)
(0,0,0)
(0,0,0)
(0,0,0)
(0,0,0)
(0,0,0)
(0,0,0)
(0,0,0)
(0,0,0)
(0,0,0)
(0,0,0)
(0,0,0)
(0,0,0)
(0,0,0)
(0,0,0)
(0,0,0)
(0,0,0)
(0,0,0)
(0,0,0)
(0,0,0)
(0,0,0)
(0,0,0)
(0,0,0)
(0,0,0)
(0,0,0)
(0,0,0)
(0,0,0)
(0,0,0)
(0,0,0)
(0,0,0)
(0,0,0)
(0,0,0)
(0,0,0)
(0,0,0)
(0,0,0)
(0,0,0)
(0,0,0)
(0,0,0)
(0,0,0)
(0,0,0)
(0,0,0)
(0,0,0)
(0,0,0)
(0,0,0)
(0,0,0)
(0,0,0)
(0,0,0)
(0,0,0)
(0,0,0)
(0,0,0)
(0,0,0)
(0,0,0)
(0,0,0)
(0,0,0)
(0,0,0)
(0,0,0)
(0,0,0)
(0,0,0)
(0,0,0)
(0,0,0)
(0,0,0)
(0,0,0)
(0,0,0)
(0,0,0)
(0,0,0)
(0,0,0)
(0,0,0)
(0,0,0)
(0,0,0)
(0,0,0)
(0,0,0)
(0,0,0)
(0,0,0)
(0,0,0)
(0,0,0)
(0,0,0)
(0,0,0)
(0,0,0)
(0,0,0)
(0,0,0)
(0,0,0)
(0,0,0)
(0,0,0)
(0,0,0)
(0,0,0)
(0,0,0)
(0,0,0)
(0,0,0)
(0,0,0)
(0,0,0)
(0,0,0)
(0,0,0)
(0,0,0)
(0,0,0)
(0,0,0)
(0,0,0)
(0,0,0)
(0,0,0)
(0,0,0)
(0,0,0)
(0,0,0)
(0,0,0)
(0,0,0)
(0,0,0)
(0,0,0)
(0,0,0)
(0,0,0)
(0,0,0)
(0,0,0)
(0,0,0)
(0,0,0)
(0,0,0)
(0,0,0)
(0,0,0)
(0,0,0)
(0,0,0)
(0,0,0)
(0,0,0)
(0,0,0)
(0,0,0)
(0,0,0)
(0,0,0)
(0,0,0)
(0,0,0)
(0,0,0)
(0,0,0)
(0,0,0)
(0,0,0)
(0,0,0)
(0,0,0)
(0,0,0)
(0,0,0)
(0,0,0)
(0,0,0)
(0,0,0)
(0,0,0)
(0,0,0)
(0,0,0)
(0,0,0)
(0,0,0)
(0,0,0)
(0,0,0)
(0,0,0)
(0,0,0)
(0,0,0)
(0,0,0)
(0,0,0)
(0,0,0)
(0,0,0)
(0,0,0)
(0,0,0)
(0,0,0)
(0,0,0)
(0,0,0)
(0,0,0)
(0,0,0)
(0,0,0)
(0,0,0)
(0,0,0)
(0,0,0)
(0,0,0)
(0,0,0)
(0,0,0)
(0,0,0)
(0,0,0)
(0,0,0)
(0,0,0)
(0,0,0)
(0,0,0)
(0,0,0)
(0,0,0)
(0,0,0)
(0,0,0)
(0,0,0)
(0,0,0)
(0,0,0)
(0,0,0)
(0,0,0)
(0,0,0)
(0,0,0)
(0,0,0)
(0,0,0)
(0,0,0)
(0,0,0)
(0,0,0)
(0,0,0)
(0,0,0)
(0,0,0)
(0,0,0)
(0,0,0)
(0,0,0)
(0,0,0)
(0,0,0)
(0,0,0)
(0,0,0)
(0,0,0)
(0,0,0)
(0,0,0)
(0,0,0)
(0,0,0)
(0,0,0)
(0,0,0)
(0,0,0)
(0,0,0)
(0,0,0)
(0,0,0)
(0,0,0)
(0,0,0)
(0,0,0)
(0,0,0)
(0,0,0)
(0,0,0)
(0,0,0)
(0,0,0)
(0,0,0)
(0,0,0)
(0,0,0)
(0,0,0)
(0,0,0)
(0,0,0)
(0,0,0)
(0,0,0)
(0,0,0)
(0,0,0)
(0,0,0)
(0,0,0)
(0,0,0)
(0,0,0)
(0,0,0)
(0,0,0)
(0,0,0)
(0,0,0)
(0,0,0)
(0,0,0)
(0,0,0)
(0,0,0)
(0,0,0)
(0,0,0)
(0,0,0)
(0,0,0)
(0,0,0)
(0,0,0)
(0,0,0)
(0,0,0)
(0,0,0)
(0,0,0)
(0,0,0)
(0,0,0)
(0,0,0)
(0,0,0)
(0,0,0)
(0,0,0)
(0,0,0)
(0,0,0)
(0,0,0)
(0,0,0)
(0,0,0)
(0,0,0)
(0,0,0)
(0,0,0)
(0,0,0)
(0,0,0)
(0,0,0)
(0,0,0)
(0,0,0)
(0,0,0)
(0,0,0)
(0,0,0)
(0,0,0)
(0,0,0)
(0,0,0)
(0,0,0)
(0,0,0)
(0,0,0)
(0,0,0)
(0,0,0)
(0,0,0)
(0,0,0)
(0,0,0)
(0,0,0)
(0,0,0)
(0,0,0)
(0,0,0)
(0,0,0)
(0,0,0)
(0,0,0)
(0,0,0)
(0,0,0)
(0,0,0)
(0,0,0)
(0,0,0)
(0,0,0)
(0,0,0)
(0,0,0)
(0,0,0)
(0,0,0)
(0,0,0)
(0,0,0)
(0,0,0)
(0,0,0)
(0,0,0)
(0,0,0)
(0,0,0)
(0,0,0)
(0,0,0)
(0,0,0)
(0,0,0)
(0,0,0)
(0,0,0)
(0,0,0)
(0,0,0)
(0,0,0)
(0,0,0)
(0,0,0)
(0,0,0)
(0,0,0)
(0,0,0)
(0,0,0)
(0,0,0)
(0,0,0)
(0,0,0)
(0,0,0)
(0,0,0)
(0,0,0)
(0,0,0)
(0,0,0)
(0,0,0)
(-188534.282723707,100050.09689333,88484.1858303757)
(-199412.791752365,95978.159300342,191918.818282399)
(-224573.600382872,87366.0916763283,329126.326988942)
(-272046.432396026,73867.0620027594,527305.697382216)
(-357691.749828499,55693.2378137603,829304.209396959)
(-511431.809703734,34763.5503134208,1305972.46878727)
(-789811.732666053,15704.0007367984,2080080.20071654)
(-1292935.45387185,4013.22047274949,3369002.43411568)
(-2132414.32178714,108.73304011549,5501308.02286267)
(-2971054.70032847,-247.569631324366,8472610.29282251)
(0,0,0)
(0,0,0)
(0,0,0)
(0,0,0)
(0,0,0)
(0,0,0)
(-199441.873549123,215175.008555537,84316.9618869138)
(-210414.769097571,207447.835292821,183262.05499201)
(-235953.308027342,191063.399936771,315518.054758906)
(-284538.885927085,164980.168814971,508943.833873783)
(-372539.131726656,128988.627076437,808187.576337753)
(-529948.20600197,86139.3003597295,1286760.03229341)
(-811392.842343831,45571.7941583094,2068285.08121573)
(-1312614.11685955,19902.4845826759,3365009.93396528)
(-2145535.71532587,9787.54928914177,5500866.83304218)
(-2977181.24471811,5000.63639192621,8472799.87173695)
(0,0,0)
(0,0,0)
(0,0,0)
(0,0,0)
(0,0,0)
(0,0,0)
(-224310.495332047,363008.67816598,76476.8257216035)
(-235455.560087469,352577.736886938,166802.484214958)
(-261795.912967747,330378.862235315,289282.934884166)
(-312816.202070684,294378.808322324,472700.4974475)
(-406438.022358,243074.499033842,765052.647848085)
(-573609.631381311,178899.619787811,1245901.95980131)
(-864722.811825107,113898.717135092,2042297.84864966)
(-1361699.17849081,69277.1182890115,3354622.39343409)
(-2177131.77309254,45694.7766615445,5495846.93915427)
(-2991484.46513297,24761.5338080685,8467570.50687113)
(0,0,0)
(0,0,0)
(0,0,0)
(0,0,0)
(0,0,0)
(0,0,0)
(-270664.148013333,567706.778916959,65966.0472623548)
(-281987.372952976,556026.317387726,144504.839714546)
(-309328.707754478,531112.276632686,253100.133071646)
(-363877.913205851,490217.635666706,421139.218933108)
(-466791.288682789,430373.03687858,700631.969771166)
(-652723.396087015,351579.756972011,1180675.22867398)
(-966923.806115609,264048.349432606,1997449.40249208)
(-1456718.10258853,192592.575496521,3330852.04787304)
(-2235073.9259643,136858.483784899,5474762.26671393)
(-3016747.35204174,73614.6584162341,8442656.49414764)
(0,0,0)
(0,0,0)
(0,0,0)
(0,0,0)
(0,0,0)
(0,0,0)
(-353793.996843899,867200.058233973,54300.7175268814)
(-365065.260808934,855805.375473809,119586.920249729)
(-392937.175212879,831572.304178366,212064.067916928)
(-450424.668534154,791697.218550691,361009.153567096)
(-562900.701112821,732671.734784389,621611.156774109)
(-772039.670297465,652292.735178092,1092937.84886547)
(-1122597.45782098,553782.67849522,1925800.97762383)
(-1601457.6816232,444865.487888637,3274985.74685492)
(-2319330.39588955,319779.15722937,5411395.46930009)
(-3053301.64002586,169477.826012488,8368833.94172968)
(0,0,0)
(0,0,0)
(0,0,0)
(0,0,0)
(0,0,0)
(0,0,0)
(-503748.509700563,1328010.16316563,42938.4047689102)
(-514461.647105901,1317839.0392129,95366.3881357139)
(-541428.78028641,1296243.65285002,172123.819750477)
(-598336.17244232,1260337.6475621,301819.563181383)
(-711995.021788846,1205342.33575157,541143.98400305)
(-925110.191546633,1124229.4132814,994317.497446393)
(-1276766.59128536,1008088.74891832,1816778.01830866)
(-1733898.76026856,845669.007490399,3149873.25897546)
(-2410611.27952902,619223.698326932,5261039.99740698)
(-3099286.84540055,330558.580563865,8199246.08825599)
(0,0,0)
(0,0,0)
(0,0,0)
(0,0,0)
(0,0,0)
(0,0,0)
(-779004.262270618,2074197.51182187,32816.9136143724)
(-788500.410848288,2065392.84530644,73763.5183691272)
(-812703.767218729,2046546.87131664,136164.067121238)
(-864673.36283152,2014445.36737141,246729.710143452)
(-970250.660848236,1962307.5571503,460015.149592958)
(-1170493.08002982,1876598.76923499,878138.873669194)
(-1500516.33629708,1732474.40017213,1654269.55871249)
(-1916178.86335955,1492702.22803542,2923415.20152702)
(-2546646.24287667,1116897.81592835,4972387.32680221)
(-3174328.57720973,608559.259499658,7868715.22507628)
(0,0,0)
(0,0,0)
(0,0,0)
(0,0,0)
(0,0,0)
(0,0,0)
(-1282339.91124787,3332454.02139302,24083.4016767259)
(-1289957.96240031,3324484.91901448,54949.2903689981)
(-1309476.36023246,3306954.26858107,104018.253337034)
(-1351740.04977485,3275705.36050642,194498.309976863)
(-1438502.2550014,3221087.17907141,374220.943057155)
(-1604969.83471272,3121848.38870227,733941.158302583)
(-1881355.24019079,2933347.47228201,1414423.32638346)
(-2217860.76571527,2577397.58609153,2547588.73404264)
(-2793646.99912344,1994061.37903648,4464072.17005797)
(-3317865.61318304,1130308.68686902,7260188.35587157)
(0,0,0)
(0,0,0)
(0,0,0)
(0,0,0)
(0,0,0)
(0,0,0)
(-2125130.86229403,5441449.89922901,16134.984457997)
(-2130340.75245341,5433538.91294875,37421.7429771533)
(-2143643.15313507,5415309.86145039,72709.3032428648)
(-2172096.44858004,5380680.0473522,139831.064977114)
(-2229404.49398672,5315338.11400871,274984.624026529)
(-2337132.10113455,5188514.04151707,545451.072346285)
(-2518061.95557547,4938410.33995646,1058450.16024731)
(-2786844.73700709,4458474.65311833,1964217.83022761)
(-3249149.63802896,3607029.8962751,3600398.95101787)
(-3568156.29612278,2168778.91327872,6130085.02073094)
(0,0,0)
(0,0,0)
(0,0,0)
(0,0,0)
(0,0,0)
(0,0,0)
(-2967708.49793372,8400972.62359904,8185.77356372188)
(-2970320.75172911,8392802.58841188,19242.8498297031)
(-2976939.81620359,8373387.39897104,38105.1285126756)
(-2990916.2862467,8335122.81456565,74578.6475459755)
(-3018662.24785428,8260304.2937019,148274.715707087)
(-3070553.06080464,8111908.77342746,295433.044601309)
(-3161092.17536857,7816394.1915683,578541.368358027)
(-3313640.74002153,7237798.45340672,1112858.30809112)
(-3567332.99618839,6124803.50790625,2162417.69264832)
(-3592654.15457312,3962111.94398102,3961738.81651918)
(0,0,0)
(0,0,0)
(0,0,0)
(0,0,0)
(0,0,0)
(0,0,0)
(0,0,0)
(0,0,0)
(0,0,0)
(0,0,0)
(0,0,0)
(0,0,0)
(0,0,0)
(0,0,0)
(0,0,0)
(0,0,0)
(0,0,0)
(0,0,0)
(0,0,0)
(0,0,0)
(0,0,0)
(0,0,0)
(0,0,0)
(0,0,0)
(0,0,0)
(0,0,0)
(0,0,0)
(0,0,0)
(0,0,0)
(0,0,0)
(0,0,0)
(0,0,0)
(0,0,0)
(0,0,0)
(0,0,0)
(0,0,0)
(0,0,0)
(0,0,0)
(0,0,0)
(0,0,0)
(0,0,0)
(0,0,0)
(0,0,0)
(0,0,0)
(0,0,0)
(0,0,0)
(0,0,0)
(0,0,0)
(0,0,0)
(0,0,0)
(0,0,0)
(0,0,0)
(0,0,0)
(0,0,0)
(0,0,0)
(0,0,0)
(0,0,0)
(0,0,0)
(0,0,0)
(0,0,0)
(0,0,0)
(0,0,0)
(0,0,0)
(0,0,0)
(0,0,0)
(0,0,0)
(0,0,0)
(0,0,0)
(0,0,0)
(0,0,0)
(0,0,0)
(0,0,0)
(0,0,0)
(0,0,0)
(0,0,0)
(0,0,0)
(0,0,0)
(0,0,0)
(0,0,0)
(0,0,0)
(0,0,0)
(0,0,0)
(0,0,0)
(0,0,0)
(0,0,0)
(0,0,0)
(0,0,0)
(0,0,0)
(0,0,0)
(0,0,0)
(0,0,0)
(0,0,0)
(0,0,0)
(0,0,0)
(0,0,0)
(0,0,0)
(0,0,0)
(0,0,0)
(0,0,0)
(0,0,0)
(0,0,0)
(0,0,0)
(27862891.4326709,89185.4970238667,77623.1909047759)
(27844678.8466747,84966.802349944,166799.15345102)
(27802885.773239,75952.8881359559,281621.295016357)
(27724850.9102839,61364.574896247,441593.780763373)
(27585874.1971323,40800.1839592025,675462.053166594)
(27338635.6728695,16160.0946666986,1027468.87924979)
(26885047.1785901,-5973.99107399713,1576818.3623907)
(25988568.8575327,-15737.9648195586,2529286.41912896)
(23965851.9456477,-13031.8169494963,4662286.37196687)
(18472703.9637826,-6368.81015248931,11443130.9213315)
(0,0,0)
(0,0,0)
(0,0,0)
(0,0,0)
(0,0,0)
(0,0,0)
(27844293.0493293,190319.824431022,73365.1530376497)
(27826044.9818447,182353.888208088,157752.719560442)
(27783902.3360416,165166.177382873,266918.189567789)
(27704411.1521878,136689.559671203,420877.57000118)
(27561645.5186646,95064.2416376481,650663.265254739)
(27307477.6663679,42433.8630876951,1005198.02778716)
(26846947.3360972,-7813.54864901064,1566931.81024442)
(25954210.2243852,-29253.1111874845,2531857.01869087)
(23944515.6453881,-21852.7102511519,4668860.95460161)
(18463370.1769044,-9309.25483587072,11449484.3809856)
(0,0,0)
(0,0,0)
(0,0,0)
(0,0,0)
(0,0,0)
(0,0,0)
(27802259.2495831,316655.029599639,65329.4532393391)
(27783972.7802615,306012.61659522,140476.787826463)
(27741017.9711208,282808.676380178,238254.808063955)
(27658043.9713244,243306.026260762,379012.571402567)
(27505383.4874558,182710.749635509,597778.956914128)
(27230370.4337784,99788.4600645643,954678.698100795)
(26743479.4117082,11691.8551182742,1545205.47412347)
(25859281.0373525,-25782.2309620971,2538988.78137812)
(23889343.9484504,-12280.8911081202,4681175.64401526)
(18440501.1947277,-508.312524865187,11458623.4451669)
(0,0,0)
(0,0,0)
(0,0,0)
(0,0,0)
(0,0,0)
(0,0,0)
(27724979.3498957,484619.267688073,54626.6673257812)
(27706735.650096,472998.960605659,117151.703589617)
(27662763.9033321,447568.219982696,198533.952223706)
(27574345.7797208,403708.720282779,318141.968598347)
(27403454.2566839,334243.750812409,514597.82537806)
(27081322.1384027,232246.93460831,866328.219667885)
(26513455.958583,108383.560177549,1507491.15323331)
(25643080.0210053,47865.0271040887,2552280.17489652)
(23777755.9661674,52626.5241605062,4692777.27081932)
(18397662.491843,37105.1664622334,11458988.3512709)
(0,0,0)
(0,0,0)
(0,0,0)
(0,0,0)
(0,0,0)
(0,0,0)
(27588859.2859281,717212.648064929,42987.7401743541)
(27571062.4474942,706418.029071145,91675.3667289042)
(27526873.8998727,683122.568407238,154544.34654211)
(27433831.9854552,643797.438386404,248433.377772272)
(27242110.4251401,583550.642655059,412349.762999945)
(26849363.4591861,499202.984560311,742224.986887615)
(26099858.7819203,399622.719057343,1446763.99158977)
(25242105.4098596,312425.299899359,2556875.03063496)
(23602781.3123985,228501.040004651,4677123.20982588)
(18333895.8892978,123518.841486462,11421746.4088012)
(0,0,0)
(0,0,0)
(0,0,0)
(0,0,0)
(0,0,0)
(0,0,0)
(27346799.6593388,1052697.2240232,32201.6583255455)
(27330210.5118797,1043809.66481936,68372.26691495)
(27288120.0802995,1024999.34154846,115181.036511098)
(27196802.7543381,994002.631956244,188071.31948422)
(27002858.629174,947089.341749628,327913.372750038)
(26598866.3632863,878842.049488707,642532.1563119)
(25839859.4883497,784311.479265447,1359451.71979205)
(25020012.8090818,663320.014772124,2472879.83889205)
(23453784.2023451,483153.748175046,4572066.05217079)
(18260813.6890021,255533.854431482,11298184.9081463)
(0,0,0)
(0,0,0)
(0,0,0)
(0,0,0)
(0,0,0)
(0,0,0)
(26897878.9459654,1570745.52235131,23302.896759119)
(26883415.5980489,1563902.04997578,49528.9060287512)
(26846136.1879831,1549785.90234248,84136.7933562556)
(26763275.1579794,1527368.68156848,141056.626256312)
(26582426.2294818,1494044.78928874,259658.691710378)
(26196111.4739141,1442124.87667418,548005.713904168)
(25459985.5471261,1351618.77848999,1238430.93457963)
(24720136.6643943,1190983.21954512,2292686.60537606)
(23233110.1996312,869903.587096979,4344414.72726929)
(18136071.0268853,465080.751781233,11042702.6291478)
(0,0,0)
(0,0,0)
(0,0,0)
(0,0,0)
(0,0,0)
(0,0,0)
(26000712.6512694,2489475.00175311,16452.3614042211)
(25989273.8393796,2483951.67129501,35405.3416282679)
(25959576.2108445,2472680.38708002,61692.6891370177)
(25892648.5056796,2455254.48842964,107652.730144628)
(25743637.4411206,2430102.88209484,207689.34453964)
(25415923.3921432,2389648.07370758,457507.323973714)
(24771605.0089661,2296597.61404122,1077802.64258882)
(24289175.6705214,2008352.25245974,1971631.57676061)
(22787968.4152918,1538513.56230329,3939640.59046221)
(17847330.2434419,880011.58337266,10577748.3055691)
(0,0,0)
(0,0,0)
(0,0,0)
(0,0,0)
(0,0,0)
(0,0,0)
(23972941.8603063,4598714.63164815,10922.0508279293)
(23965221.5044669,4593390.61602734,24155.2524985614)
(23945357.4592089,4581799.32607488,44270.1044829024)
(23901540.699908,4561625.44622638,82496.4015213691)
(23808261.7889942,4525908.97520521,167258.428753313)
(23618486.8211413,4454991.55753795,364530.425970373)
(23276422.1714251,4295263.20811484,789615.108219489)
(22796003.410227,3931521.74215113,1501831.8746173)
(21439490.5646632,3288693.62841305,3281246.00913866)
(16969182.2347905,2144187.73859225,9697965.72632899)
(0,0,0)
(0,0,0)
(0,0,0)
(0,0,0)
(0,0,0)
(0,0,0)
(18475241.6848471,11368422.8801236,5575.97206688975)
(18471404.4114843,11362816.3826321,12659.4455718974)
(18461659.4596179,11349944.4043737,24149.4947748253)
(18440613.1994206,11325646.7182196,46833.1404376744)
(18397250.2643334,11278661.3338263,96402.6729523407)
(18311974.6751336,11182199.4690012,204901.428874131)
(18154114.8643143,10977223.7733951,425968.227234304)
(17851798.6404774,10551144.94965,859140.042559878)
(16969877.1494548,9691841.33535999,2137016.593293)
(13798027.2419296,7554561.06930386,7554196.26940174)
(0,0,0)
(0,0,0)
(0,0,0)
(0,0,0)
(0,0,0)
(0,0,0)
(0,0,0)
(0,0,0)
(0,0,0)
(0,0,0)
(0,0,0)
(0,0,0)
(0,0,0)
(0,0,0)
(0,0,0)
(0,0,0)
(0,0,0)
(0,0,0)
(0,0,0)
(0,0,0)
(0,0,0)
(0,0,0)
(0,0,0)
(0,0,0)
(0,0,0)
(0,0,0)
(0,0,0)
(0,0,0)
(0,0,0)
(0,0,0)
(0,0,0)
(0,0,0)
(0,0,0)
(0,0,0)
(0,0,0)
(0,0,0)
(0,0,0)
(0,0,0)
(0,0,0)
(0,0,0)
(0,0,0)
(0,0,0)
(0,0,0)
(0,0,0)
(0,0,0)
(0,0,0)
(0,0,0)
(0,0,0)
(0,0,0)
(0,0,0)
(0,0,0)
(0,0,0)
(0,0,0)
(0,0,0)
(0,0,0)
(0,0,0)
(0,0,0)
(0,0,0)
(0,0,0)
(0,0,0)
(0,0,0)
(0,0,0)
(0,0,0)
(0,0,0)
(0,0,0)
(0,0,0)
(0,0,0)
(0,0,0)
(0,0,0)
(0,0,0)
(0,0,0)
(0,0,0)
(0,0,0)
(0,0,0)
(0,0,0)
(0,0,0)
(0,0,0)
(0,0,0)
(0,0,0)
(0,0,0)
(0,0,0)
(0,0,0)
(0,0,0)
(0,0,0)
(0,0,0)
(0,0,0)
(0,0,0)
(0,0,0)
(0,0,0)
(0,0,0)
(0,0,0)
(0,0,0)
(0,0,0)
(0,0,0)
(0,0,0)
(0,0,0)
(0,0,0)
(0,0,0)
(0,0,0)
(0,0,0)
(0,0,0)
(0,0,0)
(-485419.778477696,70645.4223051637,59431.3855201835)
(-505493.442681974,66386.4720369248,124982.799516675)
(-550826.304859009,57000.7240799371,203459.750211583)
(-633325.722057705,40940.9712177127,302461.008012287)
(-774513.834242743,16579.4756080177,428035.160456096)
(-1010177.30276938,-15001.2837323711,573615.016504202)
(-1395568.77787288,-44088.3217771741,680084.891421259)
(-2005603.5063699,-50127.9591949265,506150.811195522)
(-2880277.83401451,-34426.6182662855,-831527.194199237)
(-3530701.4063185,-15741.4265354188,-7030614.80088578)
(0,0,0)
(0,0,0)
(0,0,0)
(0,0,0)
(0,0,0)
(0,0,0)
(-506709.619451858,148272.787099631,55140.9006634623)
(-526452.007594685,140232.878863476,115557.079953088)
(-571304.150817312,122239.534301415,187290.353267315)
(-653846.284839907,90300.398227666,277953.959961836)
(-797161.267959354,38799.3141473734,396306.504723181)
(-1039205.48433016,-34665.7389684464,544419.707334037)
(-1433617.11806486,-111281.023214808,673942.459610468)
(-2037748.98582768,-124229.009333196,521768.316638324)
(-2896372.89713056,-77106.2657350305,-812897.89669735)
(-3536380.32014986,-32234.5390813815,-7014888.69042028)
(0,0,0)
(0,0,0)
(0,0,0)
(0,0,0)
(0,0,0)
(0,0,0)
(-554121.626226732,239383.958931538,47035.3006548251)
(-573190.398179055,228735.658675512,97461.2959601173)
(-617216.246664709,204516.256889032,155184.38783466)
(-700538.128748523,159607.015581162,226225.467230838)
(-851252.735980966,80802.0421224653,322624.55936928)
(-1118226.49954862,-49234.7235872431,467556.07399185)
(-1560892.99335875,-218316.47079673,660729.523317463)
(-2149118.96644174,-241997.392478287,568663.506933428)
(-2945189.47746567,-123904.465238095,-768239.270970524)
(-3552009.23169121,-43371.5613794888,-6982826.22557677)
(0,0,0)
(0,0,0)
(0,0,0)
(0,0,0)
(0,0,0)
(0,0,0)
(-638828.725769693,348600.390675574,36357.2405981071)
(-656890.478904741,337370.990088496,73113.6348626169)
(-699639.754914883,311741.244223995,110057.90245145)
(-784645.164276434,263273.506801425,147147.951905111)
(-952151.388908342,172945.7396834,192375.496613121)
(-1292332.12697229,307.239189262974,298253.395888339)
(-1956482.62578308,-305171.317937586,636812.424071964)
(-2513834.26086458,-353056.713713641,686551.623853995)
(-3067631.69934408,-122324.84500433,-687874.73419146)
(-3585602.15327408,-26632.254544432,-6939583.79923282)
(0,0,0)
(0,0,0)
(0,0,0)
(0,0,0)
(0,0,0)
(0,0,0)
(-781105.915520387,475181.134026678,25150.0547741674)
(-797669.421165725,465585.565132659,47432.9450667521)
(-838039.344700306,444399.150102502,61453.8804379213)
(-923049.871351653,406784.511732914,56590.3289901414)
(-1110409.02194982,344324.903708155,19496.2087320639)
(-1590368.97423357,248738.027573229,-7436.54955546644)
(-3159405.55561226,139667.98628696,588754.080429297)
(-3747974.21237627,90394.1703242011,917148.415304108)
(-3307867.20165672,79531.5784813749,-592293.897449518)
(-3640704.74247651,50454.0261662972,-6913013.94970907)
(0,0,0)
(0,0,0)
(0,0,0)
(0,0,0)
(0,0,0)
(0,0,0)
(-1015585.12321601,603739.784083882,15591.7291744277)
(-1030091.61670288,597008.257456848,26236.7621095987)
(-1066265.28993932,583004.067793306,23782.8113343422)
(-1145314.29016377,560450.597217534,-6000.63297179062)
(-1327513.29282032,526670.993310153,-76209.2039026902)
(-1806334.76985592,476129.529462359,-116633.975972794)
(-3299146.03585455,404468.123032351,539337.00816273)
(-3838175.04307051,363463.578454047,906221.048862006)
(-3419763.78992394,262503.523958869,-621437.307669727)
(-3695766.30952969,130818.315637862,-6963456.00193265)
(0,0,0)
(0,0,0)
(0,0,0)
(0,0,0)
(0,0,0)
(0,0,0)
(-1398821.21176275,673363.591586775,8841.94690199943)
(-1410780.51059259,669615.663140105,12196.2465370011)
(-1441195.32053688,663121.371594555,1176.04793234234)
(-1510096.32556209,656658.633020068,-39894.9076519118)
(-1677445.30704067,655197.298109018,-126784.07925151)
(-2146417.1422941,661926.972832901,-188287.309737025)
(-3703626.99951877,663236.925761813,498322.0308552)
(-4201598.84897692,760026.742024057,805259.977333166)
(-3589021.40103348,424789.446085107,-753128.747451422)
(-3786678.2085127,176388.946956343,-7094184.54669522)
(0,0,0)
(0,0,0)
(0,0,0)
(0,0,0)
(0,0,0)
(0,0,0)
(-2010488.77958845,461300.646220417,5029.97290092691)
(-2019506.3196389,459531.075836939,5660.31589941123)
(-2042718.94087542,458159.17188333,-5316.73599267587)
(-2096764.04680131,463932.370428543,-41412.3242434672)
(-2235299.51825211,494571.665939457,-120084.13602431)
(-2665660.49821384,592106.668442064,-186914.344599803)
(-4366810.16456805,801326.057457868,595177.293915088)
(-3559040.86488859,515073.893655117,470112.274370867)
(-3723886.82109044,189920.162243301,-1001397.60872818)
(-3927362.06411799,1801.62755583602,-7270352.385091)
(0,0,0)
(0,0,0)
(0,0,0)
(0,0,0)
(0,0,0)
(0,0,0)
(-2887813.99409855,-899402.106150481,3224.20345244264)
(-2893688.93869623,-900858.031637992,4289.35076722775)
(-2908570.11507372,-902313.500590607,455.194200620706)
(-2941834.47068441,-899693.592445849,-10778.075655839)
(-3018189.0059861,-885443.935416344,-22546.0826429767)
(-3200758.7054777,-851818.246800783,22389.9558955497)
(-3599811.75711134,-827331.65321719,309047.191783744)
(-3730233.25360896,-1012977.35904208,145100.704993585)
(-4073188.41357372,-1181194.75343236,-1189339.8044171)
(-4137543.71503394,-1027156.12165936,-7271890.50870069)
(0,0,0)
(0,0,0)
(0,0,0)
(0,0,0)
(0,0,0)
(0,0,0)
(-3536477.57513277,-7107680.67954298,1763.43004919402)
(-3539342.01803305,-7109503.44493202,2920.86953726302)
(-3546466.06825263,-7112609.99774357,3108.49123749886)
(-3561852.12428002,-7115830.30949203,3476.12866091902)
(-3594661.19199756,-7119391.51842836,11100.7646805986)
(-3663421.31758219,-7130529.94099704,46974.0482693523)
(-3790443.93288983,-7177583.83941849,123550.628351603)
(-3931657.58371026,-7301300.38390027,-22904.5259259007)
(-4138805.77391106,-7278644.1862971,-1035006.57301856)
(-3994076.9433078,-6243946.79139886,-6244346.12136485)
(0,0,0)
(0,0,0)
(0,0,0)
(0,0,0)
(0,0,0)
(0,0,0)
(0,0,0)
(0,0,0)
(0,0,0)
(0,0,0)
(0,0,0)
(0,0,0)
(0,0,0)
(0,0,0)
(0,0,0)
(0,0,0)
(0,0,0)
(0,0,0)
(0,0,0)
(0,0,0)
(0,0,0)
(0,0,0)
(0,0,0)
(0,0,0)
(0,0,0)
(0,0,0)
(0,0,0)
(0,0,0)
(0,0,0)
(0,0,0)
(0,0,0)
(0,0,0)
(0,0,0)
(0,0,0)
(0,0,0)
(0,0,0)
(0,0,0)
(0,0,0)
(0,0,0)
(0,0,0)
(0,0,0)
(0,0,0)
(0,0,0)
(0,0,0)
(0,0,0)
(0,0,0)
(0,0,0)
(0,0,0)
(0,0,0)
(0,0,0)
(0,0,0)
(0,0,0)
(0,0,0)
(0,0,0)
(0,0,0)
(0,0,0)
(0,0,0)
(0,0,0)
(0,0,0)
(0,0,0)
(0,0,0)
(0,0,0)
(0,0,0)
(0,0,0)
(0,0,0)
(0,0,0)
(0,0,0)
(0,0,0)
(0,0,0)
(0,0,0)
(0,0,0)
(0,0,0)
(0,0,0)
(0,0,0)
(0,0,0)
(0,0,0)
(0,0,0)
(0,0,0)
(0,0,0)
(0,0,0)
(0,0,0)
(0,0,0)
(0,0,0)
(0,0,0)
(0,0,0)
(0,0,0)
(0,0,0)
(0,0,0)
(0,0,0)
(0,0,0)
(0,0,0)
(0,0,0)
(0,0,0)
(0,0,0)
(0,0,0)
(0,0,0)
(0,0,0)
(0,0,0)
(0,0,0)
(0,0,0)
(0,0,0)
(0,0,0)
(-574254.078594155,49471.3282112962,39362.9719051632)
(-591264.906483519,45544.4689137528,79589.9667929613)
(-628706.643387445,36637.599819652,120832.705501746)
(-694072.596686221,20484.4317080435,161095.148422216)
(-799606.826629545,-6023.41000050421,192211.550809521)
(-961940.138112769,-43985.2303322783,187959.616485195)
(-1195290.00841571,-82094.8332821089,69775.6803101404)
(-1484686.48559535,-82245.6252405597,-368895.715223848)
(-1716124.52603817,-50555.5174926403,-1482493.50570752)
(-1491222.15853934,-21462.558877129,-3500510.19460954)
(0,0,0)
(0,0,0)
(0,0,0)
(0,0,0)
(0,0,0)
(0,0,0)
(-593604.071126183,100951.57103408,35414.2088515377)
(-609670.653825529,93557.2857029624,70620.0382931727)
(-645029.465532574,76407.9087551573,104575.044072933)
(-706886.159477795,43657.1046192601,134442.245799601)
(-807567.011604879,-15274.643954282,154099.223398905)
(-965201.293059802,-113653.27032833,149763.072124603)
(-1197023.0374947,-238489.660061282,69563.8183336234)
(-1477645.99228708,-235567.815495094,-337216.984952441)
(-1704739.75852777,-125973.689492207,-1453431.95155565)
(-1484225.99347666,-47925.6437294138,-3479123.19337663)
(0,0,0)
(0,0,0)
(0,0,0)
(0,0,0)
(0,0,0)
(0,0,0)
(-635934.09903978,154777.003875302,27987.0399718289)
(-650132.802618956,145124.59734425,53362.1327704386)
(-681353.320102297,122192.44581757,71714.6691456128)
(-736055.999070723,75557.5813317645,75332.0627553138)
(-826627.917526431,-20081.4210569282,55514.0214034219)
(-977763.119720051,-223292.490296708,24689.8615432188)
(-1233165.19116651,-613796.449456515,72268.8487462082)
(-1478029.74185437,-606630.209041517,-227757.982294747)
(-1677065.34196223,-246325.499683135,-1375530.30760725)
(-1467124.97325228,-76970.2518761446,-3431369.95789946)
(0,0,0)
(0,0,0)
(0,0,0)
(0,0,0)
(0,0,0)
(0,0,0)
(-708808.894227223,206443.348647147,18313.8236856924)
(-720416.056630719,196681.81846758,30282.1802883448)
(-745547.693432229,173466.908066878,24915.6565563852)
(-788630.527814546,124978.513316744,-20519.911890483)
(-859580.55983037,14742.8270144737,-147914.989039854)
(-999814.606298816,-297665.11028182,-366059.889728219)
(-1507600.41152003,-1507947.82170466,79209.2682568703)
(-1586553.18842735,-1587081.78265484,132379.769432972)
(-1612741.60866844,-362515.223487355,-1206320.59743845)
(-1432639.97473396,-81718.514280184,-3354534.51357455)
(0,0,0)
(0,0,0)
(0,0,0)
(0,0,0)
(0,0,0)
(0,0,0)
(-824037.201613731,240786.059690224,8588.57505026412)
(-832597.827803132,233222.062107929,6976.73804732324)
(-850144.696701787,216253.182716157,-23704.184600471)
(-875439.529082851,184594.256335778,-130930.269888305)
(-893335.260076109,127291.162637051,-460552.367384595)
(-804880.000868005,32850.9046853822,-1576557.35571737)
(-6.10397275728431e-05,-1.55766245079597e-05,3.96554861494113e-05)