/*--------------------------------*- C++ -*----------------------------------*\
| =========                 |                                                 |
| \\      /  F ield         | foam-extend: Open Source CFD                    |
|  \\    /   O peration     | Version:     4.0                                |
|   \\  /    A nd           | Web:         http://www.foam-extend.org         |
|    \\/     M anipulation  |                                                 |
\*---------------------------------------------------------------------------*/
FoamFile
{
    version 2.0;
    format ascii;
    class volVectorField;
    location "1033";
    object      E;
}
// * * * * * * * * * * * * * * * * * * * * * * * * * * * * * * * * * * * * * //

dimensions      [0 1 -1 0 0 0 0];

internalField   nonuniform List<vector>
4096
(
(0,0,0)
(0,0,0)
(0,0,0)
(0,0,0)
(0,0,0)
(0,0,0)
(0,0,0)
(0,0,0)
(0,0,0)
(0,0,0)
(0,0,0)
(0,0,0)
(0,0,0)
(0,0,0)
(0,0,0)
(0,0,0)
(0,0,0)
(0,0,0)
(0,0,0)
(0,0,0)
(0,0,0)
(0,0,0)
(0,0,0)
(0,0,0)
(0,0,0)
(0,0,0)
(0,0,0)
(0,0,0)
(0,0,0)
(0,0,0)
(0,0,0)
(0,0,0)
(0,0,0)
(0,0,0)
(0,0,0)
(0,0,0)
(0,0,0)
(0,0,0)
(0,0,0)
(0,0,0)
(0,0,0)
(0,0,0)
(0,0,0)
(0,0,0)
(0,0,0)
(0,0,0)
(0,0,0)
(0,0,0)
(0,0,0)
(0,0,0)
(0,0,0)
(0,0,0)
(0,0,0)
(0,0,0)
(0,0,0)
(0,0,0)
(0,0,0)
(0,0,0)
(0,0,0)
(0,0,0)
(0,0,0)
(0,0,0)
(0,0,0)
(0,0,0)
(0,0,0)
(0,0,0)
(0,0,0)
(0,0,0)
(0,0,0)
(0,0,0)
(0,0,0)
(0,0,0)
(0,0,0)
(0,0,0)
(0,0,0)
(0,0,0)
(0,0,0)
(0,0,0)
(0,0,0)
(0,0,0)
(0,0,0)
(0,0,0)
(0,0,0)
(0,0,0)
(0,0,0)
(0,0,0)
(0,0,0)
(0,0,0)
(0,0,0)
(0,0,0)
(0,0,0)
(0,0,0)
(0,0,0)
(0,0,0)
(0,0,0)
(0,0,0)
(0,0,0)
(0,0,0)
(0,0,0)
(0,0,0)
(0,0,0)
(0,0,0)
(0,0,0)
(0,0,0)
(0,0,0)
(0,0,0)
(0,0,0)
(0,0,0)
(0,0,0)
(0,0,0)
(0,0,0)
(0,0,0)
(0,0,0)
(0,0,0)
(0,0,0)
(0,0,0)
(0,0,0)
(0,0,0)
(0,0,0)
(0,0,0)
(0,0,0)
(0,0,0)
(0,0,0)
(0,0,0)
(0,0,0)
(0,0,0)
(0,0,0)
(0,0,0)
(0,0,0)
(0,0,0)
(0,0,0)
(0,0,0)
(0,0,0)
(0,0,0)
(0,0,0)
(0,0,0)
(0,0,0)
(0,0,0)
(0,0,0)
(0,0,0)
(0,0,0)
(0,0,0)
(0,0,0)
(0,0,0)
(0,0,0)
(0,0,0)
(0,0,0)
(0,0,0)
(0,0,0)
(0,0,0)
(0,0,0)
(0,0,0)
(0,0,0)
(0,0,0)
(0,0,0)
(0,0,0)
(0,0,0)
(0,0,0)
(0,0,0)
(0,0,0)
(0,0,0)
(0,0,0)
(0,0,0)
(0,0,0)
(0,0,0)
(0,0,0)
(0,0,0)
(0,0,0)
(0,0,0)
(0,0,0)
(0,0,0)
(0,0,0)
(0,0,0)
(0,0,0)
(0,0,0)
(0,0,0)
(0,0,0)
(0,0,0)
(0,0,0)
(0,0,0)
(0,0,0)
(0,0,0)
(0,0,0)
(0,0,0)
(0,0,0)
(0,0,0)
(0,0,0)
(0,0,0)
(0,0,0)
(0,0,0)
(0,0,0)
(0,0,0)
(0,0,0)
(0,0,0)
(0,0,0)
(0,0,0)
(0,0,0)
(0,0,0)
(0,0,0)
(0,0,0)
(0,0,0)
(0,0,0)
(0,0,0)
(0,0,0)
(0,0,0)
(0,0,0)
(0,0,0)
(0,0,0)
(0,0,0)
(0,0,0)
(0,0,0)
(0,0,0)
(0,0,0)
(0,0,0)
(0,0,0)
(0,0,0)
(0,0,0)
(0,0,0)
(0,0,0)
(0,0,0)
(0,0,0)
(0,0,0)
(0,0,0)
(0,0,0)
(0,0,0)
(0,0,0)
(0,0,0)
(0,0,0)
(0,0,0)
(0,0,0)
(0,0,0)
(0,0,0)
(0,0,0)
(0,0,0)
(0,0,0)
(0,0,0)
(0,0,0)
(0,0,0)
(0,0,0)
(0,0,0)
(0,0,0)
(0,0,0)
(0,0,0)
(0,0,0)
(0,0,0)
(0,0,0)
(0,0,0)
(0,0,0)
(0,0,0)
(0,0,0)
(0,0,0)
(0,0,0)
(0,0,0)
(0,0,0)
(0,0,0)
(0,0,0)
(0,0,0)
(0,0,0)
(0,0,0)
(0,0,0)
(0,0,0)
(0,0,0)
(0,0,0)
(0,0,0)
(0,0,0)
(0,0,0)
(0,0,0)
(0,0,0)
(0,0,0)
(0,0,0)
(0,0,0)
(0,0,0)
(0,0,0)
(0,0,0)
(0,0,0)
(0,0,0)
(0,0,0)
(0,0,0)
(0,0,0)
(0,0,0)
(0,0,0)
(0,0,0)
(0,0,0)
(0,0,0)
(0,0,0)
(0,0,0)
(0,0,0)
(0,0,0)
(0,0,0)
(0,0,0)
(0,0,0)
(0,0,0)
(0,0,0)
(0,0,0)
(0,0,0)
(0,0,0)
(0,0,0)
(0,0,0)
(0,0,0)
(0,0,0)
(0,0,0)
(0,0,0)
(0,0,0)
(0,0,0)
(0,0,0)
(0,0,0)
(0,0,0)
(0,0,0)
(0,0,0)
(0,0,0)
(0,0,0)
(0,0,0)
(0,0,0)
(0,0,0)
(0,0,0)
(0,0,0)
(0,0,0)
(0,0,0)
(0,0,0)
(0,0,0)
(0,0,0)
(0,0,0)
(0,0,0)
(0,0,0)
(0,0,0)
(0,0,0)
(0,0,0)
(0,0,0)
(0,0,0)
(0,0,0)
(0,0,0)
(0,0,0)
(0,0,0)
(0,0,0)
(0,0,0)
(0,0,0)
(0,0,0)
(0,0,0)
(0,0,0)
(0,0,0)
(0,0,0)
(0,0,0)
(0,0,0)
(0,0,0)
(0,0,0)
(0,0,0)
(0,0,0)
(0,0,0)
(0,0,0)
(0,0,0)
(0,0,0)
(0,0,0)
(0,0,0)
(0,0,0)
(0,0,0)
(0,0,0)
(0,0,0)
(0,0,0)
(0,0,0)
(0,0,0)
(0,0,0)
(0,0,0)
(0,0,0)
(0,0,0)
(0,0,0)
(0,0,0)
(0,0,0)
(0,0,0)
(0,0,0)
(0,0,0)
(0,0,0)
(0,0,0)
(0,0,0)
(0,0,0)
(0,0,0)
(0,0,0)
(0,0,0)
(0,0,0)
(0,0,0)
(0,0,0)
(0,0,0)
(0,0,0)
(0,0,0)
(0,0,0)
(0,0,0)
(0,0,0)
(0,0,0)
(0,0,0)
(0,0,0)
(0,0,0)
(0,0,0)
(0,0,0)
(0,0,0)
(0,0,0)
(0,0,0)
(0,0,0)
(0,0,0)
(0,0,0)
(0,0,0)
(0,0,0)
(0,0,0)
(0,0,0)
(0,0,0)
(0,0,0)
(0,0,0)
(0,0,0)
(0,0,0)
(0,0,0)
(0,0,0)
(0,0,0)
(0,0,0)
(0,0,0)
(0,0,0)
(0,0,0)
(0,0,0)
(0,0,0)
(0,0,0)
(0,0,0)
(0,0,0)
(0,0,0)
(0,0,0)
(0,0,0)
(0,0,0)
(0,0,0)
(0,0,0)
(0,0,0)
(0,0,0)
(0,0,0)
(0,0,0)
(0,0,0)
(0,0,0)
(0,0,0)
(0,0,0)
(0,0,0)
(0,0,0)
(0,0,0)
(0,0,0)
(0,0,0)
(0,0,0)
(0,0,0)
(0,0,0)
(0,0,0)
(0,0,0)
(0,0,0)
(0,0,0)
(0,0,0)
(0,0,0)
(0,0,0)
(0,0,0)
(0,0,0)
(0,0,0)
(0,0,0)
(0,0,0)
(0,0,0)
(0,0,0)
(0,0,0)
(0,0,0)
(0,0,0)
(0,0,0)
(0,0,0)
(0,0,0)
(0,0,0)
(0,0,0)
(0,0,0)
(0,0,0)
(0,0,0)
(0,0,0)
(0,0,0)
(0,0,0)
(0,0,0)
(0,0,0)
(0,0,0)
(0,0,0)
(0,0,0)
(0,0,0)
(0,0,0)
(0,0,0)
(0,0,0)
(0,0,0)
(0,0,0)
(0,0,0)
(0,0,0)
(0,0,0)
(0,0,0)
(0,0,0)
(0,0,0)
(0,0,0)
(0,0,0)
(0,0,0)
(0,0,0)
(0,0,0)
(0,0,0)
(0,0,0)
(0,0,0)
(0,0,0)
(0,0,0)
(0,0,0)
(0,0,0)
(0,0,0)
(0,0,0)
(0,0,0)
(0,0,0)
(0,0,0)
(0,0,0)
(0,0,0)
(0,0,0)
(0,0,0)
(0,0,0)
(0,0,0)
(0,0,0)
(0,0,0)
(0,0,0)
(0,0,0)
(0,0,0)
(0,0,0)
(0,0,0)
(0,0,0)
(0,0,0)
(0,0,0)
(0,0,0)
(0,0,0)
(0,0,0)
(0,0,0)
(0,0,0)
(0,0,0)
(0,0,0)
(0,0,0)
(0,0,0)
(0,0,0)
(0,0,0)
(0,0,0)
(0,0,0)
(0,0,0)
(0,0,0)
(0,0,0)
(0,0,0)
(0,0,0)
(0,0,0)
(0,0,0)
(0,0,0)
(0,0,0)
(0,0,0)
(0,0,0)
(0,0,0)
(0,0,0)
(0,0,0)
(0,0,0)
(0,0,0)
(0,0,0)
(0,0,0)
(0,0,0)
(0,0,0)
(0,0,0)
(0,0,0)
(0,0,0)
(0,0,0)
(0,0,0)
(0,0,0)
(0,0,0)
(0,0,0)
(0,0,0)
(0,0,0)
(0,0,0)
(0,0,0)
(0,0,0)
(0,0,0)
(0,0,0)
(0,0,0)
(0,0,0)
(0,0,0)
(0,0,0)
(0,0,0)
(0,0,0)
(0,0,0)
(0,0,0)
(0,0,0)
(0,0,0)
(0,0,0)
(0,0,0)
(0,0,0)
(0,0,0)
(0,0,0)
(0,0,0)
(0,0,0)
(0,0,0)
(0,0,0)
(0,0,0)
(0,0,0)
(0,0,0)
(0,0,0)
(0,0,0)
(0,0,0)
(0,0,0)
(0,0,0)
(0,0,0)
(0,0,0)
(0,0,0)
(0,0,0)
(0,0,0)
(0,0,0)
(0,0,0)
(0,0,0)
(0,0,0)
(0,0,0)
(0,0,0)
(0,0,0)
(0,0,0)
(0,0,0)
(0,0,0)
(0,0,0)
(0,0,0)
(0,0,0)
(0,0,0)
(0,0,0)
(0,0,0)
(0,0,0)
(0,0,0)
(0,0,0)
(0,0,0)
(0,0,0)
(0,0,0)
(0,0,0)
(0,0,0)
(0,0,0)
(0,0,0)
(0,0,0)
(0,0,0)
(0,0,0)
(0,0,0)
(0,0,0)
(0,0,0)
(0,0,0)
(0,0,0)
(0,0,0)
(0,0,0)
(0,0,0)
(0,0,0)
(0,0,0)
(0,0,0)
(0,0,0)
(0,0,0)
(0,0,0)
(0,0,0)
(0,0,0)
(0,0,0)
(0,0,0)
(0,0,0)
(0,0,0)
(0,0,0)
(0,0,0)
(0,0,0)
(0,0,0)
(0,0,0)
(0,0,0)
(0,0,0)
(0,0,0)
(0,0,0)
(0,0,0)
(0,0,0)
(0,0,0)
(0,0,0)
(0,0,0)
(0,0,0)
(0,0,0)
(0,0,0)
(0,0,0)
(0,0,0)
(0,0,0)
(0,0,0)
(0,0,0)
(0,0,0)
(0,0,0)
(0,0,0)
(0,0,0)
(0,0,0)
(0,0,0)
(0,0,0)
(0,0,0)
(0,0,0)
(0,0,0)
(0,0,0)
(0,0,0)
(0,0,0)
(0,0,0)
(0,0,0)
(0,0,0)
(0,0,0)
(0,0,0)
(0,0,0)
(0,0,0)
(0,0,0)
(0,0,0)
(0,0,0)
(0,0,0)
(0,0,0)
(0,0,0)
(0,0,0)
(0,0,0)
(0,0,0)
(0,0,0)
(0,0,0)
(0,0,0)
(0,0,0)
(0,0,0)
(0,0,0)
(0,0,0)
(0,0,0)
(0,0,0)
(0,0,0)
(0,0,0)
(0,0,0)
(0,0,0)
(0,0,0)
(0,0,0)
(0,0,0)
(0,0,0)
(0,0,0)
(0,0,0)
(0,0,0)
(0,0,0)
(0,0,0)
(0,0,0)
(0,0,0)
(0,0,0)
(0,0,0)
(0,0,0)
(0,0,0)
(0,0,0)
(0,0,0)
(0,0,0)
(0,0,0)
(0,0,0)
(0,0,0)
(0,0,0)
(0,0,0)
(0,0,0)
(0,0,0)
(0,0,0)
(0,0,0)
(0,0,0)
(0,0,0)
(0,0,0)
(0,0,0)
(0,0,0)
(0,0,0)
(0,0,0)
(0,0,0)
(0,0,0)
(0,0,0)
(0,0,0)
(0,0,0)
(0,0,0)
(0,0,0)
(0,0,0)
(0,0,0)
(0,0,0)
(0,0,0)
(0,0,0)
(0,0,0)
(0,0,0)
(0,0,0)
(0,0,0)
(0,0,0)
(0,0,0)
(0,0,0)
(0,0,0)
(0,0,0)
(0,0,0)
(0,0,0)
(0,0,0)
(0,0,0)
(0,0,0)
(0,0,0)
(0,0,0)
(0,0,0)
(0,0,0)
(0,0,0)
(0,0,0)
(0,0,0)
(0,0,0)
(0,0,0)
(0,0,0)
(0,0,0)
(0,0,0)
(0,0,0)
(0,0,0)
(0,0,0)
(0,0,0)
(0,0,0)
(0,0,0)
(0,0,0)
(0,0,0)
(0,0,0)
(0,0,0)
(0,0,0)
(0,0,0)
(0,0,0)
(0,0,0)
(0,0,0)
(0,0,0)
(0,0,0)
(0,0,0)
(0,0,0)
(0,0,0)
(0,0,0)
(0,0,0)
(0,0,0)
(0,0,0)
(0,0,0)
(0,0,0)
(0,0,0)
(0,0,0)
(0,0,0)
(0,0,0)
(0,0,0)
(0,0,0)
(0,0,0)
(0,0,0)
(0,0,0)
(178.316436748538,-47.7193805911589,-130.597056157488)
(150.05738452007,-64.4534565971579,-216.200984080298)
(117.028403329658,-68.927105396007,-264.302282013735)
(92.9815243970878,-56.3619011320543,-300.921905276412)
(104.705916353597,-64.068310541578,-341.559511082894)
(120.979994507883,-61.2282875974883,-401.311218006606)
(88.1241609718074,-5.14306687577655,-484.292312069657)
(-31.849933427792,25.6318520584266,-478.074230706222)
(-212.044277585778,38.0865264941658,-304.11647956043)
(-524.378332505191,6.47673491242211,213.785118038128)
(0,0,0)
(0,0,0)
(0,0,0)
(0,0,0)
(0,0,0)
(0,0,0)
(134.04799826272,-56.1155899252503,-125.651788929162)
(126.107812394165,-94.0647435443659,-222.148314373067)
(111.256149710525,-106.815156559986,-295.516412922974)
(96.8566524076489,-102.571427813576,-346.163538645429)
(124.872962279002,-114.744415683073,-420.360395785009)
(159.390634257311,-115.85877781168,-525.120539821831)
(143.632040822784,-34.9407951197259,-638.954852432849)
(32.495789851203,26.121857252888,-671.940647506062)
(-190.877157307559,45.7706443081405,-488.74760795173)
(-506.047823218327,-1.59765651465786,25.3746066037164)
(0,0,0)
(0,0,0)
(0,0,0)
(0,0,0)
(0,0,0)
(0,0,0)
(105.119995448299,-56.6119107563388,-104.623674617696)
(118.269238653389,-100.336338331821,-216.621318483176)
(109.853582542299,-120.925292896479,-312.364764684462)
(115.822974765132,-140.597483999375,-390.161683261887)
(152.128125804831,-157.328555796589,-499.705668953499)
(183.106113838974,-150.478873582954,-648.191687020881)
(182.855403046701,-63.3000876167694,-802.687797567929)
(97.205642237269,16.294187000237,-890.065769579324)
(-150.757323548158,32.9994106232036,-726.53721227661)
(-488.296337185315,12.4030421056362,-252.2415737279)
(0,0,0)
(0,0,0)
(0,0,0)
(0,0,0)
(0,0,0)
(0,0,0)
(76.7018163055226,-27.4751738492988,-105.838553212107)
(90.4468002739133,-84.219596933715,-212.402094882413)
(85.1028563831338,-104.326663684306,-314.103580484019)
(106.354416828998,-154.837386605381,-406.218094711476)
(143.662876314743,-178.43359492987,-528.775931889944)
(181.121973770294,-141.391740850095,-718.985038398827)
(198.95401960242,-27.1246503605816,-954.114495246063)
(129.716319255815,73.5404660234916,-1141.07709355758)
(-130.644320875789,71.9897277811612,-1049.42308988004)
(-481.611966177555,51.0578908696225,-606.465972367242)
(0,0,0)
(0,0,0)
(0,0,0)
(0,0,0)
(0,0,0)
(0,0,0)
(61.7263191114743,16.4354437527089,-105.636936714511)
(80.5705706843096,-39.2120944707199,-231.215009862768)
(75.7707886061101,-78.9823149085989,-332.330147245688)
(88.8385347554277,-165.860210675551,-410.145857926335)
(120.449377145387,-175.35007782894,-533.678752166975)
(169.028676384111,-75.0877219153792,-769.011447500396)
(219.29467516075,41.7866659808577,-1057.21743899958)
(181.704893934617,133.328227478541,-1298.71009436322)
(-99.4022504870248,131.592313740846,-1258.91042978931)
(-467.971401957715,102.15719888951,-842.03833583296)
(0,0,0)
(0,0,0)
(0,0,0)
(0,0,0)
(0,0,0)
(0,0,0)
(70.214329124724,48.4817613292278,-102.260646700633)
(72.9757595338609,16.6076390182442,-231.056139724534)
(75.9004960223653,-50.9782073204383,-334.960743335087)
(90.5959897547413,-153.213391470708,-438.203552297475)
(120.33302335111,-129.382635568362,-604.50401790926)
(167.726702725679,-8.30183407804985,-839.016608464712)
(228.887476030163,75.8133689110618,-1101.93078739953)
(189.938405925849,153.980134926938,-1312.52110079325)
(-102.393865815035,183.995325838988,-1262.53024703989)
(-473.628755020537,125.545465673134,-812.289758887428)
(0,0,0)
(0,0,0)
(0,0,0)
(0,0,0)
(0,0,0)
(0,0,0)
(10.633259124573,109.720837455182,-71.8723352476625)
(21.4843093985164,89.1851905908751,-165.934196221002)
(33.9547011525523,15.8244945340895,-266.691599224254)
(46.1199715597912,-61.0173495396068,-405.007612711959)
(74.2685952059478,-12.6105524549301,-596.048291029986)
(118.805987439665,85.7623032859292,-808.918415841152)
(169.463629640318,139.49106170175,-1042.05973826928)
(105.50843095882,209.535175375668,-1203.1232096821)
(-172.870734063866,250.579209196615,-1096.83635903901)
(-507.270897545698,154.064027493685,-618.084023265882)
(0,0,0)
(0,0,0)
(0,0,0)
(0,0,0)
(0,0,0)
(0,0,0)
(-71.4078818645575,232.284674135779,-51.1559548256538)
(-59.3706422727462,221.841362802521,-124.441484761519)
(-55.2157387060436,167.126804091439,-220.528055603422)
(-64.7953811787006,109.386355166704,-326.13637914493)
(-29.5830819248951,169.323985785609,-478.487835466365)
(11.6848099411988,270.075630039336,-674.485972163692)
(22.5192454102843,321.269992109266,-878.784147996014)
(-87.9972036511355,366.87837555493,-948.130144508259)
(-306.936814849773,356.895574443079,-747.509694905561)
(-569.762157925937,207.455910001003,-231.139419551264)
(0,0,0)
(0,0,0)
(0,0,0)
(0,0,0)
(0,0,0)
(0,0,0)
(-229.822912329747,491.839862207993,-29.7322757530499)
(-216.173997530346,499.94484348377,-91.6617588923766)
(-231.545318942893,479.952141220717,-172.941777112811)
(-262.188472830945,452.903268742722,-254.270217850638)
(-254.642248088397,517.379209262796,-347.683193227265)
(-230.033178428074,621.841601026804,-469.415985797506)
(-233.08101381711,705.714155092062,-620.779134965805)
(-338.91270474344,700.593443853781,-615.58149852553)
(-510.966726318943,606.757335372888,-354.476533163262)
(-676.717323583425,372.333146111071,157.363554311491)
(0,0,0)
(0,0,0)
(0,0,0)
(0,0,0)
(0,0,0)
(0,0,0)
(-516.679754999468,997.68266462842,10.8369525651532)
(-512.130104792923,1035.65107554754,-12.7391747050315)
(-537.388536807294,1067.48135232617,-62.8798489748064)
(-559.249606773853,1066.32221099745,-117.049184445272)
(-550.633006937894,1133.64215626256,-182.679124488525)
(-539.830271130364,1210.99849473736,-232.005747071229)
(-547.838757921232,1304.1146568447,-282.567490910718)
(-619.674317112244,1291.82425483905,-254.123984822338)
(-724.618174627863,1148.53667369844,-71.2851485276085)
(-772.034245729883,774.297004942476,298.785238377634)
(0,0,0)
(0,0,0)
(0,0,0)
(0,0,0)
(0,0,0)
(0,0,0)
(0,0,0)
(0,0,0)
(0,0,0)
(0,0,0)
(0,0,0)
(0,0,0)
(0,0,0)
(0,0,0)
(0,0,0)
(0,0,0)
(0,0,0)
(0,0,0)
(0,0,0)
(0,0,0)
(0,0,0)
(0,0,0)
(0,0,0)
(0,0,0)
(0,0,0)
(0,0,0)
(0,0,0)
(0,0,0)
(0,0,0)
(0,0,0)
(0,0,0)
(0,0,0)
(0,0,0)
(0,0,0)
(0,0,0)
(0,0,0)
(0,0,0)
(0,0,0)
(0,0,0)
(0,0,0)
(0,0,0)
(0,0,0)
(0,0,0)
(0,0,0)
(0,0,0)
(0,0,0)
(0,0,0)
(0,0,0)
(0,0,0)
(0,0,0)
(0,0,0)
(0,0,0)
(0,0,0)
(0,0,0)
(0,0,0)
(0,0,0)
(0,0,0)
(0,0,0)
(0,0,0)
(0,0,0)
(0,0,0)
(0,0,0)
(0,0,0)
(0,0,0)
(0,0,0)
(0,0,0)
(0,0,0)
(0,0,0)
(0,0,0)
(0,0,0)
(0,0,0)
(0,0,0)
(0,0,0)
(0,0,0)
(0,0,0)
(0,0,0)
(0,0,0)
(0,0,0)
(0,0,0)
(0,0,0)
(0,0,0)
(0,0,0)
(0,0,0)
(0,0,0)
(0,0,0)
(0,0,0)
(0,0,0)
(0,0,0)
(0,0,0)
(0,0,0)
(0,0,0)
(0,0,0)
(0,0,0)
(0,0,0)
(0,0,0)
(0,0,0)
(0,0,0)
(0,0,0)
(0,0,0)
(0,0,0)
(0,0,0)
(0,0,0)
(7896.23252505747,-84.9361710344831,-111.504771012387)
(7818.34482170745,-60.6088537049872,-197.708208274863)
(7760.28947242742,-54.5496855361403,-264.944445638498)
(7725.6044351168,-51.0966912217413,-324.995518948438)
(7722.18742727579,-51.8528916062976,-369.148992032908)
(7697.16560185727,-26.7001037526788,-397.159349491792)
(7640.42922776252,41.375078587432,-469.364348669997)
(7460.99278349708,70.4225905109032,-511.154509952975)
(7004.46349541621,67.8712480849995,-274.058384841512)
(5419.32097105612,20.4405780407757,1283.27687978019)
(0,0,0)
(0,0,0)
(0,0,0)
(0,0,0)
(0,0,0)
(0,0,0)
(7779.21639536279,-85.9019546063195,-122.727467259553)
(7756.18106459849,-87.8639657232756,-204.070461179196)
(7728.68120736298,-90.3948438222855,-264.175214318217)
(7709.89403663478,-81.8253159824847,-325.008827591595)
(7737.99512752378,-73.8798402572972,-394.628897940953)
(7759.61421906417,-34.940734602902,-465.136705699769)
(7744.94272629527,62.3003561562074,-565.897522412044)
(7591.40934231278,111.604687885357,-644.518026004225)
(7084.47513755237,105.615765112847,-436.139691731435)
(5473.50821906435,30.0900475189252,1096.12994265289)
(0,0,0)
(0,0,0)
(0,0,0)
(0,0,0)
(0,0,0)
(0,0,0)
(7691.024200338,-49.5478347051668,-100.783178580609)
(7703.83720549413,-72.7927051303777,-179.947259755438)
(7697.1538197572,-82.8436201948843,-253.323574331413)
(7719.43830685755,-83.8386015942355,-333.450474540582)
(7775.86004190059,-70.6791369406549,-438.907947793443)
(7822.37831356542,-26.1601759657701,-565.485559929041)
(7841.39459619308,78.1934919427869,-718.442742618381)
(7715.86296045151,152.02593284537,-856.046159451115)
(7160.66989609023,136.544482140576,-676.926949937333)
(5508.30014820151,62.7259329512623,815.315825531087)
(0,0,0)
(0,0,0)
(0,0,0)
(0,0,0)
(0,0,0)
(0,0,0)
(7670.53952414037,-23.6664202507852,-98.2439760744798)
(7676.78852345686,-64.1033936406652,-171.799864456212)
(7678.93246936583,-64.4324435324466,-262.565507857793)
(7728.39266868076,-87.515689352697,-359.451525667086)
(7790.78223089379,-81.4849043098596,-474.289966678073)
(7877.93028393531,-26.3718870459696,-649.411419524003)
(7954.24453437582,83.6201286685355,-888.653424759036)
(7862.36283696965,187.166069885251,-1134.96493327219)
(7233.78039243648,164.669821220015,-1006.039839491)
(5532.14503554618,87.787093308226,476.617144735593)
(0,0,0)
(0,0,0)
(0,0,0)
(0,0,0)
(0,0,0)
(0,0,0)
(7652.42543534548,1.04693780680348,-93.9373280626689)
(7661.98222819269,-32.0240121019724,-185.953220905248)
(7666.29871495571,-46.9794508042689,-272.458993703801)
(7712.12604806157,-99.6781406598571,-362.10890947937)
(7784.83279203499,-104.167086658208,-482.334995772475)
(7912.1208935606,-32.783788249105,-697.540165476145)
(8095.47515087602,42.2496885533226,-1010.87505483917)
(8117.51750254355,126.342957802967,-1364.38940509418)
(7346.98122687859,137.323816371629,-1261.9517314945)
(5565.3055486378,88.6163726285957,225.417184885924)
(0,0,0)
(0,0,0)
(0,0,0)
(0,0,0)
(0,0,0)
(0,0,0)
(7631.10605162888,45.4743113812509,-83.8439498770391)
(7635.18250708919,29.9609292826116,-186.560492605136)
(7648.70397609796,-12.554031158063,-272.314246073418)
(7693.00939621818,-78.0973498582115,-374.83329702419)
(7779.16102683048,-78.2360154253985,-538.117225518595)
(7894.65640503721,-15.3782904605201,-760.977279363667)
(8063.97268399006,29.0459176180273,-1061.38357013474)
(8100.37085524715,88.5057089574219,-1412.50362441969)
(7314.31250309843,135.089290733199,-1305.50032146329)
(5539.62565682481,93.9112102686684,197.425575363253)
(0,0,0)
(0,0,0)
(0,0,0)
(0,0,0)
(0,0,0)
(0,0,0)
(7527.75542039957,116.933240222206,-67.1059438605459)
(7546.15579158938,115.713640109129,-156.054990657432)
(7572.00955972628,54.4905720651443,-239.679306184098)
(7606.09996613147,-3.82855973630873,-352.452944647328)
(7677.11843009724,14.5781098848656,-526.641758622194)
(7771.41391414629,60.0011865578688,-733.154016117022)
(7915.15120705876,84.0687995106751,-1012.38932921722)
(7917.67470498693,102.166662820008,-1316.74141082725)
(7170.24727634315,153.357939619145,-1156.65292389738)
(5469.63713429226,106.696934991954,375.128465850152)
(0,0,0)
(0,0,0)
(0,0,0)
(0,0,0)
(0,0,0)
(0,0,0)
(7376.50083294685,247.684706384895,-57.1850346797821)
(7398.14452293211,247.99005042707,-125.50146395895)
(7410.10058742932,195.550797795243,-210.402869631442)
(7410.43522828584,142.906111759879,-310.893004274194)
(7460.39888278956,180.519444021295,-445.341156953438)
(7523.91860938752,247.660070014486,-623.758693574664)
(7607.67832902942,269.276059122562,-872.649890641114)
(7414.20847904653,280.300836046661,-1031.51460038212)
(6852.01765730012,261.26544259319,-776.901429361839)
(5319.72591855582,165.46697117429,796.315604194403)
(0,0,0)
(0,0,0)
(0,0,0)
(0,0,0)
(0,0,0)
(0,0,0)
(6938.46524516459,648.499890573294,-47.6281954671416)
(6959.10601589312,639.247429310409,-92.6904415007787)
(6951.5596557374,606.62266610656,-165.392138264122)
(6916.72256297661,578.581287345684,-258.503203483491)
(6924.97791978875,618.486350358593,-354.615131487669)
(6948.30717899676,705.570599227531,-469.390871895236)
(6945.3954097279,761.892895863417,-619.00898592197)
(6774.87393715704,718.535921660553,-649.555567165323)
(6341.86632657236,612.8909145487,-332.538945769438)
(5024.12358991635,418.152472943876,1235.40978512521)
(0,0,0)
(0,0,0)
(0,0,0)
(0,0,0)
(0,0,0)
(0,0,0)
(5421.64449350871,2243.22150981874,-11.5707215750369)
(5421.83571279443,2236.09313724702,-20.9071008676992)
(5396.82685905527,2240.59909624716,-67.6237806835322)
(5365.2702908992,2239.05666179258,-131.143906505769)
(5372.28750928528,2280.55081960278,-194.653745689354)
(5385.54205560461,2348.52926401821,-241.509590897901)
(5372.12860734988,2415.60375297645,-293.712667057376)
(5252.3081182413,2348.52590302627,-274.209937544984)
(4961.84545965405,2190.66303838837,-16.9705494373098)
(4051.65560559174,1768.35458665956,1330.61263172171)
(0,0,0)
(0,0,0)
(0,0,0)
(0,0,0)
(0,0,0)
(0,0,0)
(0,0,0)
(0,0,0)
(0,0,0)
(0,0,0)
(0,0,0)
(0,0,0)
(0,0,0)
(0,0,0)
(0,0,0)
(0,0,0)
(0,0,0)
(0,0,0)
(0,0,0)
(0,0,0)
(0,0,0)
(0,0,0)
(0,0,0)
(0,0,0)
(0,0,0)
(0,0,0)
(0,0,0)
(0,0,0)
(0,0,0)
(0,0,0)
(0,0,0)
(0,0,0)
(0,0,0)
(0,0,0)
(0,0,0)
(0,0,0)
(0,0,0)
(0,0,0)
(0,0,0)
(0,0,0)
(0,0,0)
(0,0,0)
(0,0,0)
(0,0,0)
(0,0,0)
(0,0,0)
(0,0,0)
(0,0,0)
(0,0,0)
(0,0,0)
(0,0,0)
(0,0,0)
(0,0,0)
(0,0,0)
(0,0,0)
(0,0,0)
(0,0,0)
(0,0,0)
(0,0,0)
(0,0,0)
(0,0,0)
(0,0,0)
(0,0,0)
(0,0,0)
(0,0,0)
(0,0,0)
(0,0,0)
(0,0,0)
(0,0,0)
(0,0,0)
(0,0,0)
(0,0,0)
(0,0,0)
(0,0,0)
(0,0,0)
(0,0,0)
(0,0,0)
(0,0,0)
(0,0,0)
(0,0,0)
(0,0,0)
(0,0,0)
(0,0,0)
(0,0,0)
(0,0,0)
(0,0,0)
(0,0,0)
(0,0,0)
(0,0,0)
(0,0,0)
(0,0,0)
(0,0,0)
(0,0,0)
(0,0,0)
(0,0,0)
(0,0,0)
(0,0,0)
(0,0,0)
(0,0,0)
(0,0,0)
(0,0,0)
(0,0,0)
(525.919888463259,-51.9903339495875,-99.1721757170671)
(433.990939322955,-33.6766867592574,-202.616752795606)
(350.363011850168,-33.4308309665029,-280.734607451923)
(283.460290465904,-43.655958811384,-316.409650174501)
(239.334929472237,-18.5675641552613,-336.464734444277)
(193.372008199469,21.4540740521889,-375.600360990328)
(156.732662064041,88.4724717318427,-501.851413234872)
(66.2938880960781,117.515177229591,-746.142841221559)
(-126.322869403019,109.67385297847,-1246.50547563429)
(-493.647334705087,46.638771487169,-2901.6510875514)
(0,0,0)
(0,0,0)
(0,0,0)
(0,0,0)
(0,0,0)
(0,0,0)
(377.397911853151,-72.1867263047697,-99.4602704037175)
(348.691262941761,-59.916992621068,-187.205309150897)
(304.490756322661,-65.8017059108882,-252.119129394574)
(262.495581208197,-69.1911868859307,-300.660592087567)
(261.8820769119,-25.4049759790949,-339.185275888222)
(275.044216381458,51.8275601298128,-406.46390548884)
(276.942934151877,180.397711894026,-551.864499821363)
(221.396974975314,248.176925775816,-833.989027276713)
(-14.4982600300633,223.420648938753,-1370.2375717967)
(-431.476825254685,101.18460271502,-3041.27350497244)
(0,0,0)
(0,0,0)
(0,0,0)
(0,0,0)
(0,0,0)
(0,0,0)
(258.812000984724,-80.8821500518604,-80.56752311094)
(268.109326325295,-73.4683318022269,-152.76345102077)
(248.234158490653,-67.7775933169628,-223.343048618372)
(255.389585303621,-56.9301435359268,-293.030516687127)
(307.186820010667,-7.66817029742836,-363.569246645829)
(370.108714280516,90.3010497557985,-471.248283220052)
(432.040767974153,278.222154766695,-681.194044111628)
(415.736796156927,411.145898422795,-1065.51199879815)
(101.672818450179,336.996088646813,-1641.56550703038)
(-382.553275191434,163.482461977653,-3334.48508915803)
(0,0,0)
(0,0,0)
(0,0,0)
(0,0,0)
(0,0,0)
(0,0,0)
(200.650141869605,-50.4626942539061,-82.0052197418304)
(214.130553019102,-62.8264204849966,-151.464306910108)
(204.060420339816,-31.6648129978207,-234.180184445818)
(241.196718442884,-16.1148286688627,-309.274695360281)
(308.933852806085,19.1586220595707,-375.728255830885)
(461.325516273822,112.584908197722,-502.882492839494)
(705.652140131044,325.530368602823,-823.073458680261)
(820.274903446803,537.975152018752,-1429.28992498918)
(268.794089441787,383.289986745258,-2032.07266628105)
(-339.540845432398,172.246359460391,-3690.62582906575)
(0,0,0)
(0,0,0)
(0,0,0)
(0,0,0)
(0,0,0)
(0,0,0)
(175.386057407388,8.78522707467129,-103.683689622552)
(187.899290574948,-14.3313339734617,-199.570984725893)
(182.184628771942,-6.08530601741443,-262.511551803146)
(235.852261704633,-7.86789669503489,-315.959843643749)
(327.866404850805,-2.16983232528262,-359.140148322122)
(546.257619733767,37.3336524540531,-439.500765015107)
(1227.77663266068,78.5489890621125,-846.296013508101)
(1937.34055824206,162.477032488468,-1812.09609594052)
(603.861539971624,173.120695326078,-2380.2822637652)
(-274.424426207916,88.5659062364862,-3978.3469818534)
(0,0,0)
(0,0,0)
(0,0,0)
(0,0,0)
(0,0,0)
(0,0,0)
(132.884559692795,87.9549421256165,-102.423369314242)
(143.239029272784,66.3398737344468,-212.626245414692)
(151.017775666705,40.9396815790638,-283.440178831742)
(208.130648721628,26.1766630707069,-354.081137412618)
(324.287425220295,11.7179999440492,-434.570514287379)
(495.510684899465,13.221809932363,-532.788097876511)
(968.846894747272,2.51592214638241,-883.104387996189)
(1737.17967297332,-8.09821253948079,-1870.81310688766)
(492.972614338925,41.25222882787,-2439.0798979047)
(-331.255542065931,26.1175917002825,-4027.22553067357)
(0,0,0)
(0,0,0)
(0,0,0)
(0,0,0)
(0,0,0)
(0,0,0)
(50.3924862478084,136.788471807923,-92.9457417966611)
(66.0873870532632,127.738586730006,-195.75119647767)
(89.8632870977159,73.5212632700195,-267.661651814963)
(136.251698343104,52.2964288974874,-345.408296086125)
(221.080598725018,47.1326389222223,-446.26024991199)
(347.772107882522,22.7523114841269,-553.624091418384)
(749.033300102735,-31.5414809971138,-874.923927519574)
(1525.23338983838,-251.708147549072,-1760.34782363207)
(291.704192728272,-102.381767885276,-2259.64588952057)
(-429.771927787817,-31.7071334982041,-3823.88724852513)
(0,0,0)
(0,0,0)
(0,0,0)
(0,0,0)
(0,0,0)
(0,0,0)
(-16.7655554786598,93.0723996006822,-84.4926856550874)
(-8.16563233057443,91.0739016364902,-162.992991538268)
(-2.78960351118588,45.0225841722949,-243.079267690806)
(2.03011571230825,19.1215090743969,-322.974381616626)
(31.6414854665204,28.1566138342299,-396.716105387963)
(106.047163094971,5.81290844706795,-483.380402310382)
(551.230209679519,-93.7934230725382,-886.155487049083)
(190.698679254452,-121.478116752042,-1314.35086426352)
(-221.393957168784,-91.3769880581881,-1773.419175762)
(-609.522980006396,-53.3934006262263,-3343.95915622107)
(0,0,0)
(0,0,0)
(0,0,0)
(0,0,0)
(0,0,0)
(0,0,0)
(-195.175612940003,-220.345902634906,-74.4159858748552)
(-195.203623446109,-217.320528522626,-133.187062659369)
(-200.779406081433,-244.124518813524,-213.176044092416)
(-239.702682886264,-268.281703670673,-290.822731670654)
(-256.78597975976,-250.786727055749,-351.59063744636)
(-272.139136682174,-209.332355156879,-437.474204420001)
(-306.436853548566,-190.870862196404,-610.039648279855)
(-375.928968414095,-271.460463939949,-830.72954178677)
(-553.341532707944,-326.859358124479,-1221.5144587039)
(-747.015019551714,-267.495300878325,-2757.74909514434)
(0,0,0)
(0,0,0)
(0,0,0)
(0,0,0)
(0,0,0)
(0,0,0)
(-500.432154868567,-1779.90288371319,-39.8415167399525)
(-512.510834039981,-1786.46712735882,-57.8235173454258)
(-527.632027275701,-1787.18161119036,-111.782684799918)
(-564.410828695434,-1806.94427698963,-164.914138159562)
(-567.315332931969,-1792.07403130779,-205.499137920908)
(-578.907644540143,-1725.39751431512,-246.459424872944)
(-614.797782891272,-1664.76445183284,-307.1145911765)
(-675.494133132275,-1767.51859497137,-404.729355034326)
(-781.962601454298,-1817.11700729871,-692.13879097011)
(-838.678576725694,-1568.61137830828,-2022.16367739941)
(0,0,0)
(0,0,0)
(0,0,0)
(0,0,0)
(0,0,0)
(0,0,0)
(0,0,0)
(0,0,0)
(0,0,0)
(0,0,0)
(0,0,0)
(0,0,0)
(0,0,0)
(0,0,0)
(0,0,0)
(0,0,0)
(0,0,0)
(0,0,0)
(0,0,0)
(0,0,0)
(0,0,0)
(0,0,0)
(0,0,0)
(0,0,0)
(0,0,0)
(0,0,0)
(0,0,0)
(0,0,0)
(0,0,0)
(0,0,0)
(0,0,0)
(0,0,0)
(0,0,0)
(0,0,0)
(0,0,0)
(0,0,0)
(0,0,0)
(0,0,0)
(0,0,0)
(0,0,0)
(0,0,0)
(0,0,0)
(0,0,0)
(0,0,0)
(0,0,0)
(0,0,0)
(0,0,0)
(0,0,0)
(0,0,0)
(0,0,0)
(0,0,0)
(0,0,0)
(0,0,0)
(0,0,0)
(0,0,0)
(0,0,0)
(0,0,0)
(0,0,0)
(0,0,0)
(0,0,0)
(0,0,0)
(0,0,0)
(0,0,0)
(0,0,0)
(0,0,0)
(0,0,0)
(0,0,0)
(0,0,0)
(0,0,0)
(0,0,0)
(0,0,0)
(0,0,0)
(0,0,0)
(0,0,0)
(0,0,0)
(0,0,0)
(0,0,0)
(0,0,0)
(0,0,0)
(0,0,0)
(0,0,0)
(0,0,0)
(0,0,0)
(0,0,0)
(0,0,0)
(0,0,0)
(0,0,0)
(0,0,0)
(0,0,0)
(0,0,0)
(0,0,0)
(0,0,0)
(0,0,0)
(0,0,0)
(0,0,0)
(0,0,0)
(0,0,0)
(0,0,0)
(0,0,0)
(0,0,0)
(0,0,0)
(0,0,0)
(544.175860285627,1.61238453604414,-19.8683563575538)
(475.8147929119,-0.796272955041764,-60.8959369916205)
(436.603584230896,4.30031757540155,-151.436826945489)
(332.222907566675,-5.30520066349328,-194.894243385145)
(232.027921294258,23.9679646692405,-211.55519987351)
(177.010957581329,73.9643633093903,-269.158512562502)
(174.592492821758,152.263129743565,-439.281473061208)
(140.372318743937,179.836652659494,-693.196556368289)
(74.5153309680866,161.040654984179,-1055.07541171632)
(-52.3231109452736,79.9848865563334,-1576.38452204575)
(0,0,0)
(0,0,0)
(0,0,0)
(0,0,0)
(0,0,0)
(0,0,0)
(425.779751636923,-30.8061625585431,-15.963292688613)
(388.857185822882,-12.8778434895512,-44.0476450392925)
(380.069038602876,4.38330097933484,-119.708910723252)
(313.46067291804,13.6449487877587,-189.624151886439)
(260.055918433878,59.0548301297358,-222.884858868647)
(248.958570422218,175.447127421064,-298.281977014094)
(258.275983178633,362.09525767738,-489.447153967324)
(248.885981906982,455.704757632553,-792.804265865281)
(148.526891291983,369.07018258019,-1163.85894478635)
(-13.3521465445316,177.944091524549,-1679.9428284919)
(0,0,0)
(0,0,0)
(0,0,0)
(0,0,0)
(0,0,0)
(0,0,0)
(290.191020104008,-40.4248050732822,-21.760376601714)
(286.824899215251,-10.8383075006907,-42.5154854842533)
(300.891231277871,18.7741855915549,-109.563442886181)
(293.977126907738,48.1632277854386,-182.669263485817)
(308.575220637676,94.0091811833415,-219.012015168861)
(338.399894282129,270.209930181544,-282.065997940377)
(403.38891311354,652.058593652696,-543.377479048376)
(441.631487261005,939.433049242606,-1053.00046176755)
(250.836662101135,629.305610632514,-1462.39973347698)
(18.6391734395021,274.601088665754,-1960.24917927139)
(0,0,0)
(0,0,0)
(0,0,0)
(0,0,0)
(0,0,0)
(0,0,0)
(187.486290288989,10.8511031801988,-38.1120566688643)
(213.668873340469,17.0256597288082,-65.5143442166641)
(240.573566884444,54.2670281295473,-137.520333296896)
(257.001547780576,81.2605234546253,-186.422458305059)
(288.994997017097,107.027084528826,-179.501505856595)
(400.257936858193,285.113187435812,-133.337183701745)
(790.467852864064,947.741896086953,-513.836198875566)
(1112.91139159784,1757.13309586144,-1624.17273364042)
(473.400598451431,810.679008626464,-2010.15264064355)
(44.3871307710478,285.660509368323,-2405.14003753901)
(0,0,0)
(0,0,0)
(0,0,0)
(0,0,0)
(0,0,0)
(0,0,0)
(165.293575351078,86.4770719600306,-65.5334867225695)
(184.19462670582,83.6192958770943,-128.422459002096)
(209.056725710139,90.2165144319271,-191.24404224141)
(255.789165316673,91.7714146589519,-221.691837056462)