/*--------------------------------*- C++ -*----------------------------------*\
| =========                 |                                                 |
| \\      /  F ield         | foam-extend: Open Source CFD                    |
|  \\    /   O peration     | Version:     4.0                                |
|   \\  /    A nd           | Web:         http://www.foam-extend.org         |
|    \\/     M anipulation  |                                                 |
\*---------------------------------------------------------------------------*/
FoamFile
{
    version 2.0;
    format ascii;
    class volVectorField;
    location "863";
    object      H;
}
// * * * * * * * * * * * * * * * * * * * * * * * * * * * * * * * * * * * * * //

dimensions      [0 1 -1 0 0 0 0];

internalField   nonuniform List<vector>
4096
(
(0,0,0)
(0,0,0)
(0,0,0)
(0,0,0)
(0,0,0)
(0,0,0)
(0,0,0)
(0,0,0)
(0,0,0)
(0,0,0)
(0,0,0)
(0,0,0)
(0,0,0)
(0,0,0)
(0,0,0)
(0,0,0)
(0,0,0)
(0,0,0)
(0,0,0)
(0,0,0)
(0,0,0)
(0,0,0)
(0,0,0)
(0,0,0)
(0,0,0)
(0,0,0)
(0,0,0)
(0,0,0)
(0,0,0)
(0,0,0)
(0,0,0)
(0,0,0)
(0,0,0)
(0,0,0)
(0,0,0)
(0,0,0)
(0,0,0)
(0,0,0)
(0,0,0)
(0,0,0)
(0,0,0)
(0,0,0)
(0,0,0)
(0,0,0)
(0,0,0)
(0,0,0)
(0,0,0)
(0,0,0)
(0,0,0)
(0,0,0)
(0,0,0)
(0,0,0)
(0,0,0)
(0,0,0)
(0,0,0)
(0,0,0)
(0,0,0)
(0,0,0)
(0,0,0)
(0,0,0)
(0,0,0)
(0,0,0)
(0,0,0)
(0,0,0)
(0,0,0)
(0,0,0)
(0,0,0)
(0,0,0)
(0,0,0)
(0,0,0)
(0,0,0)
(0,0,0)
(0,0,0)
(0,0,0)
(0,0,0)
(0,0,0)
(0,0,0)
(0,0,0)
(0,0,0)
(0,0,0)
(0,0,0)
(0,0,0)
(0,0,0)
(0,0,0)
(0,0,0)
(0,0,0)
(0,0,0)
(0,0,0)
(0,0,0)
(0,0,0)
(0,0,0)
(0,0,0)
(0,0,0)
(0,0,0)
(0,0,0)
(0,0,0)
(0,0,0)
(0,0,0)
(0,0,0)
(0,0,0)
(0,0,0)
(0,0,0)
(0,0,0)
(0,0,0)
(0,0,0)
(0,0,0)
(0,0,0)
(0,0,0)
(0,0,0)
(0,0,0)
(0,0,0)
(0,0,0)
(0,0,0)
(0,0,0)
(0,0,0)
(0,0,0)
(0,0,0)
(0,0,0)
(0,0,0)
(0,0,0)
(0,0,0)
(0,0,0)
(0,0,0)
(0,0,0)
(0,0,0)
(0,0,0)
(0,0,0)
(0,0,0)
(0,0,0)
(0,0,0)
(0,0,0)
(0,0,0)
(0,0,0)
(0,0,0)
(0,0,0)
(0,0,0)
(0,0,0)
(0,0,0)
(0,0,0)
(0,0,0)
(0,0,0)
(0,0,0)
(0,0,0)
(0,0,0)
(0,0,0)
(0,0,0)
(0,0,0)
(0,0,0)
(0,0,0)
(0,0,0)
(0,0,0)
(0,0,0)
(0,0,0)
(0,0,0)
(0,0,0)
(0,0,0)
(0,0,0)
(0,0,0)
(0,0,0)
(0,0,0)
(0,0,0)
(0,0,0)
(0,0,0)
(0,0,0)
(0,0,0)
(0,0,0)
(0,0,0)
(0,0,0)
(0,0,0)
(0,0,0)
(0,0,0)
(0,0,0)
(0,0,0)
(0,0,0)
(0,0,0)
(0,0,0)
(0,0,0)
(0,0,0)
(0,0,0)
(0,0,0)
(0,0,0)
(0,0,0)
(0,0,0)
(0,0,0)
(0,0,0)
(0,0,0)
(0,0,0)
(0,0,0)
(0,0,0)
(0,0,0)
(0,0,0)
(0,0,0)
(0,0,0)
(0,0,0)
(0,0,0)
(0,0,0)
(0,0,0)
(0,0,0)
(0,0,0)
(0,0,0)
(0,0,0)
(0,0,0)
(0,0,0)
(0,0,0)
(0,0,0)
(0,0,0)
(0,0,0)
(0,0,0)
(0,0,0)
(0,0,0)
(0,0,0)
(0,0,0)
(0,0,0)
(0,0,0)
(0,0,0)
(0,0,0)
(0,0,0)
(0,0,0)
(0,0,0)
(0,0,0)
(0,0,0)
(0,0,0)
(0,0,0)
(0,0,0)
(0,0,0)
(0,0,0)
(0,0,0)
(0,0,0)
(0,0,0)
(0,0,0)
(0,0,0)
(0,0,0)
(0,0,0)
(0,0,0)
(0,0,0)
(0,0,0)
(0,0,0)
(0,0,0)
(0,0,0)
(0,0,0)
(0,0,0)
(0,0,0)
(0,0,0)
(0,0,0)
(0,0,0)
(0,0,0)
(0,0,0)
(0,0,0)
(0,0,0)
(0,0,0)
(0,0,0)
(0,0,0)
(0,0,0)
(0,0,0)
(0,0,0)
(0,0,0)
(0,0,0)
(0,0,0)
(0,0,0)
(0,0,0)
(0,0,0)
(0,0,0)
(0,0,0)
(0,0,0)
(0,0,0)
(0,0,0)
(0,0,0)
(0,0,0)
(0,0,0)
(0,0,0)
(0,0,0)
(0,0,0)
(0,0,0)
(0,0,0)
(0,0,0)
(0,0,0)
(0,0,0)
(0,0,0)
(0,0,0)
(0,0,0)
(0,0,0)
(0,0,0)
(0,0,0)
(0,0,0)
(0,0,0)
(0,0,0)
(0,0,0)
(0,0,0)
(0,0,0)
(0,0,0)
(0,0,0)
(0,0,0)
(0,0,0)
(0,0,0)
(0,0,0)
(0,0,0)
(0,0,0)
(0,0,0)
(0,0,0)
(0,0,0)
(0,0,0)
(0,0,0)
(0,0,0)
(0,0,0)
(0,0,0)
(0,0,0)
(0,0,0)
(0,0,0)
(0,0,0)
(0,0,0)
(0,0,0)
(0,0,0)
(0,0,0)
(0,0,0)
(0,0,0)
(0,0,0)
(0,0,0)
(0,0,0)
(0,0,0)
(0,0,0)
(0,0,0)
(0,0,0)
(0,0,0)
(0,0,0)
(0,0,0)
(0,0,0)
(0,0,0)
(0,0,0)
(0,0,0)
(0,0,0)
(0,0,0)
(0,0,0)
(0,0,0)
(0,0,0)
(0,0,0)
(0,0,0)
(0,0,0)
(0,0,0)
(0,0,0)
(0,0,0)
(0,0,0)
(0,0,0)
(0,0,0)
(0,0,0)
(0,0,0)
(0,0,0)
(0,0,0)
(0,0,0)
(0,0,0)
(0,0,0)
(0,0,0)
(0,0,0)
(0,0,0)
(0,0,0)
(0,0,0)
(0,0,0)
(0,0,0)
(0,0,0)
(0,0,0)
(0,0,0)
(0,0,0)
(0,0,0)
(0,0,0)
(0,0,0)
(0,0,0)
(0,0,0)
(0,0,0)
(0,0,0)
(0,0,0)
(0,0,0)
(0,0,0)
(0,0,0)
(0,0,0)
(0,0,0)
(0,0,0)
(0,0,0)
(0,0,0)
(0,0,0)
(0,0,0)
(0,0,0)
(0,0,0)
(0,0,0)
(0,0,0)
(0,0,0)
(0,0,0)
(0,0,0)
(0,0,0)
(0,0,0)
(0,0,0)
(0,0,0)
(0,0,0)
(0,0,0)
(0,0,0)
(0,0,0)
(0,0,0)
(0,0,0)
(0,0,0)
(0,0,0)
(0,0,0)
(0,0,0)
(0,0,0)
(0,0,0)
(0,0,0)
(0,0,0)
(0,0,0)
(0,0,0)
(0,0,0)
(0,0,0)
(0,0,0)
(0,0,0)
(0,0,0)
(0,0,0)
(0,0,0)
(0,0,0)
(0,0,0)
(0,0,0)
(0,0,0)
(0,0,0)
(0,0,0)
(0,0,0)
(0,0,0)
(0,0,0)
(0,0,0)
(0,0,0)
(0,0,0)
(0,0,0)
(0,0,0)
(0,0,0)
(0,0,0)
(0,0,0)
(0,0,0)
(0,0,0)
(0,0,0)
(0,0,0)
(0,0,0)
(0,0,0)
(0,0,0)
(0,0,0)
(0,0,0)
(0,0,0)
(0,0,0)
(0,0,0)
(0,0,0)
(0,0,0)
(0,0,0)
(0,0,0)
(0,0,0)
(0,0,0)
(0,0,0)
(0,0,0)
(0,0,0)
(0,0,0)
(0,0,0)
(0,0,0)
(0,0,0)
(0,0,0)
(0,0,0)
(0,0,0)
(0,0,0)
(0,0,0)
(0,0,0)
(0,0,0)
(0,0,0)
(0,0,0)
(0,0,0)
(0,0,0)
(0,0,0)
(0,0,0)
(0,0,0)
(0,0,0)
(0,0,0)
(0,0,0)
(0,0,0)
(0,0,0)
(0,0,0)
(0,0,0)
(0,0,0)
(0,0,0)
(0,0,0)
(0,0,0)
(0,0,0)
(0,0,0)
(0,0,0)
(0,0,0)
(0,0,0)
(0,0,0)
(0,0,0)
(0,0,0)
(0,0,0)
(0,0,0)
(0,0,0)
(0,0,0)
(0,0,0)
(0,0,0)
(0,0,0)
(0,0,0)
(0,0,0)
(0,0,0)
(0,0,0)
(0,0,0)
(0,0,0)
(0,0,0)
(0,0,0)
(0,0,0)
(0,0,0)
(0,0,0)
(0,0,0)
(0,0,0)
(0,0,0)
(0,0,0)
(0,0,0)
(0,0,0)
(0,0,0)
(0,0,0)
(0,0,0)
(0,0,0)
(0,0,0)
(0,0,0)
(0,0,0)
(0,0,0)
(0,0,0)
(0,0,0)
(0,0,0)
(0,0,0)
(0,0,0)
(0,0,0)
(0,0,0)
(0,0,0)
(0,0,0)
(0,0,0)
(0,0,0)
(0,0,0)
(0,0,0)
(0,0,0)
(0,0,0)
(0,0,0)
(0,0,0)
(0,0,0)
(0,0,0)
(0,0,0)
(0,0,0)
(0,0,0)
(0,0,0)
(0,0,0)
(0,0,0)
(0,0,0)
(0,0,0)
(0,0,0)
(0,0,0)
(0,0,0)
(0,0,0)
(0,0,0)
(0,0,0)
(0,0,0)
(0,0,0)
(0,0,0)
(0,0,0)
(0,0,0)
(0,0,0)
(0,0,0)
(0,0,0)
(0,0,0)
(0,0,0)
(0,0,0)
(0,0,0)
(0,0,0)
(0,0,0)
(0,0,0)
(0,0,0)
(0,0,0)
(0,0,0)
(0,0,0)
(0,0,0)
(0,0,0)
(0,0,0)
(0,0,0)
(0,0,0)
(0,0,0)
(0,0,0)
(0,0,0)
(0,0,0)
(0,0,0)
(0,0,0)
(0,0,0)
(0,0,0)
(0,0,0)
(0,0,0)
(0,0,0)
(0,0,0)
(0,0,0)
(0,0,0)
(0,0,0)
(0,0,0)
(0,0,0)
(0,0,0)
(0,0,0)
(0,0,0)
(0,0,0)
(0,0,0)
(0,0,0)
(0,0,0)
(0,0,0)
(0,0,0)
(0,0,0)
(0,0,0)
(0,0,0)
(0,0,0)
(0,0,0)
(0,0,0)
(0,0,0)
(0,0,0)
(0,0,0)
(0,0,0)
(0,0,0)
(0,0,0)
(0,0,0)
(0,0,0)
(0,0,0)
(0,0,0)
(0,0,0)
(0,0,0)
(0,0,0)
(0,0,0)
(0,0,0)
(0,0,0)
(0,0,0)
(0,0,0)
(0,0,0)
(0,0,0)
(0,0,0)
(0,0,0)
(0,0,0)
(0,0,0)
(0,0,0)
(0,0,0)
(0,0,0)
(0,0,0)
(0,0,0)
(0,0,0)
(0,0,0)
(0,0,0)
(0,0,0)
(0,0,0)
(0,0,0)
(0,0,0)
(0,0,0)
(0,0,0)
(0,0,0)
(0,0,0)
(0,0,0)
(0,0,0)
(0,0,0)
(0,0,0)
(0,0,0)
(0,0,0)
(0,0,0)
(0,0,0)
(0,0,0)
(0,0,0)
(0,0,0)
(0,0,0)
(0,0,0)
(0,0,0)
(0,0,0)
(0,0,0)
(0,0,0)
(0,0,0)
(0,0,0)
(0,0,0)
(0,0,0)
(0,0,0)
(0,0,0)
(0,0,0)
(0,0,0)
(0,0,0)
(0,0,0)
(0,0,0)
(0,0,0)
(0,0,0)
(0,0,0)
(0,0,0)
(0,0,0)
(0,0,0)
(0,0,0)
(0,0,0)
(0,0,0)
(0,0,0)
(0,0,0)
(0,0,0)
(0,0,0)
(0,0,0)
(0,0,0)
(0,0,0)
(0,0,0)
(0,0,0)
(0,0,0)
(0,0,0)
(0,0,0)
(0,0,0)
(0,0,0)
(0,0,0)
(0,0,0)
(0,0,0)
(0,0,0)
(0,0,0)
(0,0,0)
(0,0,0)
(0,0,0)
(0,0,0)
(0,0,0)
(0,0,0)
(0,0,0)
(0,0,0)
(0,0,0)
(0,0,0)
(0,0,0)
(0,0,0)
(0,0,0)
(0,0,0)
(0,0,0)
(0,0,0)
(0,0,0)
(0,0,0)
(0,0,0)
(0,0,0)
(0,0,0)
(0,0,0)
(0,0,0)
(0,0,0)
(0,0,0)
(0,0,0)
(0,0,0)
(0,0,0)
(0,0,0)
(0,0,0)
(0,0,0)
(0,0,0)
(0,0,0)
(0,0,0)
(0,0,0)
(0,0,0)
(0,0,0)
(0,0,0)
(0,0,0)
(0,0,0)
(0,0,0)
(0,0,0)
(0,0,0)
(0,0,0)
(0,0,0)
(0,0,0)
(0,0,0)
(0,0,0)
(0,0,0)
(0,0,0)
(0,0,0)
(0,0,0)
(0,0,0)
(0,0,0)
(0,0,0)
(0,0,0)
(0,0,0)
(0,0,0)
(0,0,0)
(0,0,0)
(0,0,0)
(0,0,0)
(0,0,0)
(0,0,0)
(0,0,0)
(0,0,0)
(0,0,0)
(0,0,0)
(0,0,0)
(0,0,0)
(0,0,0)
(0,0,0)
(0,0,0)
(0,0,0)
(0,0,0)
(0,0,0)
(0,0,0)
(0,0,0)
(0,0,0)
(0,0,0)
(0,0,0)
(0,0,0)
(0,0,0)
(0,0,0)
(0,0,0)
(0,0,0)
(0,0,0)
(0,0,0)
(0,0,0)
(0,0,0)
(0,0,0)
(0,0,0)
(0,0,0)
(0,0,0)
(0,0,0)
(0,0,0)
(0,0,0)
(0,0,0)
(0,0,0)
(0,0,0)
(0,0,0)
(0,0,0)
(0,0,0)
(0,0,0)
(0,0,0)
(0,0,0)
(0,0,0)
(0,0,0)
(0,0,0)
(0,0,0)
(0,0,0)
(0,0,0)
(0,0,0)
(0,0,0)
(-1.32905487914624e-12,-1.03603246822533e-11,1.29153738696357e-11)
(-2.79984849396403e-12,-2.25945196188664e-11,1.24097471838983e-11)
(-3.59339704103331e-12,-4.06879310327728e-11,1.10384711620173e-11)
(-2.37342470795142e-12,-6.66824942763708e-11,9.05385264672515e-12)
(-1.08319689155441e-12,-1.04631286655879e-10,6.99154989546118e-12)
(-5.52718749485592e-14,-1.65716626148791e-10,4.67806763626721e-12)
(1.01484693335157e-12,-2.64895125442369e-10,2.69441671637446e-12)
(8.37126896782997e-13,-4.29420238988104e-10,1.75700712632182e-12)
(5.53521361789294e-13,-6.9914866298653e-10,1.02424724312998e-12)
(-1.71073137100072e-13,-1.07313707898309e-09,5.02173515609347e-13)
(0,0,0)
(0,0,0)
(0,0,0)
(0,0,0)
(0,0,0)
(0,0,0)
(-2.74670337037287e-12,-1.0102125874074e-11,2.82450864586925e-11)
(-4.49348458940317e-12,-2.21818153083339e-11,2.69002773324871e-11)
(-5.37877611114231e-12,-3.97375267291298e-11,2.48402682620561e-11)
(-3.69368093166621e-12,-6.50337713000999e-11,2.16685378556163e-11)
(-2.40056323220845e-12,-1.02888987367708e-10,1.75977769141016e-11)
(-1.3305356959574e-12,-1.64174150042795e-10,1.27293100223421e-11)
(-3.51063293871975e-13,-2.64250647088758e-10,8.27152730101472e-12)
(-2.45322491345219e-13,-4.29192848485646e-10,5.5051812723375e-12)
(1.78370863642807e-13,-6.99350657460313e-10,3.64002228100419e-12)
(-3.01074505040708e-13,-1.07385987563792e-09,2.01654494591094e-12)
(0,0,0)
(0,0,0)
(0,0,0)
(0,0,0)
(0,0,0)
(0,0,0)
(-3.63024535209477e-12,-9.26319803882326e-12,4.79413948066776e-11)
(-5.15352372230034e-12,-2.10853303090194e-11,4.62026676482952e-11)
(-6.04514764287288e-12,-3.75278382706875e-11,4.35704037364519e-11)
(-4.84363298423817e-12,-6.14250250862926e-11,3.88234675247908e-11)
(-4.49818886379737e-12,-9.8559400040122e-11,3.24208179218646e-11)
(-4.41408133699585e-12,-1.59944081551536e-10,2.53066300238924e-11)
(-3.26395212546673e-12,-2.61544434268587e-10,1.82472848309363e-11)
(-1.79208280039306e-12,-4.27777247495368e-10,1.28402445101214e-11)
(-1.19239909505128e-12,-6.98136270887638e-10,8.85034766829546e-12)
(-2.30448597379368e-12,-1.0726026769107e-09,4.77810293704233e-12)
(0,0,0)
(0,0,0)
(0,0,0)
(0,0,0)
(0,0,0)
(0,0,0)
(-4.71762214870812e-12,-8.26490273033842e-12,7.55120702980823e-11)
(-6.3112183732694e-12,-1.91771889941782e-11,7.35546274717804e-11)
(-7.18126985898447e-12,-3.33767376172053e-11,6.98983557119176e-11)
(-5.79158686856571e-12,-5.50798505481411e-11,6.41410966558735e-11)
(-6.28901045724144e-12,-9.1032588610849e-11,5.70296789155255e-11)
(-7.30502960723662e-12,-1.52123614338942e-10,4.83132041353048e-11)
(-5.92802785102214e-12,-2.55456903101092e-10,3.88613334836134e-11)
(-4.22984596014043e-12,-4.24223542145817e-10,3.02436230943168e-11)
(-4.13364431256584e-12,-6.94754759640351e-10,2.12806040102662e-11)
(-6.28980642004413e-12,-1.06869868904849e-09,1.09771378688612e-11)
(0,0,0)
(0,0,0)
(0,0,0)
(0,0,0)
(0,0,0)
(0,0,0)
(-5.39164239075469e-12,-6.93686855842107e-12,1.14733515630812e-10)
(-7.63233444836269e-12,-1.62153716195335e-11,1.12701777723576e-10)
(-8.81816344538228e-12,-2.78994813271151e-11,1.09041453092518e-10)
(-7.69552734073397e-12,-4.70260479801703e-11,1.03876042537724e-10)
(-8.23686690931024e-12,-8.0591389798812e-11,9.70708459180319e-11)
(-8.9095142414943e-12,-1.40487363295434e-10,8.7851246906575e-11)
(-7.684806440003e-12,-2.45186497721006e-10,7.71029252546499e-11)
(-7.48357610216564e-12,-4.16412595970785e-10,6.23870377194022e-11)
(-8.13615662160376e-12,-6.86488118444959e-10,4.43171074902192e-11)
(-1.01107777784626e-11,-1.05990350872144e-09,2.30594097846587e-11)
(0,0,0)
(0,0,0)
(0,0,0)
(0,0,0)
(0,0,0)
(0,0,0)
(-5.49605441779117e-12,-5.60014237607202e-12,1.74033058147775e-10)
(-8.40490607705907e-12,-1.32320335990541e-11,1.72399845287704e-10)
(-9.72150642181322e-12,-2.28439190908315e-11,1.68822117753598e-10)
(-9.4111076824193e-12,-3.89412276498838e-11,1.64078227698924e-10)
(-9.42579013994883e-12,-6.914618452353e-11,1.57848156507936e-10)
(-9.7677939884059e-12,-1.27121860435854e-10,1.48549494693971e-10)
(-9.17558978416237e-12,-2.32200719074784e-10,1.34323393339689e-10)
(-9.91169741810903e-12,-4.01265355009399e-10,1.12119477173102e-10)
(-1.16812033499194e-11,-6.67938831431723e-10,8.16078645225981e-11)
(-1.32226894861104e-11,-1.03887798741853e-09,4.33231564858244e-11)
(0,0,0)
(0,0,0)
(0,0,0)
(0,0,0)
(0,0,0)
(0,0,0)
(-5.81226966008453e-12,-4.2921908934883e-12,2.6818821759742e-10)
(-9.59457744722557e-12,-1.01357153160601e-11,2.66666466959963e-10)
(-1.10698888020287e-11,-1.81435987304042e-11,2.63343223369734e-10)
(-1.1377562090271e-11,-3.18420297184258e-11,2.59172911371438e-10)
(-1.1204215197612e-11,-5.82268488149682e-11,2.53603274123473e-10)
(-1.0752599805342e-11,-1.11329993030517e-10,2.43600579418451e-10)
(-1.14130767488584e-11,-2.11858009536016e-10,2.24081490520671e-10)
(-1.29278674647971e-11,-3.73619755286978e-10,1.93063219350476e-10)
(-1.56232858743258e-11,-6.32235676090664e-10,1.44249303825425e-10)
(-1.70896113122822e-11,-9.97542244295884e-10,7.84757299776441e-11)
(0,0,0)
(0,0,0)
(0,0,0)
(0,0,0)
(0,0,0)
(0,0,0)
(-6.76640179972978e-12,-3.31822242571315e-12,4.27842460517703e-10)
(-1.15343776207307e-11,-7.7816080334524e-12,4.26115227503993e-10)
(-1.41078305381927e-11,-1.43432404444567e-11,4.22818386377537e-10)
(-1.40324025492662e-11,-2.616454843908e-11,4.18447666600344e-10)
(-1.32699928993386e-11,-4.9258645500585e-11,4.12171087288121e-10)
(-1.25899072488574e-11,-9.57553872152865e-11,3.99741737763421e-10)
(-1.37624843028954e-11,-1.82420767623354e-10,3.74847588200008e-10)
(-1.57717225809191e-11,-3.26184059349396e-10,3.29265643110178e-10)
(-1.79886873309261e-11,-5.67876881888368e-10,2.54466130314958e-10)
(-1.87246581264543e-11,-9.20719470064904e-10,1.44274596129918e-10)
(0,0,0)
(0,0,0)
(0,0,0)
(0,0,0)
(0,0,0)
(0,0,0)
(-8.20563680770913e-12,-2.48618612667154e-12,6.93625526867899e-10)
(-1.28374226253104e-11,-5.75204833537045e-12,6.9182978953205e-10)
(-1.57936085807466e-11,-1.05350829834128e-11,6.88475746494811e-10)
(-1.59191335416365e-11,-1.95340644058618e-11,6.83318343173122e-10)
(-1.50315605410494e-11,-3.7189863149427e-11,6.75164323395483e-10)
(-1.33189357348708e-11,-7.23704287039747e-11,6.59195452741166e-10)
(-1.27491305823906e-11,-1.371929584524e-10,6.27322450476229e-10)
(-1.49946500031983e-11,-2.51691233032458e-10,5.66636265468186e-10)
(-1.74727688218766e-11,-4.58104438752216e-10,4.58202378820421e-10)
(-1.82804282065448e-11,-7.77321650031903e-10,2.75416272259767e-10)
(0,0,0)
(0,0,0)
(0,0,0)
(0,0,0)
(0,0,0)
(0,0,0)
(-8.32765484042012e-12,-1.40188811993808e-12,1.06607425475164e-09)
(-1.28892798889461e-11,-3.07757062297334e-12,1.06392804201055e-09)
(-1.60320305279162e-11,-5.47675940385366e-12,1.06037519668456e-09)
(-1.69631819691775e-11,-1.03097305244522e-11,1.05468417939176e-09)
(-1.58157930974334e-11,-2.0042920805155e-11,1.04523073211801e-09)
(-1.26479822272786e-11,-3.95318679776334e-11,1.02690863350354e-09)
(-1.12002474330065e-11,-7.52312058783055e-11,9.89582094206839e-10)
(-1.35531104316849e-11,-1.42482522795584e-10,9.16569037674937e-10)
(-1.65271427286873e-11,-2.74923645945012e-10,7.75535933161806e-10)
(-1.77213070179036e-11,-5.0202050589269e-10,5.01610060631354e-10)
(0,0,0)
(0,0,0)
(0,0,0)
(0,0,0)
(0,0,0)
(0,0,0)
(0,0,0)
(0,0,0)
(0,0,0)
(0,0,0)
(0,0,0)
(0,0,0)
(0,0,0)
(0,0,0)
(0,0,0)
(0,0,0)
(0,0,0)
(0,0,0)
(0,0,0)
(0,0,0)
(0,0,0)
(0,0,0)
(0,0,0)
(0,0,0)
(0,0,0)
(0,0,0)
(0,0,0)
(0,0,0)
(0,0,0)
(0,0,0)
(0,0,0)
(0,0,0)
(0,0,0)
(0,0,0)
(0,0,0)
(0,0,0)
(0,0,0)
(0,0,0)
(0,0,0)
(0,0,0)
(0,0,0)
(0,0,0)
(0,0,0)
(0,0,0)
(0,0,0)
(0,0,0)
(0,0,0)
(0,0,0)
(0,0,0)
(0,0,0)
(0,0,0)
(0,0,0)
(0,0,0)
(0,0,0)
(0,0,0)
(0,0,0)
(0,0,0)
(0,0,0)
(0,0,0)
(0,0,0)
(0,0,0)
(0,0,0)
(0,0,0)
(0,0,0)
(0,0,0)
(0,0,0)
(0,0,0)
(0,0,0)
(0,0,0)
(0,0,0)
(0,0,0)
(0,0,0)
(0,0,0)
(0,0,0)
(0,0,0)
(0,0,0)
(0,0,0)
(0,0,0)
(0,0,0)
(0,0,0)
(0,0,0)
(0,0,0)
(0,0,0)
(0,0,0)
(0,0,0)
(0,0,0)
(0,0,0)
(0,0,0)
(0,0,0)
(0,0,0)
(0,0,0)
(0,0,0)
(0,0,0)
(0,0,0)
(0,0,0)
(0,0,0)
(0,0,0)
(0,0,0)
(0,0,0)
(0,0,0)
(0,0,0)
(0,0,0)
(-1.0816270015845e-12,-2.0392945453052e-11,2.50092750953053e-11)
(-1.84127678261916e-12,-4.38295958726299e-11,2.33372799350417e-11)
(-2.55918282938467e-12,-7.64398315809317e-11,2.07350984348578e-11)
(-1.95984493297142e-12,-1.22967736500983e-10,1.69681017438536e-11)
(-5.1201392053385e-13,-1.91021682862692e-10,1.24303974601563e-11)
(3.85902939012628e-13,-2.96631266739937e-10,7.51312323001141e-12)
(1.30777816988853e-12,-4.64556252057651e-10,3.03401429670694e-12)
(1.34249627729129e-12,-7.49587709959619e-10,9.1683847614127e-13)
(1.27758956298131e-12,-1.28840514957072e-09,1.82387159597114e-14)
(1.05389703280346e-12,-2.51751563407275e-09,-4.02513501709925e-14)
(0,0,0)
(0,0,0)
(0,0,0)
(0,0,0)
(0,0,0)
(0,0,0)
(-2.2408220794186e-12,-1.92202517818135e-11,5.31304188704675e-11)
(-3.52996051828215e-12,-4.23246897700327e-11,5.03379761117572e-11)
(-4.41673416313901e-12,-7.42311785685705e-11,4.5987509611261e-11)
(-3.23166620396372e-12,-1.19564963906375e-10,3.92290701185935e-11)
(-1.86168366802673e-12,-1.86936643504129e-10,3.02450497482493e-11)
(-1.10282146587122e-12,-2.93096931144673e-10,1.96715919751271e-11)
(-2.90930085381244e-13,-4.63373314967358e-10,9.6848249215445e-12)
(2.04235509801259e-13,-7.49653085568792e-10,4.60680290033124e-12)
(5.87461626458809e-13,-1.28907599914078e-09,2.53355734386156e-12)
(4.58271713877168e-13,-2.51848582779661e-09,1.59277513130437e-12)
(0,0,0)
(0,0,0)
(0,0,0)
(0,0,0)
(0,0,0)
(0,0,0)
(-2.88981350219596e-12,-1.74297157129971e-11,8.9299099324771e-11)
(-4.42940112529759e-12,-3.94116125343629e-11,8.58911508422335e-11)
(-5.44931208468633e-12,-6.89823626789696e-11,8.0046733858253e-11)
(-4.78615791946378e-12,-1.11445928409524e-10,7.02175079063938e-11)
(-4.91081239514732e-12,-1.7697592126234e-10,5.66330001523426e-11)
(-5.1752033566815e-12,-2.83844413299442e-10,4.02195755507478e-11)
(-3.94444297220371e-12,-4.59234531022792e-10,2.36953666864136e-11)
(-1.3558913081211e-12,-7.49507630423253e-10,1.54242236376953e-11)
(-5.01665611229129e-13,-1.28955512966974e-09,1.11793124501438e-11)
(-1.43037089908754e-12,-2.51821469892697e-09,6.61884938165126e-12)
(0,0,0)
(0,0,0)
(0,0,0)
(0,0,0)
(0,0,0)
(0,0,0)
(-4.08821349432441e-12,-1.52933593421225e-11,1.39351308535551e-10)
(-5.61676398805123e-12,-3.50930769851473e-11,1.35190802754117e-10)
(-6.90126709303679e-12,-6.02419772198048e-11,1.27419251199959e-10)
(-6.73397169618537e-12,-9.80735136879659e-11,1.15777515474863e-10)
(-8.0137344890658e-12,-1.60135819085094e-10,1.00325395141223e-10)
(-9.48940999903001e-12,-2.66192280460543e-10,7.98311100119182e-11)
(-7.58072284186422e-12,-4.49155393202708e-10,5.75967324054077e-11)
(-3.0777730511956e-12,-7.47709641540031e-10,4.44305330288254e-11)
(-2.09681936635262e-12,-1.28777136509869e-09,3.25957370089317e-11)
(-4.1078488781914e-12,-2.51419628884477e-09,1.77663350170705e-11)
(0,0,0)
(0,0,0)
(0,0,0)
(0,0,0)
(0,0,0)
(0,0,0)
(-4.69663066586865e-12,-1.25012673492232e-11,2.08862301845976e-10)
(-6.95534783778709e-12,-2.92005067334998e-11,2.04985745355507e-10)
(-8.70831512687571e-12,-4.96918768880711e-11,1.97545030681911e-10)
(-8.97515105132306e-12,-8.16040873938159e-11,1.86823287216692e-10)
(-1.04624731731126e-11,-1.36612539488282e-10,1.72508724933745e-10)
(-1.15266954491923e-11,-2.37467748721919e-10,1.54706709898202e-10)
(-5.95469755092391e-12,-4.25756291549196e-10,1.38472654943498e-10)
(-4.56088683430305e-12,-7.387062888075e-10,1.08274127889753e-10)
(-5.4277459292133e-12,-1.27779713140447e-09,7.61800808076175e-11)
(-8.07688929699102e-12,-2.50147805573427e-09,4.00293940845256e-11)
(0,0,0)
(0,0,0)
(0,0,0)
(0,0,0)
(0,0,0)
(0,0,0)
(-5.1707930403042e-12,-9.81214107013075e-12,3.10716929368833e-10)
(-7.92349682594682e-12,-2.32006630787558e-11,3.07819760420167e-10)
(-9.67793672756621e-12,-3.92170486075755e-11,3.01314430645362e-10)
(-1.02802344228918e-11,-6.45376877525601e-11,2.921565247031e-10)
(-1.10464640345417e-11,-1.11947297273694e-10,2.80284602719388e-10)
(-1.13335600394576e-11,-2.08812526475649e-10,2.64390844690835e-10)
(-7.31438315635734e-12,-4.05692643504593e-10,2.42524115049412e-10)
(-7.04568449003005e-12,-7.15716445588327e-10,2.01251990144485e-10)
(-9.09965065416616e-12,-1.24810300148718e-09,1.44715697119216e-10)
(-1.1235276122639e-11,-2.466819828434e-09,7.63397269379911e-11)
(0,0,0)
(0,0,0)
(0,0,0)
(0,0,0)
(0,0,0)
(0,0,0)
(-5.26448749040213e-12,-7.42640640051122e-12,4.70892393419423e-10)
(-8.62544113960562e-12,-1.7275867368879e-11,4.68298091327163e-10)
(-1.06999350896806e-11,-2.95465783264522e-11,4.62730266782639e-10)
(-1.14854061216522e-11,-4.97999323611517e-11,4.55739383121221e-10)
(-1.01697238069684e-11,-8.93386267907443e-11,4.47494266311934e-10)
(-6.80811672277222e-12,-1.75852801005695e-10,4.33519951426677e-10)
(-9.832047491363e-12,-3.70557694520259e-10,3.96377233877289e-10)
(-1.15496478772836e-11,-6.66923234838732e-10,3.46550527431916e-10)
(-1.4208506229144e-11,-1.18501247919245e-09,2.56063527847757e-10)
(-1.54366555652279e-11,-2.39440503901771e-09,1.37998143652173e-10)
(0,0,0)
(0,0,0)
(0,0,0)
(0,0,0)
(0,0,0)
(0,0,0)
(-5.87120508506194e-12,-5.19933227251948e-12,7.4675555251324e-10)
(-1.0267096192356e-11,-1.23567310978553e-11,7.44132431135817e-10)
(-1.35452682220418e-11,-2.21811247728871e-11,7.38993251838958e-10)
(-1.43863072702621e-11,-4.02642558512423e-11,7.3224595572719e-10)
(-1.2909425725814e-11,-7.71268610004937e-11,7.23844672280971e-10)
(-1.10807161967482e-11,-1.56845252842246e-10,7.07480336300828e-10)
(-1.3408348384022e-11,-3.21094124359225e-10,6.67732402715387e-10)
(-1.54650361027328e-11,-5.78631694823137e-10,5.85844659221196e-10)
(-1.75695962819204e-11,-1.06940752489881e-09,4.51151020973998e-10)
(-1.78478820299599e-11,-2.25883275509764e-09,2.56630047865108e-10)
(0,0,0)
(0,0,0)
(0,0,0)
(0,0,0)
(0,0,0)
(0,0,0)
(-7.49419747859348e-12,-3.36932510637565e-12,1.27845705999713e-09)
(-1.21578573004671e-11,-8.39393862636219e-12,1.27547347877761e-09)
(-1.56945288386159e-11,-1.56890975030961e-11,1.27013185172773e-09)
(-1.69894476454048e-11,-3.03407596808307e-11,1.26218184659365e-09)
(-1.62096322309948e-11,-5.98395084348957e-11,1.24990811449507e-09)
(-1.42844941962913e-11,-1.20697069620482e-10,1.22550479716247e-09)
(-1.40246981484366e-11,-2.38866830702913e-10,1.17309213919375e-09)
(-1.57694735923091e-11,-4.44371069918918e-10,1.06655665314546e-09)
(-1.78674550684875e-11,-8.75841510905268e-10,8.76213370090163e-10)
(-1.81653000857346e-11,-2.00345678278487e-09,5.47390961372482e-10)
(0,0,0)
(0,0,0)
(0,0,0)
(0,0,0)
(0,0,0)
(0,0,0)
(-7.58333021926697e-12,-1.80050505747922e-12,2.5040995748865e-09)
(-1.24140051859368e-11,-4.43672532321682e-12,2.50050103816337e-09)
(-1.58177726389661e-11,-8.28420898914301e-12,2.49481192172457e-09)
(-1.78194652198746e-11,-1.64814539892079e-11,2.48601896897822e-09)
(-1.75366152881285e-11,-3.28501626948833e-11,2.47072156831794e-09)
(-1.4853310908213e-11,-6.61991004255084e-11,2.4406471411034e-09)
(-1.34183967794162e-11,-1.30035621507564e-10,2.37815321202178e-09)
(-1.50025287141315e-11,-2.52719784985425e-10,2.25143623524377e-09)
(-1.75249161432485e-11,-5.46541268972406e-10,2.00076886826612e-09)
(-1.81317522791994e-11,-1.45599894352772e-09,1.45526891441054e-09)
(0,0,0)
(0,0,0)
(0,0,0)
(0,0,0)
(0,0,0)
(0,0,0)
(0,0,0)
(0,0,0)
(0,0,0)
(0,0,0)
(0,0,0)
(0,0,0)
(0,0,0)
(0,0,0)
(0,0,0)
(0,0,0)
(0,0,0)
(0,0,0)
(0,0,0)
(0,0,0)
(0,0,0)
(0,0,0)
(0,0,0)
(0,0,0)
(0,0,0)
(0,0,0)
(0,0,0)
(0,0,0)
(0,0,0)
(0,0,0)
(0,0,0)
(0,0,0)
(0,0,0)
(0,0,0)
(0,0,0)
(0,0,0)
(0,0,0)
(0,0,0)
(0,0,0)
(0,0,0)
(0,0,0)
(0,0,0)
(0,0,0)
(0,0,0)
(0,0,0)
(0,0,0)
(0,0,0)
(0,0,0)
(0,0,0)
(0,0,0)
(0,0,0)
(0,0,0)
(0,0,0)
(0,0,0)
(0,0,0)
(0,0,0)
(0,0,0)
(0,0,0)
(0,0,0)
(0,0,0)
(0,0,0)
(0,0,0)
(0,0,0)
(0,0,0)
(0,0,0)
(0,0,0)
(0,0,0)
(0,0,0)
(0,0,0)
(0,0,0)
(0,0,0)
(0,0,0)
(0,0,0)
(0,0,0)
(0,0,0)
(0,0,0)
(0,0,0)
(0,0,0)
(0,0,0)
(0,0,0)
(0,0,0)
(0,0,0)
(0,0,0)
(0,0,0)
(0,0,0)
(0,0,0)
(0,0,0)
(0,0,0)
(0,0,0)
(0,0,0)
(0,0,0)
(0,0,0)
(0,0,0)
(0,0,0)
(0,0,0)
(0,0,0)
(0,0,0)
(0,0,0)
(0,0,0)
(0,0,0)
(0,0,0)
(0,0,0)
(-5.82325512470202e-13,-2.78327659654302e-11,3.3883006639319e-11)
(-7.44001385522408e-13,-5.97639350801991e-11,3.15204887532301e-11)
(-1.00083915030092e-12,-1.02919946638862e-10,2.80205356157383e-11)
(-8.24913243424555e-13,-1.62023817299912e-10,2.22689615686915e-11)
(3.20220950557589e-13,-2.46267889657775e-10,1.49261524223253e-11)
(1.33067627733371e-12,-3.69442689578921e-10,6.53732559397539e-12)
(2.24201689975948e-12,-5.48855469853395e-10,-1.22367498769657e-12)
(2.30647164657001e-12,-8.09899369079457e-10,-3.8069315009877e-12)
(2.00692919904705e-12,-1.17998507940769e-09,-3.23707699983849e-12)
(1.98383940676126e-12,-1.62916143056714e-09,-1.37464205628325e-12)
(0,0,0)
(0,0,0)
(0,0,0)
(0,0,0)
(0,0,0)
(0,0,0)
(-1.23891538929708e-12,-2.60394947961306e-11,7.13973194476671e-11)
(-2.09257125410357e-12,-5.71259023060249e-11,6.79336994964287e-11)
(-2.90711056036893e-12,-9.889316888599e-11,6.17578002871177e-11)
(-2.36668133023847e-12,-1.56322646704711e-10,5.09350150462024e-11)
(-1.24894813616419e-12,-2.38909986802574e-10,3.55024262913462e-11)
(-3.68572257533592e-13,-3.63073700618323e-10,1.60962178220512e-11)
(6.48307989927174e-13,-5.48005632889134e-10,-2.53630675122833e-12)
(2.13202592240412e-12,-8.12580698597877e-10,-7.19568150998083e-12)
(2.0073743675035e-12,-1.18312188713969e-09,-4.70465987415235e-12)
(1.77991797577815e-12,-1.63145219601471e-09,-1.40162822296177e-12)
(0,0,0)
(0,0,0)
(0,0,0)
(0,0,0)
(0,0,0)
(0,0,0)
(-1.61822139104109e-12,-2.35360172390645e-11,1.19003584264461e-10)
(-2.90351968989561e-12,-5.23587920040042e-11,1.14295731930861e-10)
(-4.36047159177263e-12,-9.01544734022566e-11,1.05565650700343e-10)
(-4.57406488712683e-12,-1.42839518968538e-10,9.02559374912249e-11)
(-5.33748997095275e-12,-2.21132485777845e-10,6.66953089880058e-11)
(-6.3031273316636e-12,-3.46553490493762e-10,3.39420375750288e-11)
(-5.75243774259293e-12,-5.46018791113503e-10,-2.2698090368126e-12)
(1.0910309957888e-12,-8.19793482412788e-10,-6.00260093976568e-12)
(2.27503288644154e-12,-1.18998233049633e-09,-2.90344009163906e-14)
(1.17006840001323e-12,-1.63572463588331e-09,2.4017736448042e-12)
(0,0,0)
(0,0,0)
(0,0,0)
(0,0,0)
(0,0,0)
(0,0,0)
(-2.7197997063764e-12,-2.04821085185919e-11,1.82850810630701e-10)
(-3.73778268487237e-12,-4.54753822143604e-11,1.76690294867292e-10)
(-5.80963170001927e-12,-7.65031819448286e-11,1.65747438689349e-10)
(-7.7512776569866e-12,-1.20806651509577e-10,1.48116756635187e-10)
(-1.10427289560174e-11,-1.90167520450794e-10,1.20502030657488e-10)
(-1.59795641310325e-11,-3.11833405411785e-10,7.73050294941261e-11)
(-1.78136251189238e-11,-5.39203527403449e-10,1.87955794412315e-11)
(-2.4632976431571e-13,-8.33415880347893e-10,1.85816373703628e-11)
(2.75834893165381e-12,-1.19901432219596e-09,2.20419804871964e-11)
(9.40253028558756e-13,-1.63864148874801e-09,1.49384564236334e-11)
(0,0,0)
(0,0,0)
(0,0,0)
(0,0,0)
(0,0,0)
(0,0,0)
(-3.50920045400762e-12,-1.62741298125801e-11,2.69076802739625e-10)
(-5.51447681890688e-12,-3.6509542954857e-11,2.63141842053599e-10)
(-8.4613999424924e-12,-6.00300953980049e-11,2.52279941132042e-10)
(-1.17269884100392e-11,-9.28572254408875e-11,2.35618317273373e-10)
(-1.73257003511401e-11,-1.44924793115423e-10,2.11457351120868e-10)
(-2.39478627413327e-11,-2.43003561564383e-10,1.82257331233129e-10)
(4.18018145818166e-12,-4.75607701337949e-10,1.8716482141849e-10)
(4.54331702812985e-12,-8.45903905169281e-10,1.2139781884582e-10)
(1.02881087779271e-12,-1.20106403857768e-09,8.38630181956679e-11)
(-2.70572251334712e-12,-1.63056959863602e-09,4.49433245707513e-11)
(0,0,0)
(0,0,0)
(0,0,0)
(0,0,0)
(0,0,0)
(0,0,0)
(-4.65935876119992e-12,-1.22001642332659e-11,3.88285347679484e-10)
(-7.34296276099057e-12,-2.74385057997899e-11,3.83452291409774e-10)
(-1.01905010666949e-11,-4.36704513898541e-11,3.73928491766204e-10)
(-1.31460678298069e-11,-6.49905759118298e-11,3.60574792781563e-10)
(-1.77613764895918e-11,-1.01800717391357e-10,3.43420414662452e-10)
(-2.24265558678316e-11,-1.91423893302875e-10,3.22274695220879e-10)
(-1.17720723556271e-12,-4.7825050297792e-10,3.17544314481177e-10)
(6.973977850085e-13,-8.3245551260276e-10,2.50950780691856e-10)
(-3.81420276734374e-12,-1.1728004976937e-09,1.75901485952705e-10)
(-7.31033860113707e-12,-1.59261113494976e-09,9.16192887887334e-11)
(0,0,0)
(0,0,0)
(0,0,0)
(0,0,0)
(0,0,0)
(0,0,0)
(-4.89725952579021e-12,-8.74749993073907e-12,5.58651493595615e-10)
(-7.97675286578479e-12,-1.94939623508099e-11,5.54882807886893e-10)
(-1.10745049824495e-11,-3.00788666479394e-11,5.47800608042812e-10)
(-1.27759658217963e-11,-4.24500707888957e-11,5.40303423147408e-10)
(-8.40717471198699e-12,-6.19922781564041e-11,5.36598492565818e-10)
(1.13270526629895e-11,-1.17694950159387e-10,5.38617698585971e-10)
(-9.46891120676418e-12,-4.42192406224603e-10,4.62405367155529e-10)
(-9.35418830907861e-12,-7.7799382564192e-10,4.45528072660713e-10)
(-1.17480763268212e-11,-1.09745670644096e-09,3.11088075819659e-10)
(-1.30107958331615e-11,-1.50632233638967e-09,1.6068973840723e-10)
(0,0,0)
(0,0,0)
(0,0,0)
(0,0,0)
(0,0,0)
(0,0,0)
(-5.07809087349065e-12,-5.89827243656513e-12,8.08373986218676e-10)
(-9.09070936730288e-12,-1.36645094252187e-11,8.0528471198525e-10)
(-1.32899993804015e-11,-2.20621738363302e-11,7.99496988943405e-10)
(-1.59085199937221e-11,-3.49077963045461e-11,7.93703197925537e-10)
(-1.3832442311692e-11,-6.39585343164989e-11,7.91061574758532e-10)
(-7.48096583311161e-12,-1.48923217228072e-10,7.91148152467973e-10)
(-1.37478985455446e-11,-4.00526405095041e-10,7.67441445682098e-10)
(-1.5032022760863e-11,-6.44323394824709e-10,6.54060138002456e-10)
(-1.66146371664144e-11,-9.49766109422309e-10,4.77779224023341e-10)
(-1.65938064772483e-11,-1.34806215783883e-09,2.58007973573944e-10)
(0,0,0)
(0,0,0)
(0,0,0)
(0,0,0)
(0,0,0)
(0,0,0)
(-6.07943630833672e-12,-3.75138487401948e-12,1.16860120956521e-09)
(-1.07734435539231e-11,-9.27424947540152e-12,1.16536861615949e-09)
(-1.51494122182653e-11,-1.62254381973841e-11,1.15941393867053e-09)
(-1.85750212386824e-11,-2.89573384354103e-11,1.15185192083092e-09)
(-1.87956606377021e-11,-5.8195159080306e-11,1.1419553459781e-09)
(-1.63698054225437e-11,-1.29309079908202e-10,1.12316322074996e-09)
(-1.63204212957583e-11,-2.80978434733921e-10,1.07245288121651e-09)
(-1.70774754708218e-11,-4.66581589443346e-10,9.42827200641016e-10)
(-1.83452882833568e-11,-7.30448224286255e-10,7.30387731211466e-10)
(-1.8232177970578e-11,-1.09088142208644e-09,4.19308946779372e-10)
(0,0,0)
(0,0,0)
(0,0,0)
(0,0,0)
(0,0,0)
(0,0,0)
(-5.78529855391262e-12,-1.97799392535426e-12,1.61187856323999e-09)
(-1.11616140708809e-11,-5.00242579676777e-12,1.60818928175567e-09)
(-1.53090288812978e-11,-9.05956112977844e-12,1.60169762423163e-09)
(-1.90035185494482e-11,-1.69300004647083e-11,1.59247305763777e-09)
(-2.03123507679597e-11,-3.44287739718661e-11,1.57697890119375e-09)