/*--------------------------------*- C++ -*----------------------------------*\
| =========                 |                                                 |
| \\      /  F ield         | foam-extend: Open Source CFD                    |
|  \\    /   O peration     | Version:     4.0                                |
|   \\  /    A nd           | Web:         http://www.foam-extend.org         |
|    \\/     M anipulation  |                                                 |
\*---------------------------------------------------------------------------*/
FoamFile
{
    version 2.0;
    format ascii;
    class volVectorField;
    location "Data/449";
    object      E;
}
// * * * * * * * * * * * * * * * * * * * * * * * * * * * * * * * * * * * * * //

dimensions      [0 1 -1 0 0 0 0];

internalField   nonuniform List<vector>
4096
(
(0,0,0)
(0,0,0)
(0,0,0)
(0,0,0)
(0,0,0)
(0,0,0)
(0,0,0)
(0,0,0)
(0,0,0)
(0,0,0)
(0,0,0)
(0,0,0)
(0,0,0)
(0,0,0)
(0,0,0)
(0,0,0)
(0,0,0)
(0,0,0)
(0,0,0)
(0,0,0)
(0,0,0)
(0,0,0)
(0,0,0)
(0,0,0)
(0,0,0)
(0,0,0)
(0,0,0)
(0,0,0)
(0,0,0)
(0,0,0)
(0,0,0)
(0,0,0)
(0,0,0)
(0,0,0)
(0,0,0)
(0,0,0)
(0,0,0)
(0,0,0)
(0,0,0)
(0,0,0)
(0,0,0)
(0,0,0)
(0,0,0)
(0,0,0)
(0,0,0)
(0,0,0)
(0,0,0)
(0,0,0)
(0,0,0)
(0,0,0)
(0,0,0)
(0,0,0)
(0,0,0)
(0,0,0)
(0,0,0)
(0,0,0)
(0,0,0)
(0,0,0)
(0,0,0)
(0,0,0)
(0,0,0)
(0,0,0)
(0,0,0)
(0,0,0)
(0,0,0)
(0,0,0)
(0,0,0)
(0,0,0)
(0,0,0)
(0,0,0)
(0,0,0)
(0,0,0)
(0,0,0)
(0,0,0)
(0,0,0)
(0,0,0)
(0,0,0)
(0,0,0)
(0,0,0)
(0,0,0)
(0,0,0)
(0,0,0)
(0,0,0)
(0,0,0)
(0,0,0)
(0,0,0)
(0,0,0)
(0,0,0)
(0,0,0)
(0,0,0)
(0,0,0)
(0,0,0)
(0,0,0)
(0,0,0)
(0,0,0)
(0,0,0)
(0,0,0)
(0,0,0)
(0,0,0)
(0,0,0)
(0,0,0)
(0,0,0)
(0,0,0)
(0,0,0)
(0,0,0)
(0,0,0)
(0,0,0)
(0,0,0)
(0,0,0)
(0,0,0)
(0,0,0)
(0,0,0)
(0,0,0)
(0,0,0)
(0,0,0)
(0,0,0)
(0,0,0)
(0,0,0)
(0,0,0)
(0,0,0)
(0,0,0)
(0,0,0)
(0,0,0)
(0,0,0)
(0,0,0)
(0,0,0)
(0,0,0)
(0,0,0)
(0,0,0)
(0,0,0)
(0,0,0)
(0,0,0)
(0,0,0)
(0,0,0)
(0,0,0)
(0,0,0)
(0,0,0)
(0,0,0)
(0,0,0)
(0,0,0)
(0,0,0)
(0,0,0)
(0,0,0)
(0,0,0)
(0,0,0)
(0,0,0)
(0,0,0)
(0,0,0)
(0,0,0)
(0,0,0)
(0,0,0)
(0,0,0)
(0,0,0)
(0,0,0)
(0,0,0)
(0,0,0)
(0,0,0)
(0,0,0)
(0,0,0)
(0,0,0)
(0,0,0)
(0,0,0)
(0,0,0)
(0,0,0)
(0,0,0)
(0,0,0)
(0,0,0)
(0,0,0)
(0,0,0)
(0,0,0)
(0,0,0)
(0,0,0)
(0,0,0)
(0,0,0)
(0,0,0)
(0,0,0)
(0,0,0)
(0,0,0)
(0,0,0)
(0,0,0)
(0,0,0)
(0,0,0)
(0,0,0)
(0,0,0)
(0,0,0)
(0,0,0)
(0,0,0)
(0,0,0)
(0,0,0)
(0,0,0)
(0,0,0)
(0,0,0)
(0,0,0)
(0,0,0)
(0,0,0)
(0,0,0)
(0,0,0)
(0,0,0)
(0,0,0)
(0,0,0)
(0,0,0)
(0,0,0)
(0,0,0)
(0,0,0)
(0,0,0)
(0,0,0)
(0,0,0)
(0,0,0)
(0,0,0)
(0,0,0)
(0,0,0)
(0,0,0)
(0,0,0)
(0,0,0)
(0,0,0)
(0,0,0)
(0,0,0)
(0,0,0)
(0,0,0)
(0,0,0)
(0,0,0)
(0,0,0)
(0,0,0)
(0,0,0)
(0,0,0)
(0,0,0)
(0,0,0)
(0,0,0)
(0,0,0)
(0,0,0)
(0,0,0)
(0,0,0)
(0,0,0)
(0,0,0)
(0,0,0)
(0,0,0)
(0,0,0)
(0,0,0)
(0,0,0)
(0,0,0)
(0,0,0)
(0,0,0)
(0,0,0)
(0,0,0)
(0,0,0)
(0,0,0)
(0,0,0)
(0,0,0)
(0,0,0)
(0,0,0)
(0,0,0)
(0,0,0)
(0,0,0)
(0,0,0)
(0,0,0)
(0,0,0)
(0,0,0)
(0,0,0)
(0,0,0)
(0,0,0)
(0,0,0)
(0,0,0)
(0,0,0)
(0,0,0)
(0,0,0)
(0,0,0)
(0,0,0)
(0,0,0)
(0,0,0)
(0,0,0)
(0,0,0)
(0,0,0)
(0,0,0)
(0,0,0)
(0,0,0)
(0,0,0)
(0,0,0)
(0,0,0)
(0,0,0)
(0,0,0)
(0,0,0)
(0,0,0)
(0,0,0)
(0,0,0)
(0,0,0)
(0,0,0)
(0,0,0)
(0,0,0)
(0,0,0)
(0,0,0)
(0,0,0)
(0,0,0)
(0,0,0)
(0,0,0)
(0,0,0)
(0,0,0)
(0,0,0)
(0,0,0)
(0,0,0)
(0,0,0)
(0,0,0)
(0,0,0)
(0,0,0)
(0,0,0)
(0,0,0)
(0,0,0)
(0,0,0)
(0,0,0)
(0,0,0)
(0,0,0)
(0,0,0)
(0,0,0)
(0,0,0)
(0,0,0)
(0,0,0)
(0,0,0)
(0,0,0)
(0,0,0)
(0,0,0)
(0,0,0)
(0,0,0)
(0,0,0)
(0,0,0)
(0,0,0)
(0,0,0)
(0,0,0)
(0,0,0)
(0,0,0)
(0,0,0)
(0,0,0)
(0,0,0)
(0,0,0)
(0,0,0)
(0,0,0)
(0,0,0)
(0,0,0)
(0,0,0)
(0,0,0)
(0,0,0)
(0,0,0)
(0,0,0)
(0,0,0)
(0,0,0)
(0,0,0)
(0,0,0)
(0,0,0)
(0,0,0)
(0,0,0)
(0,0,0)
(0,0,0)
(0,0,0)
(0,0,0)
(0,0,0)
(0,0,0)
(0,0,0)
(0,0,0)
(0,0,0)
(0,0,0)
(0,0,0)
(0,0,0)
(0,0,0)
(0,0,0)
(0,0,0)
(0,0,0)
(0,0,0)
(0,0,0)
(0,0,0)
(0,0,0)
(0,0,0)
(0,0,0)
(0,0,0)
(0,0,0)
(0,0,0)
(0,0,0)
(0,0,0)
(0,0,0)
(0,0,0)
(0,0,0)
(0,0,0)
(0,0,0)
(0,0,0)
(0,0,0)
(0,0,0)
(0,0,0)
(0,0,0)
(0,0,0)
(0,0,0)
(0,0,0)
(0,0,0)
(0,0,0)
(0,0,0)
(0,0,0)
(0,0,0)
(0,0,0)
(0,0,0)
(0,0,0)
(0,0,0)
(0,0,0)
(0,0,0)
(0,0,0)
(0,0,0)
(0,0,0)
(0,0,0)
(0,0,0)
(0,0,0)
(0,0,0)
(0,0,0)
(0,0,0)
(0,0,0)
(0,0,0)
(0,0,0)
(0,0,0)
(0,0,0)
(0,0,0)
(0,0,0)
(0,0,0)
(0,0,0)
(0,0,0)
(0,0,0)
(0,0,0)
(0,0,0)
(0,0,0)
(0,0,0)
(0,0,0)
(0,0,0)
(0,0,0)
(0,0,0)
(0,0,0)
(0,0,0)
(0,0,0)
(0,0,0)
(0,0,0)
(0,0,0)
(0,0,0)
(0,0,0)
(0,0,0)
(0,0,0)
(0,0,0)
(0,0,0)
(0,0,0)
(0,0,0)
(0,0,0)
(0,0,0)
(0,0,0)
(0,0,0)
(0,0,0)
(0,0,0)
(0,0,0)
(0,0,0)
(0,0,0)
(0,0,0)
(0,0,0)
(0,0,0)
(0,0,0)
(0,0,0)
(0,0,0)
(0,0,0)
(0,0,0)
(0,0,0)
(0,0,0)
(0,0,0)
(0,0,0)
(0,0,0)
(0,0,0)
(0,0,0)
(0,0,0)
(0,0,0)
(0,0,0)
(0,0,0)
(0,0,0)
(0,0,0)
(0,0,0)
(0,0,0)
(0,0,0)
(0,0,0)
(0,0,0)
(0,0,0)
(0,0,0)
(0,0,0)
(0,0,0)
(0,0,0)
(0,0,0)
(0,0,0)
(0,0,0)
(0,0,0)
(0,0,0)
(0,0,0)
(0,0,0)
(0,0,0)
(0,0,0)
(0,0,0)
(0,0,0)
(0,0,0)
(0,0,0)
(0,0,0)
(0,0,0)
(0,0,0)
(0,0,0)
(0,0,0)
(0,0,0)
(0,0,0)
(0,0,0)
(0,0,0)
(0,0,0)
(0,0,0)
(0,0,0)
(0,0,0)
(0,0,0)
(0,0,0)
(0,0,0)
(0,0,0)
(0,0,0)
(0,0,0)
(0,0,0)
(0,0,0)
(0,0,0)
(0,0,0)
(0,0,0)
(0,0,0)
(0,0,0)
(0,0,0)
(0,0,0)
(0,0,0)
(0,0,0)
(0,0,0)
(0,0,0)
(0,0,0)
(0,0,0)
(0,0,0)
(0,0,0)
(0,0,0)
(0,0,0)
(0,0,0)
(0,0,0)
(0,0,0)
(0,0,0)
(0,0,0)
(0,0,0)
(0,0,0)
(0,0,0)
(0,0,0)
(0,0,0)
(0,0,0)
(0,0,0)
(0,0,0)
(0,0,0)
(0,0,0)
(0,0,0)
(0,0,0)
(0,0,0)
(0,0,0)
(0,0,0)
(0,0,0)
(0,0,0)
(0,0,0)
(0,0,0)
(0,0,0)
(0,0,0)
(0,0,0)
(0,0,0)
(0,0,0)
(0,0,0)
(0,0,0)
(0,0,0)
(0,0,0)
(0,0,0)
(0,0,0)
(0,0,0)
(0,0,0)
(0,0,0)
(0,0,0)
(0,0,0)
(0,0,0)
(0,0,0)
(0,0,0)
(0,0,0)
(0,0,0)
(0,0,0)
(0,0,0)
(0,0,0)
(0,0,0)
(0,0,0)
(0,0,0)
(0,0,0)
(0,0,0)
(0,0,0)
(0,0,0)
(0,0,0)
(0,0,0)
(0,0,0)
(0,0,0)
(0,0,0)
(0,0,0)
(0,0,0)
(0,0,0)
(0,0,0)
(0,0,0)
(0,0,0)
(0,0,0)
(0,0,0)
(0,0,0)
(0,0,0)
(0,0,0)
(0,0,0)
(0,0,0)
(0,0,0)
(0,0,0)
(0,0,0)
(0,0,0)
(0,0,0)
(0,0,0)
(0,0,0)
(0,0,0)
(0,0,0)
(0,0,0)
(0,0,0)
(0,0,0)
(0,0,0)
(0,0,0)
(0,0,0)
(0,0,0)
(0,0,0)
(0,0,0)
(0,0,0)
(0,0,0)
(0,0,0)
(0,0,0)
(0,0,0)
(0,0,0)
(0,0,0)
(0,0,0)
(0,0,0)
(0,0,0)
(0,0,0)
(0,0,0)
(0,0,0)
(0,0,0)
(0,0,0)
(0,0,0)
(0,0,0)
(0,0,0)
(0,0,0)
(0,0,0)
(0,0,0)
(0,0,0)
(0,0,0)
(0,0,0)
(0,0,0)
(0,0,0)
(0,0,0)
(0,0,0)
(0,0,0)
(0,0,0)
(0,0,0)
(0,0,0)
(0,0,0)
(0,0,0)
(0,0,0)
(0,0,0)
(0,0,0)
(0,0,0)
(0,0,0)
(0,0,0)
(0,0,0)
(0,0,0)
(0,0,0)
(0,0,0)
(0,0,0)
(0,0,0)
(0,0,0)
(0,0,0)
(0,0,0)
(0,0,0)
(0,0,0)
(0,0,0)
(0,0,0)
(0,0,0)
(0,0,0)
(0,0,0)
(0,0,0)
(0,0,0)
(0,0,0)
(0,0,0)
(0,0,0)
(0,0,0)
(0,0,0)
(0,0,0)
(0,0,0)
(0,0,0)
(0,0,0)
(0,0,0)
(0,0,0)
(0,0,0)
(0,0,0)
(0,0,0)
(0,0,0)
(0,0,0)
(0,0,0)
(0,0,0)
(0,0,0)
(0,0,0)
(0,0,0)
(0,0,0)
(0,0,0)
(0,0,0)
(0,0,0)
(0,0,0)
(0,0,0)
(0,0,0)
(0,0,0)
(0,0,0)
(0,0,0)
(0,0,0)
(0,0,0)
(0,0,0)
(0,0,0)
(0,0,0)
(0,0,0)
(0,0,0)
(0,0,0)
(0,0,0)
(0,0,0)
(0,0,0)
(0,0,0)
(0,0,0)
(0,0,0)
(0,0,0)
(0,0,0)
(0,0,0)
(0,0,0)
(0,0,0)
(0,0,0)
(0,0,0)
(0,0,0)
(0,0,0)
(0,0,0)
(0,0,0)
(0,0,0)
(0,0,0)
(0,0,0)
(0,0,0)
(0,0,0)
(0,0,0)
(0,0,0)
(0,0,0)
(0,0,0)
(0,0,0)
(0,0,0)
(0,0,0)
(0,0,0)
(0,0,0)
(0,0,0)
(0,0,0)
(0,0,0)
(0,0,0)
(0,0,0)
(0,0,0)
(0,0,0)
(0,0,0)
(0,0,0)
(0,0,0)
(0,0,0)
(0,0,0)
(0,0,0)
(0,0,0)
(0,0,0)
(0,0,0)
(0,0,0)
(0,0,0)
(0,0,0)
(0,0,0)
(0,0,0)
(0,0,0)
(0,0,0)
(0,0,0)
(0,0,0)
(0,0,0)
(0,0,0)
(0,0,0)
(0,0,0)
(0,0,0)
(0,0,0)
(0,0,0)
(0,0,0)
(0,0,0)
(0,0,0)
(0,0,0)
(0,0,0)
(0,0,0)
(0,0,0)
(0,0,0)
(0,0,0)
(0,0,0)
(0,0,0)
(0,0,0)
(0,0,0)
(0,0,0)
(0,0,0)
(0,0,0)
(0,0,0)
(0,0,0)
(0,0,0)
(0,0,0)
(0,0,0)
(0,0,0)
(0,0,0)
(0,0,0)
(0,0,0)
(0,0,0)
(0,0,0)
(0,0,0)
(0,0,0)
(0,0,0)
(0,0,0)
(0,0,0)
(0,0,0)
(0,0,0)
(0,0,0)
(0,0,0)
(-211414.168783031,112378.712494709,99035.4562883218)
(-223551.695085938,107696.292854141,214890.858520118)
(-251639.325204425,98012.8985834314,368517.285141114)
(-304785.636330514,82855.583376012,590447.338095615)
(-400703.651257412,62403.6354491117,928747.353903919)
(-572902.687835669,38924.8325515062,1462725.20918808)
(-884745.840171576,17594.9046620725,2329876.14469759)
(-1448307.61589377,4492.08833702689,3773691.67225433)
(-2388608.70344286,125.178918625752,6162175.19677857)
(-3327932.60499184,-268.597708460308,9490376.39947886)
(0,0,0)
(0,0,0)
(0,0,0)
(0,0,0)
(0,0,0)
(0,0,0)
(-223544.921942659,241481.018755526,94442.6156818428)
(-235795.959374152,232666.453979297,205268.413930839)
(-264358.434245119,214256.832109605,353382.914649784)
(-318761.069457079,184984.737709486,570014.82977339)
(-417335.68042859,144545.31846146,905208.827189631)
(-593679.485552294,96520.6584406391,1441292.48685279)
(-908947.763876696,51100.9833720089,2316734.17201954)
(-1470361.46187693,22280.4308443171,3769307.29138917)
(-2403292.61809695,10939.2704742823,6161785.81793049)
(-3334781.78070103,5624.07500319871,9490674.92591983)
(0,0,0)
(0,0,0)
(0,0,0)
(0,0,0)
(0,0,0)
(0,0,0)
(-251361.238185382,407129.709707667,85712.5472332414)
(-263860.780057614,395354.853927424,186884.927342729)
(-293364.570481982,370417.307873508,324089.022060809)
(-350480.40431703,329992.721338723,529561.442748604)
(-455343.077911763,272374.236808441,857075.602313388)
(-642600.933473198,200458.408699818,1395738.78552741)
(-968686.183797658,127669.752209184,2287856.20048789)
(-1525361.96972148,77612.044886711,3757886.55616697)
(-2438690.51965871,51165.7753506702,6156350.57094932)
(-3350787.42195414,27762.4420999308,9484999.62580672)
(0,0,0)
(0,0,0)
(0,0,0)
(0,0,0)
(0,0,0)
(0,0,0)
(-303267.574970763,636385.77354605,74011.5111323788)
(-315996.058394933,623322.565248643,162039.858206094)
(-346650.920207204,595393.979404312,283714.106882491)
(-407723.237093257,549489.732850542,471940.332463928)
(-522996.137597919,482263.696458768,785047.010411521)
(-731231.953648806,393938.652667118,1322798.72009303)
(-1083165.06386704,295879.12383045,2237754.4123388)
(-1631807.19003219,215770.145260445,3731403.50199725)
(-2503619.38524741,153338.636977398,6132850.02561794)
(-3379101.31059191,82519.4031145965,9457194.37519518)
(0,0,0)
(0,0,0)
(0,0,0)
(0,0,0)
(0,0,0)
(0,0,0)
(-396328.143372032,971775.695773351,60938.2211447307)
(-408990.98738688,959094.257791085,134157.515989167)
(-440244.966724841,931971.179395524,237825.282722797)
(-504630.714035206,887235.733248346,404709.9963602)
(-630661.108037566,820955.817329201,696678.983527335)
(-864908.550065592,730865.530992736,1224660.65526731)
(-1257553.28979523,620463.063822783,2157630.0050702)
(-1793946.75056639,498383.254166578,3668963.64673047)
(-2598031.03791169,358282.720000833,6062050.60161875)
(-3420068.23781495,189905.678925904,9374732.56362239)
(0,0,0)
(0,0,0)
(0,0,0)
(0,0,0)
(0,0,0)
(0,0,0)
(-564287.395983966,1487851.68545313,48211.406304187)
(-576307.408237904,1476576.27506335,107036.797269824)
(-606528.545972447,1452431.27306422,193105.249573572)
(-670294.870688504,1412174.37140078,338461.48210964)
(-797660.964499848,1350458.27499943,606619.988939266)
(-1036379.86614534,1259562.90297258,1114302.48310476)
(-1430253.7833094,1129415.7323941,2035603.59784286)
(-1942314.81401506,947390.879606184,3528910.78641831)
(-2700321.40740076,693746.322133487,5893768.59168643)
(-3471629.88148587,370359.440304363,9184944.71179382)
(0,0,0)
(0,0,0)
(0,0,0)
(0,0,0)
(0,0,0)
(0,0,0)
(-872602.996502399,2323539.73522878,36914.9467267598)
(-883237.865318197,2313811.23519548,82917.8519128296)
(-910341.739771852,2292798.61510759,152892.249641314)
(-968584.070953842,2256841.32942929,276809.36256665)
(-1086890.8262262,2198383.19269619,515775.271096088)
(-1311230.9519061,2102356.98596107,984212.140013691)
(-1680910.7362246,1940880.23442421,1853658.37420818)
(-2146518.66330403,1672233.50099881,3275334.41611959)
(-2852686.82441845,1251256.43465271,5570511.12801879)
(-3555665.53104909,681793.070305348,8814743.02906692)
(0,0,0)
(0,0,0)
(0,0,0)
(0,0,0)
(0,0,0)
(0,0,0)
(-1436387.12693843,3732811.70894587,27115.1532213295)
(-1444895.91215481,3723982.98390547,61839.3166661557)
(-1466738.72889673,3704461.98480676,116914.675863719)
(-1514102.91979443,3669490.37204078,218368.553046648)
(-1611328.98135527,3608311.42020966,419769.306888438)
(-1797830.5776741,3497185.05986451,822771.810659096)
(-2107445.0921483,3286029.66446747,1585067.47276412)
(-2484368.55386432,2887267.81143291,2854401.71619435)
(-3129257.97244568,2233764.66455844,5001151.45873431)
(-3716352.2695182,1266168.28621061,8133128.51234722)
(0,0,0)
(0,0,0)
(0,0,0)
(0,0,0)
(0,0,0)
(0,0,0)
(-2380480.93032733,6095078.90885906,18213.7304141335)
(-2386274.84452951,6086229.40540277,42242.1534463591)
(-2401114.42785112,6065918.09827331,81900.4678309191)
(-2432976.09765619,6027202.87179154,157164.065736352)
(-2497190.66857705,5954073.97187998,308592.1826431)
(-2617864.69992526,5812079.53671278,611562.405720074)
(-2820531.43258095,5531921.98405916,1186201.51870933)
(-3121602.07382385,4994229.49826929,2200841.9056968)
(-3639364.11799173,4040376.18490072,4033594.50334625)
(-3996626.98627457,2429307.61720994,6867082.1586215)
(0,0,0)
(0,0,0)
(0,0,0)
(0,0,0)
(0,0,0)
(0,0,0)
(-3324211.7125951,9409996.44042741,9294.18102673718)
(-3327097.02307713,9400817.45713549,21803.1523711262)
(-3334469.91133854,9379185.73320734,43005.428775635)
(-3350120.86279179,9336443.37852281,83885.7848361554)
(-3381195.45937468,9252757.09703676,166398.119054048)
(-3439303.63270537,9086557.57068008,331223.717792115)
(-3540730.68162865,8755525.78734955,648350.596130382)
(-3711614.63447513,8107301.22039083,1246893.50848396)
(-3995723.32292517,6860486.45358429,2422506.56272556)
(-4024052.29813206,4437988.33160475,4437878.14646283)
(0,0,0)
(0,0,0)
(0,0,0)
(0,0,0)
(0,0,0)
(0,0,0)
(0,0,0)
(0,0,0)
(0,0,0)
(0,0,0)
(0,0,0)
(0,0,0)
(0,0,0)
(0,0,0)
(0,0,0)
(0,0,0)
(0,0,0)
(0,0,0)
(0,0,0)
(0,0,0)
(0,0,0)
(0,0,0)
(0,0,0)
(0,0,0)
(0,0,0)
(0,0,0)
(0,0,0)
(0,0,0)
(0,0,0)
(0,0,0)
(0,0,0)
(0,0,0)
(0,0,0)
(0,0,0)
(0,0,0)
(0,0,0)
(0,0,0)
(0,0,0)
(0,0,0)
(0,0,0)
(0,0,0)
(0,0,0)
(0,0,0)
(0,0,0)
(0,0,0)
(0,0,0)
(0,0,0)
(0,0,0)
(0,0,0)
(0,0,0)
(0,0,0)
(0,0,0)
(0,0,0)
(0,0,0)
(0,0,0)
(0,0,0)
(0,0,0)
(0,0,0)
(0,0,0)
(0,0,0)
(0,0,0)
(0,0,0)
(0,0,0)
(0,0,0)
(0,0,0)
(0,0,0)
(0,0,0)
(0,0,0)
(0,0,0)
(0,0,0)
(0,0,0)
(0,0,0)
(0,0,0)
(0,0,0)
(0,0,0)
(0,0,0)
(0,0,0)
(0,0,0)
(0,0,0)
(0,0,0)
(0,0,0)
(0,0,0)
(0,0,0)
(0,0,0)
(0,0,0)
(0,0,0)
(0,0,0)
(0,0,0)
(0,0,0)
(0,0,0)
(0,0,0)
(0,0,0)
(0,0,0)
(0,0,0)
(0,0,0)
(0,0,0)
(0,0,0)
(0,0,0)
(0,0,0)
(0,0,0)
(0,0,0)
(0,0,0)
(31208169.2361869,100131.421114429,86856.0670472104)
(31187855.4613841,95358.4915379845,186661.312170805)
(31141133.7873844,85262.0781560992,315197.01455745)
(31053754.2867626,68875.0192440853,494352.965351763)
(30898090.2696771,45755.7876120879,756374.149936698)
(30621170.1630419,18140.5267340875,1150731.66545651)
(30113035.2108273,-6628.82465206392,1766150.33224127)
(29108886.1177071,-17583.8512575944,2833111.3430295)
(26843275.9924567,-14602.8097442054,5222400.35000565)
(20690589.1048651,-7151.16888895604,12817600.7021692)
(0,0,0)
(0,0,0)
(0,0,0)
(0,0,0)
(0,0,0)
(0,0,0)
(31187449.9422251,213571.965061851,82135.485016314)
(31167096.2691625,204571.647747357,176600.993401872)
(31119933.394374,185304.495628892,298837.640441431)
(31030891.1669445,153337.377740304,471293.938675129)
(30870955.943825,106586.802936816,728742.192228428)
(30586249.3311518,47630.0238374623,1125894.77155245)
(30070349.5406911,-8629.20208091383,1755168.73754512)
(29070405.5292855,-32708.4745381249,2836097.26279477)
(26819394.2905286,-24497.215153955,5229875.6527105)
(20680151.0734782,-10447.1260864905,12824809.6488603)
(0,0,0)
(0,0,0)
(0,0,0)
(0,0,0)
(0,0,0)
(0,0,0)
(31140419.1243005,355159.205387576,73203.2903198885)
(31119941.4832333,343191.953195052,157351.614712817)
(31071824.6509216,317166.886580127,266870.895489527)
(30978900.1087732,272830.045345258,424568.607925904)
(30807892.7347588,204812.964818709,669677.526504973)
(30499869.7273249,111907.64381565,1069500.13886024)
(29954482.5070866,13227.1826870951,1731045.95633955)
(28964089.1742074,-28833.5125737834,2844290.74357793)
(26757601.9523949,-13786.1758863887,5243858.12538829)
(20654551.4848007,-582.697864108627,12835225.6835426)
(0,0,0)
(0,0,0)
(0,0,0)
(0,0,0)
(0,0,0)
(0,0,0)
(31053894.6681573,543294.599621234,61273.2557698079)
(31033411.3057728,530268.796658219,131359.941270427)
(30984111.964375,501769.414271061,222565.422128832)
(30885084.6409576,452593.881980727,356564.600574039)
(30693654.2474038,374641.753441914,576656.320080651)
(30332882.7031556,260322.726633722,970697.473589662)
(29696819.7029582,121533.844733277,1688976.93784981)
(28721891.7839538,53658.1433754942,2859357.20104606)
(26632571.401466,58938.0907226371,5257013.04085519)
(20606543.9935537,41560.5205635265,12835795.4114136)
(0,0,0)
(0,0,0)
(0,0,0)
(0,0,0)
(0,0,0)
(0,0,0)
(30901507.5724825,803786.504073152,48243.2728250752)
(30881515.6773752,791714.337983961,102861.959868757)
(30831971.7796158,765625.734341611,173359.786589128)
(30727741.5324899,721556.061627949,278596.253548342)
(30512916.1781391,653950.707496294,462280.90644888)
(30072995.4707163,559414.546107384,831855.959324902)
(29233479.082754,447807.95753349,1621120.36710707)
(28272647.8683938,350056.044232319,2864698.74042158)
(26436482.3300464,256003.359525128,5239690.99679249)
(20535075.4750186,138370.441022939,12794308.256631)
(0,0,0)
(0,0,0)
(0,0,0)
(0,0,0)
(0,0,0)
(0,0,0)
(30630387.4134247,1179529.64902422,36152.9387718651)
(30611760.4921023,1169606.00507477,76764.2644723463)
(30564592.5524848,1148558.76371333,129281.029774951)
(30462255.1374274,1113826.91347822,211031.062940375)
(30244947.2513403,1061170.38390685,367774.063821237)
(29792401.4974937,984694.012451459,720284.126969635)
(28942199.6691476,878778.635699697,1523430.88947799)
(28023792.8351044,743192.734949096,2770757.44277334)
(26269498.7324332,541334.466630918,5122177.08896513)
(20453141.8147706,286279.51767243,12656067.2091907)
(0,0,0)
(0,0,0)
(0,0,0)
(0,0,0)
(0,0,0)
(0,0,0)
(30127586.6993779,1759698.13756326,26212.7087122736)
(30111365.3797078,1752069.82295168,55716.5389408881)
(30069596.4052761,1736328.92656475,94579.1241730853)
(29976717.052678,1711232.05306662,158443.754084381)
(29774102.5899032,1673849.70276839,291341.912224987)
(29341299.5585766,1615667.58614543,614408.721179891)
(28516629.0784329,1514294.3599161,1387924.07543755)
(27687805.402056,1334352.31994386,2569011.31821438)
(26022355.863778,974616.257015357,4867257.73276503)
(20313467.5437117,521047.085252182,12369927.983556)
(0,0,0)
(0,0,0)
(0,0,0)
(0,0,0)
(0,0,0)
(0,0,0)
(29122663.8128506,2788666.6262937,18551.4646121851)
(29109889.5730546,2782502.75116479,39903.9443212383)
(29076630.0917548,2769978.58139186,69456.3619741607)
(29001613.220751,2750491.63183616,121051.535790738)
(28834671.1800503,2722317.84631356,233154.123971538)
(28467501.2833306,2677016.47342127,513044.268822561)
(27745621.8092179,2572825.68299064,1208016.93751329)
(27205314.8200504,2249920.08171466,2209336.69495932)
(25523965.891011,1723511.56461334,4413788.41703617)
(19990201.5701452,985797.83040174,11849054.7253548)
(0,0,0)
(0,0,0)
(0,0,0)
(0,0,0)
(0,0,0)
(0,0,0)
(26851245.263541,5151145.25921867,12366.0663382247)
(26842694.7046649,5145160.26246829,27309.8989718586)
(26820499.4601962,5132300.67884855,49944.8065993658)
(26771427.2214667,5109770.39533272,92833.6171114544)
(26666945.4443359,5069788.30015517,187797.943488398)
(26454340.4103744,4990372.64521029,408807.554531252)
(26071149.5444471,4811473.69414649,885049.459478822)
(25533046.7939023,4403976.95483984,1682914.61175907)
(24013720.0232433,3683806.1049876,3676106.82328127)
(19006706.4248994,2401759.69524111,10863382.4403995)
(0,0,0)
(0,0,0)
(0,0,0)
(0,0,0)
(0,0,0)
(0,0,0)
(20693489.0685917,12733647.5276081,6367.84355526153)
(20689262.3658662,12727358.1571519,14381.4530597955)
(20678377.0776764,12713101.1749166,27304.8611082688)
(20654812.1729603,12685991.5128686,52721.6009518301)
(20606259.8738496,12633415.9386655,108209.522348804)
(20510726.5531757,12525357.5201511,229765.354658515)
(20333877.0502074,12295757.8055469,477444.404553577)
(19995230.9395362,11818455.937475,962690.74103855)
(19007449.0320791,10855847.7202516,2394047.66390184)
(15454788.1220442,8461808.04399253,8461729.7881056)
(0,0,0)
(0,0,0)
(0,0,0)
(0,0,0)
(0,0,0)
(0,0,0)
(0,0,0)
(0,0,0)
(0,0,0)
(0,0,0)
(0,0,0)
(0,0,0)
(0,0,0)
(0,0,0)
(0,0,0)
(0,0,0)
(0,0,0)
(0,0,0)
(0,0,0)
(0,0,0)
(0,0,0)
(0,0,0)
(0,0,0)
(0,0,0)
(0,0,0)
(0,0,0)
(0,0,0)
(0,0,0)
(0,0,0)
(0,0,0)
(0,0,0)
(0,0,0)
(0,0,0)
(0,0,0)
(0,0,0)
(0,0,0)
(0,0,0)
(0,0,0)
(0,0,0)
(0,0,0)
(0,0,0)
(0,0,0)
(0,0,0)
(0,0,0)
(0,0,0)
(0,0,0)
(0,0,0)
(0,0,0)
(0,0,0)
(0,0,0)
(0,0,0)
(0,0,0)
(0,0,0)
(0,0,0)
(0,0,0)
(0,0,0)
(0,0,0)
(0,0,0)
(0,0,0)
(0,0,0)
(0,0,0)
(0,0,0)
(0,0,0)
(0,0,0)
(0,0,0)
(0,0,0)
(0,0,0)
(0,0,0)
(0,0,0)
(0,0,0)
(0,0,0)
(0,0,0)
(0,0,0)
(0,0,0)
(0,0,0)
(0,0,0)
(0,0,0)
(0,0,0)
(0,0,0)
(0,0,0)
(0,0,0)
(0,0,0)
(0,0,0)
(0,0,0)
(0,0,0)
(0,0,0)
(0,0,0)
(0,0,0)
(0,0,0)
(0,0,0)
(0,0,0)
(0,0,0)
(0,0,0)
(0,0,0)
(0,0,0)
(0,0,0)
(0,0,0)
(0,0,0)
(0,0,0)
(0,0,0)
(0,0,0)
(0,0,0)
(-544207.908878939,79308.8809611143,66497.3709731543)
(-566587.2458595,74516.347835354,139852.837249784)
(-617304.779849146,64005.9356532512,227714.575698508)
(-709669.984680625,45967.6183176066,338600.335692614)
(-867815.609732719,18624.4339376975,479310.888033203)
(-1131764.72559416,-16744.6194813216,642419.503019109)
(-1563515.98101527,-49306.8436471312,761706.645377226)
(-2246842.42384147,-56096.8601359174,566961.153930218)
(-3226536.92204475,-38558.7038822589,-931238.120817598)
(-3954957.60492005,-17638.6531438176,-7874623.65102017)
(0,0,0)
(0,0,0)
(0,0,0)
(0,0,0)
(0,0,0)
(0,0,0)
(-567957.095327175,166405.367752574,61739.6576293197)
(-589972.264797439,157376.811310593,129376.834982437)
(-640184.739145885,137214.898095503,209715.112928597)
(-732639.292892526,101367.554097129,311274.743854605)
(-893197.886291406,43572.8728829342,443909.241894159)
(-1164293.80066563,-38697.689013698,609834.550112479)
(-1606120.32082926,-124506.241157767,754932.916011869)
(-2282814.89690764,-139074.132600371,584559.721537902)
(-3244550.01684907,-86368.186467315,-910257.381630892)
(-3961305.76378388,-36120.551415684,-7856889.53922846)
(0,0,0)
(0,0,0)
(0,0,0)
(0,0,0)
(0,0,0)
(0,0,0)
(-621022.589917796,268541.480050171,52734.7087892063)
(-642343.793030168,256622.261937207,109203.641294522)
(-691650.282893191,229461.433768147,173861.146305141)
(-784966.944957539,179072.732289045,253452.128712402)
(-953825.351929309,90674.0818667801,361498.113285138)
(-1252834.93333891,-54976.9834642624,523911.175267959)
(-1748641.66815689,-244390.051061761,740348.267283858)
(-2407505.87268965,-271019.120733677,637317.40918262)
(-3299215.0714569,-138817.588273484,-859987.058290942)
(-3978796.94269503,-48604.0661034715,-7820726.00923895)
(0,0,0)
(0,0,0)
(0,0,0)
(0,0,0)
(0,0,0)
(0,0,0)
(-715810.424344188,390870.536262866,40805.1431572622)
(-736047.894147403,378302.616979043,82013.0949041108)
(-783987.475672668,349563.13038721,123439.945201175)
(-879227.179639919,295241.936285568,165011.668670636)
(-1066896.30845046,193961.506815289,215703.90644485)
(-1447889.80779614,536.045603927444,334392.495196915)
(-2191751.50218052,-341723.667906571,713726.42404888)
(-2816068.98435844,-395506.297311797,769603.475807708)
(-3436416.22277255,-137088.224322593,-769709.157036204)
(-4016439.97597726,-29874.7275138161,-7772025.41922648)
(0,0,0)
(0,0,0)
(0,0,0)
(0,0,0)
(0,0,0)
(0,0,0)
(-875085.179284604,532648.059259218,28244.335639231)
(-893673.463543415,521909.231174315,53255.9692310723)
(-938969.786461061,498162.699205759,69027.0733578199)
(-1034248.85724468,456031.175618025,63657.3306283962)
(-1244196.23149095,385974.187737447,22186.1662047034)
(-1781794.15489267,278846.73840356,-7905.79411752916)
(-3539289.64471809,156583.86869469,659984.503621683)
(-4198878.00377738,101277.181725443,1028156.0036241)
(-3705773.00988085,89088.6271346324,-662336.401037392)
(-4078240.07084776,56497.0012397149,-7741963.47705602)
(0,0,0)
(0,0,0)
(0,0,0)
(0,0,0)
(0,0,0)
(0,0,0)
(-1137678.31234212,676644.184728317,17498.7071661236)
(-1153965.78378826,669096.697821162,29466.623278344)
(-1194545.69565983,653404.644472162,26792.033025)
(-1283187.29899695,628141.919283034,-6447.16734725486)
(-1487337.01618146,590205.069657311,-84964.6748769319)
(-2023678.57330878,533542.988128536,-130151.746930947)
(-3695874.3377516,453220.43657473,604714.798956639)
(-4300105.14035469,407213.69282584,1016105.37018373)
(-3831267.79609537,294161.093381173,-694771.460665777)
(-4139972.98736034,146560.001184811,-7798290.55161144)
(0,0,0)
(0,0,0)
(0,0,0)
(0,0,0)
(0,0,0)
(0,0,0)
(-1566883.53091926,754616.105512753,9927.41638110926)
(-1580314.02376987,750381.79002456,13750.8345238619)
(-1614440.42667158,743123.366883058,1498.05092907265)
(-1691714.84527821,735875.556862512,-44374.5818257327)
(-1879186.47193615,734183.293449802,-141634.636910413)
(-2404573.61260054,741683.167004234,-210472.537740536)
(-4149176.10531979,743178.823428232,558803.366027088)
(-4707686.37498206,851766.177986175,903171.764773182)
(-4020767.66816242,476109.821776933,-842224.324813702)
(-4241719.38057233,197678.219488393,-7944726.51196475)
(0,0,0)
(0,0,0)
(0,0,0)
(0,0,0)
(0,0,0)
(0,0,0)
(-2251989.05607522,517009.110252551,5688.9710543717)
(-2262085.14475338,515004.117760605,6470.46799473656)
(-2288126.82926207,513525.545655007,-5745.68289191066)
(-2348730.25913593,519976.071420168,-46073.6106941946)
(-2503912.93288409,554288.278299522,-134165.375741057)
(-2986094.80178981,663562.427558771,-209019.444306733)
(-4892277.25182284,898071.161240629,667416.385790138)
(-3987041.77221486,577387.978796768,527580.284113256)
(-4171413.63130307,213029.46493672,-1120530.72986397)
(-4399128.15276764,2145.82067668508,-8142239.50127095)
(0,0,0)
(0,0,0)
(0,0,0)
(0,0,0)
(0,0,0)
(0,0,0)
(-3234775.07872478,-1007228.32403657,3686.88342337264)
(-3241277.93591551,-1008864.35144255,4957.1000753842)
(-3257940.30514955,-1010386.52625288,738.044197502525)
(-3295215.36535269,-1007435.91326991,-11778.2774245519)
(-3380718.46674419,-991467.936328864,-24929.0448475816)
(-3585239.98343851,-953808.113661371,25450.9970539134)
(-4032276.6237941,-926337.41881942,346714.852223693)
(-4178342.1205121,-1134304.67245963,163225.524762904)
(-4562426.16757601,-1322804.53560537,-1331365.17700719)
(-4634449.35039902,-1150381.75802929,-8144252.71613435)
(0,0,0)
(0,0,0)
(0,0,0)
(0,0,0)
(0,0,0)
(0,0,0)
(-3961278.25010511,-7961083.65069209,2051.75222082876)
(-3964417.9596975,-7963102.40375638,3399.23696680716)
(-3972382.51391899,-7966451.91539378,3653.32457158796)
(-3989607.27475565,-7970015.77381293,4081.73969901937)
(-4026328.47977421,-7973979.39809075,12610.6619531606)
(-4103368.38047971,-7986497.11011158,52823.6989272542)
(-4245658.2127371,-8039230.3600437,138681.009964541)
(-4403840.95599311,-8177817.45182657,-25305.2082707291)
(-4635854.0365964,-8152477.06740594,-1158900.50092619)
(-4473718.04656392,-6993619.01186335,-6993727.97161546)
(0,0,0)
(0,0,0)
(0,0,0)
(0,0,0)
(0,0,0)
(0,0,0)
(0,0,0)
(0,0,0)
(0,0,0)
(0,0,0)
(0,0,0)
(0,0,0)
(0,0,0)
(0,0,0)
(0,0,0)
(0,0,0)
(0,0,0)
(0,0,0)
(0,0,0)
(0,0,0)
(0,0,0)
(0,0,0)
(0,0,0)
(0,0,0)
(0,0,0)
(0,0,0)
(0,0,0)
(0,0,0)
(0,0,0)
(0,0,0)
(0,0,0)
(0,0,0)
(0,0,0)
(0,0,0)
(0,0,0)
(0,0,0)
(0,0,0)
(0,0,0)
(0,0,0)
(0,0,0)
(0,0,0)
(0,0,0)
(0,0,0)
(0,0,0)
(0,0,0)
(0,0,0)
(0,0,0)
(0,0,0)
(0,0,0)
(0,0,0)
(0,0,0)
(0,0,0)
(0,0,0)
(0,0,0)
(0,0,0)
(0,0,0)
(0,0,0)
(0,0,0)
(0,0,0)
(0,0,0)
(0,0,0)
(0,0,0)
(0,0,0)
(0,0,0)
(0,0,0)
(0,0,0)
(0,0,0)
(0,0,0)
(0,0,0)
(0,0,0)
(0,0,0)
(0,0,0)
(0,0,0)
(0,0,0)
(0,0,0)
(0,0,0)
(0,0,0)
(0,0,0)
(0,0,0)
(0,0,0)
(0,0,0)
(0,0,0)
(0,0,0)
(0,0,0)
(0,0,0)
(0,0,0)
(0,0,0)
(0,0,0)
(0,0,0)
(0,0,0)
(0,0,0)
(0,0,0)
(0,0,0)
(0,0,0)
(0,0,0)
(0,0,0)
(0,0,0)
(0,0,0)
(0,0,0)
(0,0,0)
(0,0,0)
(0,0,0)
(-643766.384847793,55542.0469711781,44016.4289976756)
(-662741.970975159,51142.7947966115,89028.3593167231)
(-704647.955921705,41173.1864094208,135198.348979862)
(-777831.56900397,23062.0575933287,180297.875709878)
(-896003.804912278,-6669.52605378375,215155.596943222)
(-1077802.3693837,-49217.2044398114,210410.445172579)
(-1339236.63581428,-91917.7067613407,78048.8067329332)
(-1663444.14242901,-92114.2095068037,-413235.265172722)
(-1922636.68527473,-56624.6385258303,-1660510.86341691)
(-1670580.2617539,-24021.1079323854,-3920867.09865068)
(0,0,0)
(0,0,0)
(0,0,0)
(0,0,0)
(0,0,0)
(0,0,0)
(-665379.094413579,113311.926454019,39652.119603563)
(-683306.437627163,105050.726565705,79078.3606641918)
(-722880.48050588,85835.2160771421,117112.072356465)
(-792149.588416032,49141.6443690319,150542.781104268)
(-904949.714369542,-16939.430911441,172564.514040061)
(-1081496.97786566,-127164.591477488,167715.078277769)
(-1341159.24890031,-267058.412372884,77894.7119603683)
(-1655495.44475119,-263868.306952519,-377670.642750357)
(-1909852.40959024,-141140.388792086,-1627852.49974292)
(-1662725.98013541,-53684.8475685132,-3896768.54375528)
(0,0,0)
(0,0,0)
(0,0,0)
(0,0,0)
(0,0,0)
(0,0,0)
(-712747.099046968,173655.598927083,31380.8366561074)
(-728618.935534217,162898.418100597,59808.2876252631)
(-763554.054251477,137174.993146682,80372.2819140073)
(-824788.987378378,84919.9843748789,84415.9843290018)
(-926298.599962152,-22292.4998104426,62242.3012608439)
(-1095567.96210003,-249958.523949161,27769.2624936359)
(-1381557.07196679,-687480.526176786,81106.7801074359)
(-1655798.48300566,-679617.737991607,-254851.178537475)
(-1878806.4734027,-276076.467400487,-1540323.69798328)
(-1643546.88265505,-86288.8172354602,-3842969.78835632)
(0,0,0)
(0,0,0)
(0,0,0)
(0,0,0)
(0,0,0)
(0,0,0)
(-794270.769054461,231555.196810653,20560.7468267028)
(-807267.833660949,220676.827634695,34002.2768061513)
(-835456.88233353,194622.551210739,28024.1254029566)
(-883728.740958308,140290.265220908,-22844.5941246838)
(-963237.15710599,16735.0555321105,-165531.300811704)
(-1120257.30420109,-333287.271951166,-409835.056404756)
(-1688887.71959853,-1689162.69976895,88983.3346054268)
(-1777262.25635833,-1778254.24847019,148813.117083901)
(-1806831.25672795,-406440.1826626,-1350408.1336986)
(-1604940.76930776,-91692.3343933786,-3756503.82321018)
(0,0,0)
(0,0,0)
(0,0,0)
(0,0,0)
(0,0,0)
(0,0,0)
(-923213.302335439,270034.912352993,9648.40750849377)
(-932854.740603843,261607.318993103,7899.19321051178)
(-952602.013926821,242571.251699193,-26417.2798121821)
(-981009.892550346,207091.976513475,-146457.955799079)
(-1001095.59250826,142809.528735927,-515633.067985582)
(-901903.202341727,36938.4675997439,-1765749.76008744)
(-3.48037500227499e-05,-7.51366288996309e-06,2.1362700531868e-05)