/*--------------------------------*- C++ -*----------------------------------*\
| =========                 |                                                 |
| \\      /  F ield         | foam-extend: Open Source Cstd::filesystem::create_directory();FD                    |
|  \\    /   O peration     | Version:     4.0                                |
|   \\  /    A nd           | Web:         http://www.foam-extend.org         |
|    \\/     M anipulation  |                                                 |
\*---------------------------------------------------------------------------*/
FoamFile
{
    version 2.0;
    format ascii;
    class volVectorField;
    location "Data/449";
    object      H;
}
// * * * * * * * * * * * * * * * * * * * * * * * * * * * * * * * * * * * * * //

dimensions      [0 1 -1 0 0 0 0];

internalField   nonuniform List<vector>
4096
(
(0,0,0)
(0,0,0)
(0,0,0)
(0,0,0)
(0,0,0)
(0,0,0)
(0,0,0)
(0,0,0)
(0,0,0)
(0,0,0)
(0,0,0)
(0,0,0)
(0,0,0)
(0,0,0)
(0,0,0)
(0,0,0)
(0,0,0)
(0,0,0)
(0,0,0)
(0,0,0)
(0,0,0)
(0,0,0)
(0,0,0)
(0,0,0)
(0,0,0)
(0,0,0)
(0,0,0)
(0,0,0)
(0,0,0)
(0,0,0)
(0,0,0)
(0,0,0)
(0,0,0)
(0,0,0)
(0,0,0)
(0,0,0)
(0,0,0)
(0,0,0)
(0,0,0)
(0,0,0)
(0,0,0)
(0,0,0)
(0,0,0)
(0,0,0)
(0,0,0)
(0,0,0)
(0,0,0)
(0,0,0)
(0,0,0)
(0,0,0)
(0,0,0)
(0,0,0)
(0,0,0)
(0,0,0)
(0,0,0)
(0,0,0)
(0,0,0)
(0,0,0)
(0,0,0)
(0,0,0)
(0,0,0)
(0,0,0)
(0,0,0)
(0,0,0)
(0,0,0)
(0,0,0)
(0,0,0)
(0,0,0)
(0,0,0)
(0,0,0)
(0,0,0)
(0,0,0)
(0,0,0)
(0,0,0)
(0,0,0)
(0,0,0)
(0,0,0)
(0,0,0)
(0,0,0)
(0,0,0)
(0,0,0)
(0,0,0)
(0,0,0)
(0,0,0)
(0,0,0)
(0,0,0)
(0,0,0)
(0,0,0)
(0,0,0)
(0,0,0)
(0,0,0)
(0,0,0)
(0,0,0)
(0,0,0)
(0,0,0)
(0,0,0)
(0,0,0)
(0,0,0)
(0,0,0)
(0,0,0)
(0,0,0)
(0,0,0)
(0,0,0)
(0,0,0)
(0,0,0)
(0,0,0)
(0,0,0)
(0,0,0)
(0,0,0)
(0,0,0)
(0,0,0)
(0,0,0)
(0,0,0)
(0,0,0)
(0,0,0)
(0,0,0)
(0,0,0)
(0,0,0)
(0,0,0)
(0,0,0)
(0,0,0)
(0,0,0)
(0,0,0)
(0,0,0)
(0,0,0)
(0,0,0)
(0,0,0)
(0,0,0)
(0,0,0)
(0,0,0)
(0,0,0)
(0,0,0)
(0,0,0)
(0,0,0)
(0,0,0)
(0,0,0)
(0,0,0)
(0,0,0)
(0,0,0)
(0,0,0)
(0,0,0)
(0,0,0)
(0,0,0)
(0,0,0)
(0,0,0)
(0,0,0)
(0,0,0)
(0,0,0)
(0,0,0)
(0,0,0)
(0,0,0)
(0,0,0)
(0,0,0)
(0,0,0)
(0,0,0)
(0,0,0)
(0,0,0)
(0,0,0)
(0,0,0)
(0,0,0)
(0,0,0)
(0,0,0)
(0,0,0)
(0,0,0)
(0,0,0)
(0,0,0)
(0,0,0)
(0,0,0)
(0,0,0)
(0,0,0)
(0,0,0)
(0,0,0)
(0,0,0)
(0,0,0)
(0,0,0)
(0,0,0)
(0,0,0)
(0,0,0)
(0,0,0)
(0,0,0)
(0,0,0)
(0,0,0)
(0,0,0)
(0,0,0)
(0,0,0)
(0,0,0)
(0,0,0)
(0,0,0)
(0,0,0)
(0,0,0)
(0,0,0)
(0,0,0)
(0,0,0)
(0,0,0)
(0,0,0)
(0,0,0)
(0,0,0)
(0,0,0)
(0,0,0)
(0,0,0)
(0,0,0)
(0,0,0)
(0,0,0)
(0,0,0)
(0,0,0)
(0,0,0)
(0,0,0)
(0,0,0)
(0,0,0)
(0,0,0)
(0,0,0)
(0,0,0)
(0,0,0)
(0,0,0)
(0,0,0)
(0,0,0)
(0,0,0)
(0,0,0)
(0,0,0)
(0,0,0)
(0,0,0)
(0,0,0)
(0,0,0)
(0,0,0)
(0,0,0)
(0,0,0)
(0,0,0)
(0,0,0)
(0,0,0)
(0,0,0)
(0,0,0)
(0,0,0)
(0,0,0)
(0,0,0)
(0,0,0)
(0,0,0)
(0,0,0)
(0,0,0)
(0,0,0)
(0,0,0)
(0,0,0)
(0,0,0)
(0,0,0)
(0,0,0)
(0,0,0)
(0,0,0)
(0,0,0)
(0,0,0)
(0,0,0)
(0,0,0)
(0,0,0)
(0,0,0)
(0,0,0)
(0,0,0)
(0,0,0)
(0,0,0)
(0,0,0)
(0,0,0)
(0,0,0)
(0,0,0)
(0,0,0)
(0,0,0)
(0,0,0)
(0,0,0)
(0,0,0)
(0,0,0)
(0,0,0)
(0,0,0)
(0,0,0)
(0,0,0)
(0,0,0)
(0,0,0)
(0,0,0)
(0,0,0)
(0,0,0)
(0,0,0)
(0,0,0)
(0,0,0)
(0,0,0)
(0,0,0)
(0,0,0)
(0,0,0)
(0,0,0)
(0,0,0)
(0,0,0)
(0,0,0)
(0,0,0)
(0,0,0)
(0,0,0)
(0,0,0)
(0,0,0)
(0,0,0)
(0,0,0)
(0,0,0)
(0,0,0)
(0,0,0)
(0,0,0)
(0,0,0)
(0,0,0)
(0,0,0)
(0,0,0)
(0,0,0)
(0,0,0)
(0,0,0)
(0,0,0)
(0,0,0)
(0,0,0)
(0,0,0)
(0,0,0)
(0,0,0)
(0,0,0)
(0,0,0)
(0,0,0)
(0,0,0)
(0,0,0)
(0,0,0)
(0,0,0)
(0,0,0)
(0,0,0)
(0,0,0)
(0,0,0)
(0,0,0)
(0,0,0)
(0,0,0)
(0,0,0)
(0,0,0)
(0,0,0)
(0,0,0)
(0,0,0)
(0,0,0)
(0,0,0)
(0,0,0)
(0,0,0)
(0,0,0)
(0,0,0)
(0,0,0)
(0,0,0)
(0,0,0)
(0,0,0)
(0,0,0)
(0,0,0)
(0,0,0)
(0,0,0)
(0,0,0)
(0,0,0)
(0,0,0)
(0,0,0)
(0,0,0)
(0,0,0)
(0,0,0)
(0,0,0)
(0,0,0)
(0,0,0)
(0,0,0)
(0,0,0)
(0,0,0)
(0,0,0)
(0,0,0)
(0,0,0)
(0,0,0)
(0,0,0)
(0,0,0)
(0,0,0)
(0,0,0)
(0,0,0)
(0,0,0)
(0,0,0)
(0,0,0)
(0,0,0)
(0,0,0)
(0,0,0)
(0,0,0)
(0,0,0)
(0,0,0)
(0,0,0)
(0,0,0)
(0,0,0)
(0,0,0)
(0,0,0)
(0,0,0)
(0,0,0)
(0,0,0)
(0,0,0)
(0,0,0)
(0,0,0)
(0,0,0)
(0,0,0)
(0,0,0)
(0,0,0)
(0,0,0)
(0,0,0)
(0,0,0)
(0,0,0)
(0,0,0)
(0,0,0)
(0,0,0)
(0,0,0)
(0,0,0)
(0,0,0)
(0,0,0)
(0,0,0)
(0,0,0)
(0,0,0)
(0,0,0)
(0,0,0)
(0,0,0)
(0,0,0)
(0,0,0)
(0,0,0)
(0,0,0)
(0,0,0)
(0,0,0)
(0,0,0)
(0,0,0)
(0,0,0)
(0,0,0)
(0,0,0)
(0,0,0)
(0,0,0)
(0,0,0)
(0,0,0)
(0,0,0)
(0,0,0)
(0,0,0)
(0,0,0)
(0,0,0)
(0,0,0)
(0,0,0)
(0,0,0)
(0,0,0)
(0,0,0)
(0,0,0)
(0,0,0)
(0,0,0)
(0,0,0)
(0,0,0)
(0,0,0)
(0,0,0)
(0,0,0)
(0,0,0)
(0,0,0)
(0,0,0)
(0,0,0)
(0,0,0)
(0,0,0)
(0,0,0)
(0,0,0)
(0,0,0)
(0,0,0)
(0,0,0)
(0,0,0)
(0,0,0)
(0,0,0)
(0,0,0)
(0,0,0)
(0,0,0)
(0,0,0)
(0,0,0)
(0,0,0)
(0,0,0)
(0,0,0)
(0,0,0)
(0,0,0)
(0,0,0)
(0,0,0)
(0,0,0)
(0,0,0)
(0,0,0)
(0,0,0)
(0,0,0)
(0,0,0)
(0,0,0)
(0,0,0)
(0,0,0)
(0,0,0)
(0,0,0)
(0,0,0)
(0,0,0)
(0,0,0)
(0,0,0)
(0,0,0)
(0,0,0)
(0,0,0)
(0,0,0)
(0,0,0)
(0,0,0)
(0,0,0)
(0,0,0)
(0,0,0)
(0,0,0)
(0,0,0)
(0,0,0)
(0,0,0)
(0,0,0)
(0,0,0)
(0,0,0)
(0,0,0)
(0,0,0)
(0,0,0)
(0,0,0)
(0,0,0)
(0,0,0)
(0,0,0)
(0,0,0)
(0,0,0)
(0,0,0)
(0,0,0)
(0,0,0)
(0,0,0)
(0,0,0)
(0,0,0)
(0,0,0)
(0,0,0)
(0,0,0)
(0,0,0)
(0,0,0)
(0,0,0)
(0,0,0)
(0,0,0)
(0,0,0)
(0,0,0)
(0,0,0)
(0,0,0)
(0,0,0)
(0,0,0)
(0,0,0)
(0,0,0)
(0,0,0)
(0,0,0)
(0,0,0)
(0,0,0)
(0,0,0)
(0,0,0)
(0,0,0)
(0,0,0)
(0,0,0)
(0,0,0)
(0,0,0)
(0,0,0)
(0,0,0)
(0,0,0)
(0,0,0)
(0,0,0)
(0,0,0)
(0,0,0)
(0,0,0)
(0,0,0)
(0,0,0)
(0,0,0)
(0,0,0)
(0,0,0)
(0,0,0)
(0,0,0)
(0,0,0)
(0,0,0)
(0,0,0)
(0,0,0)
(0,0,0)
(0,0,0)
(0,0,0)
(0,0,0)
(0,0,0)
(0,0,0)
(0,0,0)
(0,0,0)
(0,0,0)
(0,0,0)
(0,0,0)
(0,0,0)
(0,0,0)
(0,0,0)
(0,0,0)
(0,0,0)
(0,0,0)
(0,0,0)
(0,0,0)
(0,0,0)
(0,0,0)
(0,0,0)
(0,0,0)
(0,0,0)
(0,0,0)
(0,0,0)
(0,0,0)
(0,0,0)
(0,0,0)
(0,0,0)
(0,0,0)
(0,0,0)
(0,0,0)
(0,0,0)
(0,0,0)
(0,0,0)
(0,0,0)
(0,0,0)
(0,0,0)
(0,0,0)
(0,0,0)
(0,0,0)
(0,0,0)
(0,0,0)
(0,0,0)
(0,0,0)
(0,0,0)
(0,0,0)
(0,0,0)
(0,0,0)
(0,0,0)
(0,0,0)
(0,0,0)
(0,0,0)
(0,0,0)
(0,0,0)
(0,0,0)
(0,0,0)
(0,0,0)
(0,0,0)
(0,0,0)
(0,0,0)
(0,0,0)
(0,0,0)
(0,0,0)
(0,0,0)
(0,0,0)
(0,0,0)
(0,0,0)
(0,0,0)
(0,0,0)
(0,0,0)
(0,0,0)
(0,0,0)
(0,0,0)
(0,0,0)
(0,0,0)
(0,0,0)
(0,0,0)
(0,0,0)
(0,0,0)
(0,0,0)
(0,0,0)
(0,0,0)
(0,0,0)
(0,0,0)
(0,0,0)
(0,0,0)
(0,0,0)
(0,0,0)
(0,0,0)
(0,0,0)
(0,0,0)
(0,0,0)
(0,0,0)
(0,0,0)
(0,0,0)
(0,0,0)
(0,0,0)
(0,0,0)
(0,0,0)
(0,0,0)
(0,0,0)
(0,0,0)
(0,0,0)
(0,0,0)
(0,0,0)
(0,0,0)
(0,0,0)
(0,0,0)
(0,0,0)
(0,0,0)
(0,0,0)
(0,0,0)
(0,0,0)
(0,0,0)
(0,0,0)
(0,0,0)
(0,0,0)
(0,0,0)
(0,0,0)
(0,0,0)
(0,0,0)
(0,0,0)
(0,0,0)
(0,0,0)
(0,0,0)
(0,0,0)
(0,0,0)
(0,0,0)
(0,0,0)
(0,0,0)
(0,0,0)
(0,0,0)
(0,0,0)
(0,0,0)
(0,0,0)
(0,0,0)
(0,0,0)
(0,0,0)
(0,0,0)
(0,0,0)
(0,0,0)
(0,0,0)
(0,0,0)
(0,0,0)
(0,0,0)
(0,0,0)
(0,0,0)
(0,0,0)
(0,0,0)
(0,0,0)
(0,0,0)
(0,0,0)
(0,0,0)
(0,0,0)
(0,0,0)
(0,0,0)
(0,0,0)
(0,0,0)
(0,0,0)
(0,0,0)
(0,0,0)
(0,0,0)
(0,0,0)
(0,0,0)
(0,0,0)
(0,0,0)
(0,0,0)
(0,0,0)
(0,0,0)
(0,0,0)
(0,0,0)
(0,0,0)
(0,0,0)
(0,0,0)
(0,0,0)
(0,0,0)
(0,0,0)
(0,0,0)
(0,0,0)
(0,0,0)
(0,0,0)
(0,0,0)
(0,0,0)
(0,0,0)
(0,0,0)
(0,0,0)
(0,0,0)
(0,0,0)
(0,0,0)
(0,0,0)
(0,0,0)
(0,0,0)
(0,0,0)
(0,0,0)
(0,0,0)
(0,0,0)
(0,0,0)
(0,0,0)
(0,0,0)
(0,0,0)
(0,0,0)
(0,0,0)
(0,0,0)
(0,0,0)
(0,0,0)
(0,0,0)
(0,0,0)
(0,0,0)
(0,0,0)
(0,0,0)
(0,0,0)
(0,0,0)
(0,0,0)
(0,0,0)
(0,0,0)
(0,0,0)
(0,0,0)
(0,0,0)
(0,0,0)
(0,0,0)
(0,0,0)
(0,0,0)
(0,0,0)
(0,0,0)
(0,0,0)
(0,0,0)
(0,0,0)
(0,0,0)
(0,0,0)
(0,0,0)
(0,0,0)
(0,0,0)
(0,0,0)
(0,0,0)
(0,0,0)
(0,0,0)
(0,0,0)
(0,0,0)
(0,0,0)
(0,0,0)
(0,0,0)
(0,0,0)
(0,0,0)
(0,0,0)
(0,0,0)
(0,0,0)
(0,0,0)
(0,0,0)
(0,0,0)
(0,0,0)
(0,0,0)
(0,0,0)
(0,0,0)
(0,0,0)
(0,0,0)
(0,0,0)
(0,0,0)
(0,0,0)
(0,0,0)
(0,0,0)
(3.63705135048722e-14,4.95204150478349e-12,-4.40534748715313e-12)
(-1.09633066516752e-13,1.03401781351072e-11,-4.20573919822074e-12)
(5.0195103375818e-13,1.73254754624599e-11,-3.43887103215371e-12)
(1.75256025860884e-12,2.84299620671351e-11,-3.06484632722673e-12)
(3.45179402046627e-12,4.68895518331015e-11,-2.91287878322349e-12)
(4.21526049223981e-12,7.66628002646506e-11,-2.03357641878488e-12)
(4.50033581139804e-12,1.23288256615015e-10,-1.14834999318543e-12)
(4.00475088813154e-12,1.99849183993698e-10,-5.82415660556492e-13)
(3.42738534537722e-12,3.26183336291008e-10,-4.24559679526642e-13)
(2.5680257054274e-12,5.02440417541462e-10,-1.93843979457658e-13)
(0,0,0)
(0,0,0)
(0,0,0)
(0,0,0)
(0,0,0)
(0,0,0)
(2.51316835247899e-13,4.67622550490341e-12,-8.82813025509128e-12)
(-1.96313861056393e-13,9.42051774108948e-12,-8.37514739781125e-12)
(8.50867919328864e-13,1.66106620632523e-11,-7.5069201652735e-12)
(2.78706959047459e-12,2.78367758814944e-11,-6.89727122724823e-12)
(5.79526672311042e-12,4.60080069661332e-11,-6.1680344842038e-12)
(7.93944377164582e-12,7.57726154489969e-11,-4.65833797897217e-12)
(8.44940065254571e-12,1.22634919942235e-10,-3.14545469269088e-12)
(7.71659018649823e-12,1.99695224293752e-10,-2.26983613792532e-12)
(6.97196249175945e-12,3.26206911620685e-10,-1.80555467470395e-12)
(6.02184714600705e-12,5.02615827821465e-10,-1.01713454181568e-12)
(0,0,0)
(0,0,0)
(0,0,0)
(0,0,0)
(0,0,0)
(0,0,0)
(1.59783441707275e-12,3.90440642810608e-12,-1.70325844665101e-11)
(1.91928820847121e-12,8.23551115666537e-12,-1.67097757216298e-11)
(2.66655218402861e-12,1.53716755592331e-11,-1.59175314128134e-11)
(4.06381959059572e-12,2.64042591681556e-11,-1.46743862248777e-11)
(6.64722857976101e-12,4.45298762746526e-11,-1.27087232109548e-11)
(9.0172697125748e-12,7.42299145134031e-11,-1.00166765668751e-11)
(1.01679757565801e-11,1.21390573139295e-10,-7.55741453098349e-12)
(1.06525818261196e-11,1.98914021429433e-10,-6.00842427355034e-12)
(1.06950313975302e-11,3.25608472154493e-10,-4.24556824790591e-12)
(9.71052468639574e-12,5.02023010032152e-10,-2.12635544587051e-12)
(0,0,0)
(0,0,0)
(0,0,0)
(0,0,0)
(0,0,0)
(0,0,0)
(2.16646903893142e-12,3.515989151078e-12,-2.93265204568188e-11)
(3.74029933830342e-12,7.4960089180742e-12,-2.92280930387558e-11)
(4.68007745558155e-12,1.36226229844658e-11,-2.83704562556824e-11)
(5.64630183872845e-12,2.36056134890499e-11,-2.68035849966134e-11)
(7.6975040086515e-12,4.12573627762884e-11,-2.42298791776857e-11)
(9.95145520892864e-12,7.05821224992889e-11,-2.05231050741383e-11)
(1.12037137785545e-11,1.18368374448202e-10,-1.67424862967558e-11)
(1.26749411535376e-11,1.96354776117104e-10,-1.35280590357293e-11)
(1.42185394839622e-11,3.23351399883009e-10,-9.79681767617136e-12)
(1.41142326156207e-11,4.99747545503759e-10,-5.07746325955791e-12)
(0,0,0)
(0,0,0)
(0,0,0)
(0,0,0)
(0,0,0)
(0,0,0)
(2.924582495779e-12,3.01817130244809e-12,-4.87591931239328e-11)
(4.56574261370721e-12,6.51517915198211e-12,-4.83543962520108e-11)
(5.78313455674869e-12,1.16421318976418e-11,-4.70466092659355e-11)
(6.88984484214304e-12,1.99939901602127e-11,-4.5065072693522e-11)
(8.94765942313042e-12,3.63494564190003e-11,-4.28541837483231e-11)
(1.1089719783864e-11,6.47142631780242e-11,-3.91135809430047e-11)
(1.19488258144121e-11,1.1271443968164e-10,-3.421877225406e-11)
(1.39626510695815e-11,1.91487158014377e-10,-2.76563271658693e-11)
(1.61628634445043e-11,3.18619565885723e-10,-1.97736029705787e-11)
(1.69179648672426e-11,4.94763376029854e-10,-1.01447928868137e-11)
(0,0,0)
(0,0,0)
(0,0,0)
(0,0,0)
(0,0,0)
(0,0,0)
(3.56839859092946e-12,2.38014561498449e-12,-7.71687025816359e-11)
(5.46131764369563e-12,5.11566466245909e-12,-7.67608500429845e-11)
(7.07063369634479e-12,9.20494748910282e-12,-7.57025903058222e-11)
(8.01054059360441e-12,1.63207344275794e-11,-7.38796873379702e-11)
(9.42630714845762e-12,3.09882752836461e-11,-7.18835313070027e-11)
(1.04688306609453e-11,5.795588836221e-11,-6.78935128738734e-11)
(1.06885921153987e-11,1.05618226389251e-10,-6.13600000460904e-11)
(1.19155308919816e-11,1.83640995257806e-10,-5.10880507010181e-11)
(1.35829548379304e-11,3.09739461525399e-10,-3.73367280588059e-11)
(1.48208275189405e-11,4.8527648999114e-10,-1.99030784673984e-11)
(0,0,0)
(0,0,0)
(0,0,0)
(0,0,0)
(0,0,0)
(0,0,0)
(3.41588312440975e-12,2.13783284985722e-12,-1.2203948129389e-10)
(5.32310571214957e-12,4.56403960629894e-12,-1.216087611671e-10)
(7.35816282757112e-12,7.54977382215385e-12,-1.20353381600675e-10)
(7.6441649308034e-12,1.33202551802198e-11,-1.18719691415191e-10)
(7.89555643526577e-12,2.59220061445871e-11,-1.16989054775667e-10)
(7.77238161936482e-12,5.06032900495506e-11,-1.12676553330771e-10)
(7.65426542400128e-12,9.6272865864048e-11,-1.03336076920731e-10)
(8.12784383569626e-12,1.70942147505016e-10,-8.84691302483555e-11)
(9.36905410437972e-12,2.9351495030568e-10,-6.62865514279822e-11)
(1.12074032809812e-11,4.66278646409713e-10,-3.61613600797688e-11)
(0,0,0)
(0,0,0)
(0,0,0)
(0,0,0)
(0,0,0)
(0,0,0)
(2.96053687469966e-12,1.56256853146666e-12,-1.97150993429704e-10)
(4.84144137204214e-12,3.70507809506217e-12,-1.97168096702234e-10)
(7.12979859691973e-12,6.25203957617092e-12,-1.96030802826416e-10)
(7.05523805300657e-12,1.13327990326515e-11,-1.94018664799186e-10)
(6.70377912643061e-12,2.19883026049973e-11,-1.91408940727968e-10)
(5.68981119931504e-12,4.30809587994847e-11,-1.85719410306323e-10)
(3.43811683130618e-12,8.27901089112955e-11,-1.73661020828641e-10)
(3.34576978638703e-12,1.49870402812426e-10,-1.52332762968714e-10)
(4.68482851888981e-12,2.64382287279186e-10,-1.18364223709704e-10)
(6.25614965619925e-12,4.30656292425887e-10,-6.71909076328032e-11)
(0,0,0)
(0,0,0)
(0,0,0)
(0,0,0)
(0,0,0)
(0,0,0)
(2.28536137453952e-12,1.23649524422595e-12,-3.24442741902199e-10)
(3.83125493378749e-12,2.7575180659356e-12,-3.24285119724173e-10)
(5.5828196047322e-12,4.54284631831655e-12,-3.22936677462264e-10)
(5.80326013653054e-12,8.76859978745896e-12,-3.2050190109062e-10)
(5.25821111845206e-12,1.67657652445008e-11,-3.16412716303006e-10)
(3.58059622615585e-12,3.22309071094342e-11,-3.08612362996019e-10)
(1.55887428136924e-13,6.21635742035627e-11,-2.93185920812638e-10)
(-7.88847270001246e-13,1.16505481747956e-10,-2.64679377831535e-10)
(3.18517982648946e-13,2.13936731984725e-10,-2.14351563647726e-10)
(2.03183482356544e-12,3.63880899316449e-10,-1.28876153295657e-10)
(0,0,0)
(0,0,0)
(0,0,0)
(0,0,0)
(0,0,0)
(0,0,0)
(1.51522503659085e-12,8.77557431565089e-13,-5.03546158032365e-10)
(3.27240324333939e-12,1.49051644149819e-12,-5.02771527142293e-10)
(4.63347219541535e-12,2.3861758175167e-12,-5.00999723475884e-10)
(5.14547574183598e-12,4.99597859094514e-12,-4.98104931398811e-10)
(5.20941691036773e-12,9.36607154893809e-12,-4.92614682335719e-10)
(2.99214500426815e-12,1.74929406519624e-11,-4.82902343448212e-10)
(-1.4493660173674e-12,3.39889911087236e-11,-4.64867613503902e-10)
(-4.06469379704101e-12,6.63495301040664e-11,-4.30423670244822e-10)
(-3.41986976528815e-12,1.28778915484306e-10,-3.64242860256465e-10)
(-2.10749651744371e-12,2.3534727859002e-10,-2.35562751509448e-10)
(0,0,0)
(0,0,0)
(0,0,0)
(0,0,0)
(0,0,0)
(0,0,0)
(0,0,0)
(0,0,0)
(0,0,0)
(0,0,0)
(0,0,0)
(0,0,0)
(0,0,0)
(0,0,0)
(0,0,0)
(0,0,0)
(0,0,0)
(0,0,0)
(0,0,0)
(0,0,0)
(0,0,0)
(0,0,0)
(0,0,0)
(0,0,0)
(0,0,0)
(0,0,0)
(0,0,0)
(0,0,0)
(0,0,0)
(0,0,0)
(0,0,0)
(0,0,0)
(0,0,0)
(0,0,0)
(0,0,0)
(0,0,0)
(0,0,0)
(0,0,0)
(0,0,0)
(0,0,0)
(0,0,0)
(0,0,0)
(0,0,0)
(0,0,0)
(0,0,0)
(0,0,0)
(0,0,0)
(0,0,0)
(0,0,0)
(0,0,0)
(0,0,0)
(0,0,0)
(0,0,0)
(0,0,0)
(0,0,0)
(0,0,0)
(0,0,0)
(0,0,0)
(0,0,0)
(0,0,0)
(0,0,0)
(0,0,0)
(0,0,0)
(0,0,0)
(0,0,0)
(0,0,0)
(0,0,0)
(0,0,0)
(0,0,0)
(0,0,0)
(0,0,0)
(0,0,0)
(0,0,0)
(0,0,0)
(0,0,0)
(0,0,0)
(0,0,0)
(0,0,0)
(0,0,0)
(0,0,0)
(0,0,0)
(0,0,0)
(0,0,0)
(0,0,0)
(0,0,0)
(0,0,0)
(0,0,0)
(0,0,0)
(0,0,0)
(0,0,0)
(0,0,0)
(0,0,0)
(0,0,0)
(0,0,0)
(0,0,0)
(0,0,0)
(0,0,0)
(0,0,0)
(0,0,0)
(0,0,0)
(0,0,0)
(0,0,0)
(1.12578224451074e-13,1.04655925843197e-11,-8.64718329883027e-12)
(4.31591614337043e-14,2.02349555925403e-11,-8.28552579290152e-12)
(8.42739728038669e-13,3.26955232368273e-11,-7.25685563924356e-12)
(2.1937789002392e-12,5.21592817825577e-11,-6.12993270236681e-12)
(3.45403652296061e-12,8.45655378857358e-11,-4.5804031271051e-12)
(4.22021888235449e-12,1.35181446670127e-10,-2.41291222572334e-12)
(4.5877381516085e-12,2.13919032077964e-10,-6.44394528100486e-13)
(4.00085460690531e-12,3.46922627182053e-10,4.65803012076152e-14)
(3.17309431548836e-12,6.01631834903117e-10,2.5094262152481e-14)
(2.19877144572749e-12,1.18153364154341e-09,1.79619133466069e-13)
(0,0,0)
(0,0,0)
(0,0,0)
(0,0,0)
(0,0,0)
(0,0,0)
(5.70153054763866e-13,9.55348438703238e-12,-1.81333952585475e-11)
(1.20465490832095e-13,1.86267857560575e-11,-1.71397559346473e-11)
(1.4802054853307e-12,3.13314266874099e-11,-1.57031618055955e-11)
(3.49034956076738e-12,5.08423303542799e-11,-1.38036990298636e-11)
(5.76370090936868e-12,8.27125134713477e-11,-1.0817036547077e-11)
(7.96926142093164e-12,1.33360822375013e-10,-6.74852405207263e-12)
(8.81812890071467e-12,2.13096805388742e-10,-3.03846420558423e-12)
(8.03351158775216e-12,3.46859283629034e-10,-1.71989560078119e-12)
(6.78198182525743e-12,6.01678744691231e-10,-1.68564055870781e-12)
(5.59753039379561e-12,1.1818346791364e-09,-1.01333440146772e-12)
(0,0,0)
(0,0,0)
(0,0,0)
(0,0,0)
(0,0,0)
(0,0,0)
(1.66344294922061e-12,7.92230726374085e-12,-3.29292270151058e-11)
(1.86654613824524e-12,1.64723877125039e-11,-3.20051649248016e-11)
(3.17245957085739e-12,2.88786591414644e-11,-3.0393601911603e-11)
(4.89680225578526e-12,4.77164797999528e-11,-2.74020694356301e-11)
(7.22769543403515e-12,7.88963830052523e-11,-2.23401880836882e-11)
(1.0205799690768e-11,1.29889311424348e-10,-1.54578940675754e-11)
(1.16411841902183e-11,2.11838870648401e-10,-8.64867164598337e-12)
(1.14489711128392e-11,3.47014970802945e-10,-6.11729063029963e-12)
(1.08328908670269e-11,6.01565058098859e-10,-4.86579518362592e-12)
(9.85963376867185e-12,1.18127197477939e-09,-2.68179374071352e-12)
(0,0,0)
(0,0,0)
(0,0,0)
(0,0,0)
(0,0,0)
(0,0,0)
(2.56585946949822e-12,6.59062760402141e-12,-5.53358052134953e-11)
(3.86349232132207e-12,1.43404707222905e-11,-5.46281194240909e-11)
(5.09369728333899e-12,2.51537262564226e-11,-5.27092839663954e-11)
(6.68421934863984e-12,4.18211104685074e-11,-4.90204768283973e-11)
(8.89863626238964e-12,7.13004861712821e-11,-4.26834912910704e-11)
(1.20386957528083e-11,1.21972045039673e-10,-3.36771750781684e-11)
(1.36432212840616e-11,2.07489059477052e-10,-2.3789309143646e-11)
(1.38113178967309e-11,3.45552704576802e-10,-1.88779824941512e-11)
(1.42310190648592e-11,5.99816363637743e-10,-1.42991786942997e-11)
(1.40209388300654e-11,1.17872497023329e-09,-7.62818125423746e-12)
(0,0,0)
(0,0,0)
(0,0,0)
(0,0,0)
(0,0,0)
(0,0,0)
(3.1578113113207e-12,5.33457225883838e-12,-8.84876911629502e-11)
(4.65747011715652e-12,1.18463934198304e-11,-8.76004487092523e-11)
(6.2387823928702e-12,2.06273942520946e-11,-8.54665313642506e-11)
(8.35221162957986e-12,3.40502157157507e-11,-8.15223697819056e-11)
(1.05682377531693e-11,6.02886070665023e-11,-7.59577760661791e-11)
(1.2953285910733e-11,1.08113241761859e-10,-6.83090454436568e-11)
(1.24825940186185e-11,1.95494162134622e-10,-6.04253404584903e-11)
(1.39260896309745e-11,3.39998454733614e-10,-4.73916414132774e-11)
(1.54141577210006e-11,5.93883461739634e-10,-3.3683866034357e-11)
(1.62600580189218e-11,1.17166165206849e-09,-1.74808727113137e-11)
(0,0,0)
(0,0,0)
(0,0,0)
(0,0,0)
(0,0,0)
(0,0,0)
(3.40285881740493e-12,4.14987691161227e-12,-1.37343289435683e-10)
(4.9546829626924e-12,9.3882071121207e-12,-1.36596104809203e-10)
(6.90290439544136e-12,1.61596778142069e-11,-1.35021054452752e-10)
(9.01486380999709e-12,2.68746598995013e-11,-1.31576153810907e-10)
(1.05025578543916e-11,4.95022088946023e-11,-1.26967015470902e-10)
(1.12879161458171e-11,9.43155951019343e-11,-1.19984905088379e-10)
(9.76200329554816e-12,1.83985482219299e-10,-1.10684448632899e-10)
(1.08630560025864e-11,3.28459372544821e-10,-9.15630808630067e-11)
(1.23738164662294e-11,5.79875344823907e-10,-6.63007453567594e-11)
(1.39155926330936e-11,1.15593469771634e-09,-3.53421777985617e-11)
(0,0,0)
(0,0,0)
(0,0,0)
(0,0,0)
(0,0,0)
(0,0,0)
(3.56042731601079e-12,3.36093784134477e-12,-2.13637173981182e-10)
(4.9266876569603e-12,7.82682032745912e-12,-2.12969602443014e-10)
(7.02220688807006e-12,1.28104588113122e-11,-2.11233863422708e-10)
(7.90098443884492e-12,2.10929647780114e-11,-2.08543559698622e-10)
(7.51675852995749e-12,3.97242049800476e-11,-2.05598355239178e-10)
(5.95423645938435e-12,8.00161127191401e-11,-1.99460438272453e-10)
(6.27007570436069e-12,1.68875112438905e-10,-1.83122639109494e-10)
(7.01700970789815e-12,3.06657296122032e-10,-1.59351669370598e-10)
(8.37652578251372e-12,5.51354707464103e-10,-1.1806771974745e-10)
(1.06683971852643e-11,1.12261435274661e-09,-6.40707387915019e-11)
(0,0,0)
(0,0,0)
(0,0,0)
(0,0,0)
(0,0,0)
(0,0,0)
(3.30371343447036e-12,2.64398438437907e-12,-3.45185728297258e-10)
(4.65170752535127e-12,6.11908193655798e-12,-3.44513956917363e-10)
(6.82685382754545e-12,1.0237658286971e-11,-3.4233303386409e-10)
(7.00971322698097e-12,1.7612252792933e-11,-3.39110558016548e-10)
(6.23678606528301e-12,3.42108748925283e-11,-3.35332924366526e-10)
(4.48147341168879e-12,7.11303626151866e-11,-3.27747286685392e-10)
(2.73639367911197e-12,1.46592321894446e-10,-3.09547981963335e-10)
(2.74215159179385e-12,2.66710844295038e-10,-2.71713909090589e-10)
(3.95706773652848e-12,4.98505021482289e-10,-2.098829727774e-10)
(5.84063513272988e-12,1.05989216735915e-09,-1.19632692347721e-10)
(0,0,0)
(0,0,0)
(0,0,0)
(0,0,0)
(0,0,0)
(0,0,0)
(2.48667700917381e-12,2.21621899650454e-12,-5.99919509117071e-10)
(3.74981429631648e-12,4.42071081293012e-12,-5.98485550732733e-10)
(5.30471373388838e-12,7.41824583794187e-12,-5.95472808789255e-10)
(5.48669654543275e-12,1.36110474385488e-11,-5.91186752973457e-10)
(4.85755150702593e-12,2.66855447401663e-11,-5.84768655730864e-10)
(2.89212050024827e-12,5.46036822679509e-11,-5.72697369859478e-10)
(-1.76072458132367e-13,1.08877141354833e-10,-5.47749894583633e-10)
(-9.60709809914786e-13,2.05293868904632e-10,-4.98177529658136e-10)
(9.24130936005917e-16,4.08936522578702e-10,-4.09828509148796e-10)
(1.689302254425e-12,9.41097298825073e-10,-2.56510945530868e-10)
(0,0,0)
(0,0,0)
(0,0,0)
(0,0,0)
(0,0,0)
(0,0,0)
(1.61815157808407e-12,1.30459906076561e-12,-1.18133829183507e-09)
(2.99111601842823e-12,2.40640601281237e-12,-1.17977401145705e-09)
(4.12485593585918e-12,4.15042019651495e-12,-1.17639760879144e-09)
(4.65120526968894e-12,7.89154695279716e-12,-1.17096995806402e-09)
(4.86314957179857e-12,1.50101998193743e-11,-1.16177442353838e-09)
(2.45035571191887e-12,2.9889016626438e-11,-1.14581980838721e-09)
(-1.90431816772278e-12,5.89705067128519e-11,-1.11579870522321e-09)
(-3.89597368133579e-12,1.17011618761829e-10,-1.05720303672559e-09)
(-3.32106302799638e-12,2.55834625670529e-10,-9.40614997578665e-10)
(-2.3229694368607e-12,6.85048426067196e-10,-6.84986221771847e-10)
(0,0,0)
(0,0,0)
(0,0,0)
(0,0,0)
(0,0,0)
(0,0,0)
(0,0,0)
(0,0,0)
(0,0,0)
(0,0,0)
(0,0,0)
(0,0,0)
(0,0,0)
(0,0,0)
(0,0,0)
(0,0,0)
(0,0,0)
(0,0,0)
(0,0,0)
(0,0,0)
(0,0,0)
(0,0,0)
(0,0,0)
(0,0,0)
(0,0,0)
(0,0,0)
(0,0,0)
(0,0,0)
(0,0,0)
(0,0,0)
(0,0,0)
(0,0,0)
(0,0,0)
(0,0,0)
(0,0,0)
(0,0,0)
(0,0,0)
(0,0,0)
(0,0,0)
(0,0,0)
(0,0,0)
(0,0,0)
(0,0,0)
(0,0,0)
(0,0,0)
(0,0,0)
(0,0,0)
(0,0,0)
(0,0,0)
(0,0,0)
(0,0,0)
(0,0,0)
(0,0,0)
(0,0,0)
(0,0,0)
(0,0,0)
(0,0,0)
(0,0,0)
(0,0,0)
(0,0,0)
(0,0,0)
(0,0,0)
(0,0,0)
(0,0,0)
(0,0,0)
(0,0,0)
(0,0,0)
(0,0,0)
(0,0,0)
(0,0,0)
(0,0,0)
(0,0,0)
(0,0,0)
(0,0,0)
(0,0,0)
(0,0,0)
(0,0,0)
(0,0,0)
(0,0,0)
(0,0,0)
(0,0,0)
(0,0,0)
(0,0,0)
(0,0,0)
(0,0,0)
(0,0,0)
(0,0,0)
(0,0,0)
(0,0,0)
(0,0,0)
(0,0,0)
(0,0,0)
(0,0,0)
(0,0,0)
(0,0,0)
(0,0,0)
(0,0,0)
(0,0,0)
(0,0,0)
(0,0,0)
(0,0,0)
(0,0,0)
(6.63028915579805e-13,1.54087256469241e-11,-1.286604548211e-11)
(6.22658844188312e-13,2.85384987108135e-11,-1.16518504032021e-11)
(1.07991334024549e-12,4.49180423579642e-11,-9.99689671705226e-12)
(1.96120075390961e-12,6.99988419087475e-11,-8.23472986368587e-12)
(3.13957003564661e-12,1.09018716732988e-10,-5.63729025037116e-12)
(4.27232548005123e-12,1.67100345294566e-10,-2.2518431448717e-12)
(4.71899001129378e-12,2.51640629981033e-10,8.82431301103376e-13)
(4.08568419883865e-12,3.74247531697422e-10,1.98588514038769e-12)
(2.9716596560194e-12,5.49108283127692e-10,1.68959688827865e-12)
(2.07735298633559e-12,7.59771074217653e-10,1.11605244786411e-12)
(0,0,0)
(0,0,0)
(0,0,0)
(0,0,0)
(0,0,0)
(0,0,0)
(1.20769085408468e-12,1.38434638337101e-11,-2.58997515905836e-11)
(8.38269405639691e-13,2.64532594454774e-11,-2.41766478473791e-11)
(2.03351025523028e-12,4.28184775312273e-11,-2.18519320241239e-11)
(3.62953763239566e-12,6.76483647625959e-11,-1.85251971427469e-11)
(5.5113188806034e-12,1.06225611327967e-10,-1.3107326293823e-11)
(7.73071252506393e-12,1.64571373592258e-10,-5.58001883817202e-12)
(8.75749503594299e-12,2.51184993244185e-10,1.82943450457049e-12)
(7.8435693723472e-12,3.75082078436356e-10,3.25773634102218e-12)
(6.22336226007678e-12,5.50287313015228e-10,1.65903363188624e-12)
(5.14690034926533e-12,7.61133401342516e-10,7.09279127305165e-13)
(0,0,0)
(0,0,0)
(0,0,0)
(0,0,0)
(0,0,0)
(0,0,0)
(2.07106051838328e-12,1.17103751172485e-11,-4.66431527126646e-11)
(2.38690011548136e-12,2.34164288579201e-11,-4.47732577371142e-11)
(3.90585997999104e-12,3.87309575979864e-11,-4.15048683098603e-11)
(5.73029023533811e-12,6.18381214903967e-11,-3.61772074477244e-11)
(7.94129825185194e-12,9.90422623943625e-11,-2.71332479272674e-11)
(1.13138436536929e-11,1.58314600685236e-10,-1.32736520792666e-11)
(1.34596143461268e-11,2.51108758598513e-10,2.79813302122123e-12)
(1.16597418923047e-11,3.78094263155636e-10,3.46907149710237e-12)
(1.03975838851916e-11,5.52521987037319e-10,2.7964409116603e-15)
(9.72484457410534e-12,7.62166249816173e-10,-7.86658108688109e-13)
(0,0,0)
(0,0,0)
(0,0,0)
(0,0,0)
(0,0,0)
(0,0,0)
(3.11422902523958e-12,9.70244626308528e-12,-7.63225859828112e-11)
(4.43873416596374e-12,1.96847847714816e-11,-7.40881092415987e-11)
(5.93122214970884e-12,3.28491028145707e-11,-6.9927280353296e-11)
(8.11812856390787e-12,5.22747247426781e-11,-6.33003269230616e-11)
(1.09041991546067e-11,8.54637425221171e-11,-5.17270963109e-11)
(1.60096330961912e-11,1.43451775695918e-10,-3.22678954059783e-11)
(2.07267919765502e-11,2.49456687616607e-10,-3.8920832395417e-12)
(1.47867639400965e-11,3.83840951673719e-10,-5.97792596801515e-12)
(1.34929235230657e-11,5.55360043424483e-10,-9.36254193826591e-12)
(1.34560757406547e-11,7.62267193789203e-10,-6.38014900474393e-12)
(0,0,0)
(0,0,0)
(0,0,0)
(0,0,0)
(0,0,0)
(0,0,0)
(3.45526420478542e-12,7.68281441892357e-12,-1.16702617950422e-10)
(4.98173907971375e-12,1.55569445794786e-11,-1.14681223852852e-10)
(6.76233724883214e-12,2.58878351095565e-11,-1.10807430359262e-10)
(9.96317372952606e-12,4.00173398405867e-11,-1.04292137245144e-10)
(1.370590530329e-11,6.52224641801382e-11,-9.43282021994567e-11)
(1.88672275849776e-11,1.11236009472441e-10,-8.09369205389146e-11)
(1.09575748887685e-11,2.19335494536577e-10,-7.8681260747841e-11)
(1.17573964406604e-11,3.8860187220719e-10,-5.18339358394144e-11)
(1.32192813140713e-11,5.55100570793239e-10,-3.73829815808053e-11)
(1.45061396596495e-11,7.57528630436013e-10,-2.01948709180193e-11)
(0,0,0)
(0,0,0)
(0,0,0)
(0,0,0)
(0,0,0)
(0,0,0)
(3.44461326114099e-12,5.65537771651225e-12,-1.72919202778867e-10)
(4.94101939118069e-12,1.15550608071573e-11,-1.71489718129265e-10)
(6.80722275643494e-12,1.87429048810607e-11,-1.68796755204037e-10)
(1.01874205913328e-11,2.8387674174288e-11,-1.63910436148656e-10)
(1.32984513864094e-11,4.67239080170346e-11,-1.56976428768657e-10)
(1.62869420731137e-11,8.68680659247929e-11,-1.47647954641547e-10)
(5.75100530617532e-12,2.11934696369056e-10,-1.47239239243804e-10)
(7.40279691884457e-12,3.80428208507005e-10,-1.13782091681413e-10)
(9.93588626815712e-12,5.41116575878619e-10,-8.02320924324873e-11)
(1.18937598038426e-11,7.39498550490192e-10,-4.2163232425526e-11)
(0,0,0)
(0,0,0)
(0,0,0)
(0,0,0)
(0,0,0)
(0,0,0)
(3.60980923497715e-12,4.07135479937875e-12,-2.5304075506808e-10)
(4.8986870271847e-12,8.61590748678922e-12,-2.52209872606084e-10)
(6.90470368813879e-12,1.31627351319782e-11,-2.50411497775669e-10)
(8.43649196518122e-12,1.89181455812868e-11,-2.48134852483516e-10)
(6.89217165091871e-12,2.92406424958305e-11,-2.47305663837495e-10)
(-1.4978126004483e-12,5.49871695428808e-11,-2.48348341556892e-10)
(4.78189651037834e-12,1.99902691435335e-10,-2.1672298782598e-10)
(5.67951191119715e-12,3.55577621794878e-10,-2.03955422993312e-10)
(7.22923080912808e-12,5.06372935441881e-10,-1.42205873435439e-10)
(9.31984378094616e-12,6.99612060483046e-10,-7.37036303937048e-11)
(0,0,0)
(0,0,0)
(0,0,0)
(0,0,0)
(0,0,0)
(0,0,0)
(3.0597074423514e-12,3.20349183029052e-12,-3.71764904727021e-10)
(4.16915559543632e-12,6.72843139233419e-12,-3.707232796692e-10)
(6.42379042908826e-12,1.03696414227853e-11,-3.68677974778313e-10)
(7.233284931823e-12,1.61951008951598e-11,-3.66434890061388e-10)
(6.17647853583284e-12,3.00024347427369e-11,-3.65471485380556e-10)
(2.80884903699016e-12,6.92679630605257e-11,-3.6503851479223e-10)
(2.61750134643386e-12,1.82985904275395e-10,-3.53956432472317e-10)
(2.32819066869996e-12,2.95183877021605e-10,-3.00598422388384e-10)
(3.27528621001822e-12,4.39066262689225e-10,-2.19822634480758e-10)
(5.0028113195713e-12,6.27647161366454e-10,-1.1899451584495e-10)
(0,0,0)
(0,0,0)
(0,0,0)
(0,0,0)
(0,0,0)
(0,0,0)
(1.96433856024499e-12,2.67957550573143e-12,-5.45245055726551e-10)
(2.7513771530346e-12,5.19954460893252e-12,-5.43467708207643e-10)
(4.28648355929394e-12,8.35732956171556e-12,-5.40574995408334e-10)
(4.7880997889678e-12,1.41814560872911e-11,-5.36657480954917e-10)
(4.46161055636308e-12,2.75936523553469e-11,-5.3160101545382e-10)
(2.65931086616628e-12,6.03598119045059e-11,-5.21559025726798e-10)
(1.58197258087527e-13,1.29017549361004e-10,-4.96494217095175e-10)
(-1.0274801763143e-12,2.14404781616914e-10,-4.35878827342501e-10)
(-2.14742578992555e-13,3.38508503308234e-10,-3.38171765310006e-10)
(1.22722948144839e-12,5.09518556739516e-10,-1.9491040119768e-10)
(0,0,0)
(0,0,0)
(0,0,0)
(0,0,0)
(0,0,0)
(0,0,0)
(1.35847026054333e-12,1.42637913669046e-12,-7.57334860143046e-10)
(2.02111936547293e-12,2.89298567109296e-12,-7.55578664728051e-10)
(2.84762540516926e-12,4.95729720620156e-12,-7.52076106305756e-10)
(3.34721769647407e-12,8.75713360925213e-12,-7.46307679782673e-10)
(3.91873424023068e-12,1.65021958990318e-11,-7.3736693641225e-10)
(2.31826917426734e-12,3.40626372754169e-11,-7.20863190816127e-10)
(-1.52947995196809e-12,6.7237888084959e-11,-6.87493801443907e-10)
(-3.47239406729529e-12,1.1593103215454e-10,-6.21391567061545e-10)
(-3.11521316381711e-12,1.94589709145967e-10,-5.06645823798617e-10)