/*--------------------------------*- C++ -*----------------------------------*\
| =========                 |                                                 |
| \\      /  F ield         | foam-extend: Open Source CFD                    |
|  \\    /   O peration     | Version:     4.0                                |
|   \\  /    A nd           | Web:         http://www.foam-extend.org         |
|    \\/     M anipulation  |                                                 |
\*---------------------------------------------------------------------------*/
FoamFile
{
    version 2.0;
    format ascii;
    class volVectorField;
    location "2246";
    object      E;
}
// * * * * * * * * * * * * * * * * * * * * * * * * * * * * * * * * * * * * * //

dimensions      [0 1 -1 0 0 0 0];

internalField   nonuniform List<vector>
4096
(
(0,0,0)
(0,0,0)
(0,0,0)
(0,0,0)
(0,0,0)
(0,0,0)
(0,0,0)
(0,0,0)
(0,0,0)
(0,0,0)
(0,0,0)
(0,0,0)
(0,0,0)
(0,0,0)
(0,0,0)
(0,0,0)
(0,0,0)
(0,0,0)
(0,0,0)
(0,0,0)
(0,0,0)
(0,0,0)
(0,0,0)
(0,0,0)
(0,0,0)
(0,0,0)
(0,0,0)
(0,0,0)
(0,0,0)
(0,0,0)
(0,0,0)
(0,0,0)
(0,0,0)
(0,0,0)
(0,0,0)
(0,0,0)
(0,0,0)
(0,0,0)
(0,0,0)
(0,0,0)
(0,0,0)
(0,0,0)
(0,0,0)
(0,0,0)
(0,0,0)
(0,0,0)
(0,0,0)
(0,0,0)
(0,0,0)
(0,0,0)
(0,0,0)
(0,0,0)
(0,0,0)
(0,0,0)
(0,0,0)
(0,0,0)
(0,0,0)
(0,0,0)
(0,0,0)
(0,0,0)
(0,0,0)
(0,0,0)
(0,0,0)
(0,0,0)
(0,0,0)
(0,0,0)
(0,0,0)
(0,0,0)
(0,0,0)
(0,0,0)
(0,0,0)
(0,0,0)
(0,0,0)
(0,0,0)
(0,0,0)
(0,0,0)
(0,0,0)
(0,0,0)
(0,0,0)
(0,0,0)
(0,0,0)
(0,0,0)
(0,0,0)
(0,0,0)
(0,0,0)
(0,0,0)
(0,0,0)
(0,0,0)
(0,0,0)
(0,0,0)
(0,0,0)
(0,0,0)
(0,0,0)
(0,0,0)
(0,0,0)
(0,0,0)
(0,0,0)
(0,0,0)
(0,0,0)
(0,0,0)
(0,0,0)
(0,0,0)
(0,0,0)
(0,0,0)
(0,0,0)
(0,0,0)
(0,0,0)
(0,0,0)
(0,0,0)
(0,0,0)
(0,0,0)
(0,0,0)
(0,0,0)
(0,0,0)
(0,0,0)
(0,0,0)
(0,0,0)
(0,0,0)
(0,0,0)
(0,0,0)
(0,0,0)
(0,0,0)
(0,0,0)
(0,0,0)
(0,0,0)
(0,0,0)
(0,0,0)
(0,0,0)
(0,0,0)
(0,0,0)
(0,0,0)
(0,0,0)
(0,0,0)
(0,0,0)
(0,0,0)
(0,0,0)
(0,0,0)
(0,0,0)
(0,0,0)
(0,0,0)
(0,0,0)
(0,0,0)
(0,0,0)
(0,0,0)
(0,0,0)
(0,0,0)
(0,0,0)
(0,0,0)
(0,0,0)
(0,0,0)
(0,0,0)
(0,0,0)
(0,0,0)
(0,0,0)
(0,0,0)
(0,0,0)
(0,0,0)
(0,0,0)
(0,0,0)
(0,0,0)
(0,0,0)
(0,0,0)
(0,0,0)
(0,0,0)
(0,0,0)
(0,0,0)
(0,0,0)
(0,0,0)
(0,0,0)
(0,0,0)
(0,0,0)
(0,0,0)
(0,0,0)
(0,0,0)
(0,0,0)
(0,0,0)
(0,0,0)
(0,0,0)
(0,0,0)
(0,0,0)
(0,0,0)
(0,0,0)
(0,0,0)
(0,0,0)
(0,0,0)
(0,0,0)
(0,0,0)
(0,0,0)
(0,0,0)
(0,0,0)
(0,0,0)
(0,0,0)
(0,0,0)
(0,0,0)
(0,0,0)
(0,0,0)
(0,0,0)
(0,0,0)
(0,0,0)
(0,0,0)
(0,0,0)
(0,0,0)
(0,0,0)
(0,0,0)
(0,0,0)
(0,0,0)
(0,0,0)
(0,0,0)
(0,0,0)
(0,0,0)
(0,0,0)
(0,0,0)
(0,0,0)
(0,0,0)
(0,0,0)
(0,0,0)
(0,0,0)
(0,0,0)
(0,0,0)
(0,0,0)
(0,0,0)
(0,0,0)
(0,0,0)
(0,0,0)
(0,0,0)
(0,0,0)
(0,0,0)
(0,0,0)
(0,0,0)
(0,0,0)
(0,0,0)
(0,0,0)
(0,0,0)
(0,0,0)
(0,0,0)
(0,0,0)
(0,0,0)
(0,0,0)
(0,0,0)
(0,0,0)
(0,0,0)
(0,0,0)
(0,0,0)
(0,0,0)
(0,0,0)
(0,0,0)
(0,0,0)
(0,0,0)
(0,0,0)
(0,0,0)
(0,0,0)
(0,0,0)
(0,0,0)
(0,0,0)
(0,0,0)
(0,0,0)
(0,0,0)
(0,0,0)
(0,0,0)
(0,0,0)
(0,0,0)
(0,0,0)
(0,0,0)
(0,0,0)
(0,0,0)
(0,0,0)
(0,0,0)
(0,0,0)
(0,0,0)
(0,0,0)
(0,0,0)
(0,0,0)
(0,0,0)
(0,0,0)
(0,0,0)
(0,0,0)
(0,0,0)
(0,0,0)
(0,0,0)
(0,0,0)
(0,0,0)
(0,0,0)
(0,0,0)
(0,0,0)
(0,0,0)
(0,0,0)
(0,0,0)
(0,0,0)
(0,0,0)
(0,0,0)
(0,0,0)
(0,0,0)
(0,0,0)
(0,0,0)
(0,0,0)
(0,0,0)
(0,0,0)
(0,0,0)
(0,0,0)
(0,0,0)
(0,0,0)
(0,0,0)
(0,0,0)
(0,0,0)
(0,0,0)
(0,0,0)
(0,0,0)
(0,0,0)
(0,0,0)
(0,0,0)
(0,0,0)
(0,0,0)
(0,0,0)
(0,0,0)
(0,0,0)
(0,0,0)
(0,0,0)
(0,0,0)
(0,0,0)
(0,0,0)
(0,0,0)
(0,0,0)
(0,0,0)
(0,0,0)
(0,0,0)
(0,0,0)
(0,0,0)
(0,0,0)
(0,0,0)
(0,0,0)
(0,0,0)
(0,0,0)
(0,0,0)
(0,0,0)
(0,0,0)
(0,0,0)
(0,0,0)
(0,0,0)
(0,0,0)
(0,0,0)
(0,0,0)
(0,0,0)
(0,0,0)
(0,0,0)
(0,0,0)
(0,0,0)
(0,0,0)
(0,0,0)
(0,0,0)
(0,0,0)
(0,0,0)
(0,0,0)
(0,0,0)
(0,0,0)
(0,0,0)
(0,0,0)
(0,0,0)
(0,0,0)
(0,0,0)
(0,0,0)
(0,0,0)
(0,0,0)
(0,0,0)
(0,0,0)
(0,0,0)
(0,0,0)
(0,0,0)
(0,0,0)
(0,0,0)
(0,0,0)
(0,0,0)
(0,0,0)
(0,0,0)
(0,0,0)
(0,0,0)
(0,0,0)
(0,0,0)
(0,0,0)
(0,0,0)
(0,0,0)
(0,0,0)
(0,0,0)
(0,0,0)
(0,0,0)
(0,0,0)
(0,0,0)
(0,0,0)
(0,0,0)
(0,0,0)
(0,0,0)
(0,0,0)
(0,0,0)
(0,0,0)
(0,0,0)
(0,0,0)
(0,0,0)
(0,0,0)
(0,0,0)
(0,0,0)
(0,0,0)
(0,0,0)
(0,0,0)
(0,0,0)
(0,0,0)
(0,0,0)
(0,0,0)
(0,0,0)
(0,0,0)
(0,0,0)
(0,0,0)
(0,0,0)
(0,0,0)
(0,0,0)
(0,0,0)
(0,0,0)
(0,0,0)
(0,0,0)
(0,0,0)
(0,0,0)
(0,0,0)
(0,0,0)
(0,0,0)
(0,0,0)
(0,0,0)
(0,0,0)
(0,0,0)
(0,0,0)
(0,0,0)
(0,0,0)
(0,0,0)
(0,0,0)
(0,0,0)
(0,0,0)
(0,0,0)
(0,0,0)
(0,0,0)
(0,0,0)
(0,0,0)
(0,0,0)
(0,0,0)
(0,0,0)
(0,0,0)
(0,0,0)
(0,0,0)
(0,0,0)
(0,0,0)
(0,0,0)
(0,0,0)
(0,0,0)
(0,0,0)
(0,0,0)
(0,0,0)
(0,0,0)
(0,0,0)
(0,0,0)
(0,0,0)
(0,0,0)
(0,0,0)
(0,0,0)
(0,0,0)
(0,0,0)
(0,0,0)
(0,0,0)
(0,0,0)
(0,0,0)
(0,0,0)
(0,0,0)
(0,0,0)
(0,0,0)
(0,0,0)
(0,0,0)
(0,0,0)
(0,0,0)
(0,0,0)
(0,0,0)
(0,0,0)
(0,0,0)
(0,0,0)
(0,0,0)
(0,0,0)
(0,0,0)
(0,0,0)
(0,0,0)
(0,0,0)
(0,0,0)
(0,0,0)
(0,0,0)
(0,0,0)
(0,0,0)
(0,0,0)
(0,0,0)
(0,0,0)
(0,0,0)
(0,0,0)
(0,0,0)
(0,0,0)
(0,0,0)
(0,0,0)
(0,0,0)
(0,0,0)
(0,0,0)
(0,0,0)
(0,0,0)
(0,0,0)
(0,0,0)
(0,0,0)
(0,0,0)
(0,0,0)
(0,0,0)
(0,0,0)
(0,0,0)
(0,0,0)
(0,0,0)
(0,0,0)
(0,0,0)
(0,0,0)
(0,0,0)
(0,0,0)
(0,0,0)
(0,0,0)
(0,0,0)
(0,0,0)
(0,0,0)
(0,0,0)
(0,0,0)
(0,0,0)
(0,0,0)
(0,0,0)
(0,0,0)
(0,0,0)
(0,0,0)
(0,0,0)
(0,0,0)
(0,0,0)
(0,0,0)
(0,0,0)
(0,0,0)
(0,0,0)
(0,0,0)
(0,0,0)
(0,0,0)
(0,0,0)
(0,0,0)
(0,0,0)
(0,0,0)
(0,0,0)
(0,0,0)
(0,0,0)
(0,0,0)
(0,0,0)
(0,0,0)
(0,0,0)
(0,0,0)
(0,0,0)
(0,0,0)
(0,0,0)
(0,0,0)
(0,0,0)
(0,0,0)
(0,0,0)
(0,0,0)
(0,0,0)
(0,0,0)
(0,0,0)
(0,0,0)
(0,0,0)
(0,0,0)
(0,0,0)
(0,0,0)
(0,0,0)
(0,0,0)
(0,0,0)
(0,0,0)
(0,0,0)
(0,0,0)
(0,0,0)
(0,0,0)
(0,0,0)
(0,0,0)
(0,0,0)
(0,0,0)
(0,0,0)
(0,0,0)
(0,0,0)
(0,0,0)
(0,0,0)
(0,0,0)
(0,0,0)
(0,0,0)
(0,0,0)
(0,0,0)
(0,0,0)
(0,0,0)
(0,0,0)
(0,0,0)
(0,0,0)
(0,0,0)
(0,0,0)
(0,0,0)
(0,0,0)
(0,0,0)
(0,0,0)
(0,0,0)
(0,0,0)
(0,0,0)
(0,0,0)
(0,0,0)
(0,0,0)
(0,0,0)
(0,0,0)
(0,0,0)
(0,0,0)
(0,0,0)
(0,0,0)
(0,0,0)
(0,0,0)
(0,0,0)
(0,0,0)
(0,0,0)
(0,0,0)
(0,0,0)
(0,0,0)
(0,0,0)
(0,0,0)
(0,0,0)
(0,0,0)
(0,0,0)
(0,0,0)
(0,0,0)
(0,0,0)
(0,0,0)
(0,0,0)
(0,0,0)
(0,0,0)
(0,0,0)
(0,0,0)
(0,0,0)
(0,0,0)
(0,0,0)
(0,0,0)
(0,0,0)
(0,0,0)
(0,0,0)
(0,0,0)
(0,0,0)
(0,0,0)
(0,0,0)
(0,0,0)
(0,0,0)
(0,0,0)
(0,0,0)
(0,0,0)
(0,0,0)
(0,0,0)
(0,0,0)
(0,0,0)
(0,0,0)
(0,0,0)
(0,0,0)
(0,0,0)
(0,0,0)
(0,0,0)
(0,0,0)
(0,0,0)
(0,0,0)
(0,0,0)
(0,0,0)
(0,0,0)
(0,0,0)
(0,0,0)
(0,0,0)
(0,0,0)
(0,0,0)
(0,0,0)
(0,0,0)
(0,0,0)
(0,0,0)
(0,0,0)
(0,0,0)
(0,0,0)
(0,0,0)
(0,0,0)
(0,0,0)
(0,0,0)
(0,0,0)
(0,0,0)
(0,0,0)
(0,0,0)
(0,0,0)
(0,0,0)
(0,0,0)
(0,0,0)
(0,0,0)
(0,0,0)
(0,0,0)
(0,0,0)
(0,0,0)
(0,0,0)
(0,0,0)
(0,0,0)
(0,0,0)
(0,0,0)
(0,0,0)
(0,0,0)
(0,0,0)
(0,0,0)
(0,0,0)
(0,0,0)
(0,0,0)
(0,0,0)
(0,0,0)
(0,0,0)
(0,0,0)
(0,0,0)
(0,0,0)
(0,0,0)
(0,0,0)
(0,0,0)
(0,0,0)
(0,0,0)
(0,0,0)
(0,0,0)
(0,0,0)
(0,0,0)
(0,0,0)
(0,0,0)
(0,0,0)
(0,0,0)
(0,0,0)
(0,0,0)
(0,0,0)
(0,0,0)
(0,0,0)
(0,0,0)
(0,0,0)
(0,0,0)
(0,0,0)
(0,0,0)
(0,0,0)
(0,0,0)
(0,0,0)
(0,0,0)
(0,0,0)
(0,0,0)
(0,0,0)
(0,0,0)
(0,0,0)
(0,0,0)
(0,0,0)
(0,0,0)
(0,0,0)
(0,0,0)
(0,0,0)
(0,0,0)
(0,0,0)
(0,0,0)
(0,0,0)
(0,0,0)
(0,0,0)
(0,0,0)
(0,0,0)
(0,0,0)
(0,0,0)
(0,0,0)
(0,0,0)
(0,0,0)
(0,0,0)
(0,0,0)
(0,0,0)
(0,0,0)
(0,0,0)
(0,0,0)
(0,0,0)
(0,0,0)
(0,0,0)
(0,0,0)
(0,0,0)
(0,0,0)
(0,0,0)
(0,0,0)
(0,0,0)
(0,0,0)
(0,0,0)
(0,0,0)
(0,0,0)
(0,0,0)
(0,0,0)
(0,0,0)
(0,0,0)
(0,0,0)
(0,0,0)
(0,0,0)
(0,0,0)
(0,0,0)
(0,0,0)
(0,0,0)
(0,0,0)
(0,0,0)
(0,0,0)
(0,0,0)
(0,0,0)
(0,0,0)
(0,0,0)
(0,0,0)
(0,0,0)
(0,0,0)
(0,0,0)
(0,0,0)
(0,0,0)
(0,0,0)
(0,0,0)
(0,0,0)
(0,0,0)
(0,0,0)
(0,0,0)
(0,0,0)
(0,0,0)
(0,0,0)
(0,0,0)
(-52909.6629811166,27968.0108177492,24941.6521633657)
(-55976.709574798,26848.4224580339,54069.93928013)
(-63087.2545702023,24471.083760948,92686.1100893846)
(-76478.6559577708,20703.3845534988,148461.381493662)
(-100653.728187813,15618.781453327,233496.328228158)
(-144028.694743498,9746.7816072434,367778.241364403)
(-222500.061335269,4386.3714317592,585891.931267937)
(-364247.927089281,1112.55149960254,949027.306857657)
(-600842.905590536,26.6166932195928,1549843.59575494)
(-837277.240416243,-64.4501176043998,2387185.28628882)
(0,0,0)
(0,0,0)
(0,0,0)
(0,0,0)
(0,0,0)
(0,0,0)
(-56029.5704727711,60314.2792863975,23683.3020041211)
(-59146.7914627088,58152.6952564333,51525.8206684355)
(-66369.9644559393,53598.195952127,88768.6729331918)
(-80059.3435671265,46309.0759508054,143222.325103018)
(-104866.224304059,36232.5712947324,227474.759565661)
(-149263.902991863,24196.0753560316,362289.368808734)
(-228613.131017517,12777.5088906275,582511.362367383)
(-369833.549739741,5556.17823222181,947901.285374429)
(-604588.054382868,2750.36596180234,1549765.59048876)
(-839031.135674642,1428.22915262405,2387304.04689311)
(0,0,0)
(0,0,0)
(0,0,0)
(0,0,0)
(0,0,0)
(0,0,0)
(-63069.7410874325,101954.367448892,21429.6529249377)
(-66230.6345194065,99019.0649328837,46793.9177678968)
(-73681.0933121417,92820.6619501402,81252.5450820301)
(-88061.7892865462,82715.2752285128,132908.135090871)
(-114445.525600735,68316.9858664964,215269.24611983)
(-161583.604169474,50283.281536823,350765.644108512)
(-243664.080875463,31995.847826741,575211.386047877)
(-383720.852122312,19456.4401346792,945031.976267706)
(-613554.921676174,12884.0554033316,1548453.20850237)
(-843108.219665449,7011.89467092298,2385977.76264959)
(0,0,0)
(0,0,0)
(0,0,0)
(0,0,0)
(0,0,0)
(0,0,0)
(-76168.3391906959,159704.248182579,18418.4584570099)
(-79367.0641328958,156361.947703434,40442.6398193571)
(-87092.7248613994,149348.080382075,71007.946248815)
(-102462.278088358,137860.149396217,118325.35016946)
(-131465.278459274,121042.061510826,197065.552984412)
(-183886.879356781,98876.693995138,332359.019882882)
(-272482.372659046,74257.5057732096,562579.734595454)
(-410546.550101156,54191.6161484111,938391.108682813)
(-629916.60532271,38577.9004928445,1542613.86891598)
(-850248.873009377,20792.3884385261,2379082.24815788)
(0,0,0)
(0,0,0)
(0,0,0)
(0,0,0)
(0,0,0)
(0,0,0)
(-99555.4391724377,244108.365546754,15151.3218082591)
(-102762.162416646,240839.385206055,33436.0467222806)
(-110637.466962244,233983.917122333,59437.6769442676)
(-126829.665256718,222748.463316094,101379.028281107)
(-158536.643631295,206138.626222398,174819.107200831)
(-217494.910316701,183527.54652948,307663.164983168)
(-316315.677630115,155812.881220258,542423.467166235)
(-451292.787683589,125208.581561209,922699.289437036)
(-653620.204585089,90066.3936160852,1524831.00089897)
(-860517.364011025,47775.4831822387,2358365.27016626)
(0,0,0)
(0,0,0)
(0,0,0)
(0,0,0)
(0,0,0)
(0,0,0)
(-141833.325187963,373945.960615002,11995.7301197181)
(-144879.628473399,371061.322172433,26653.4216267347)
(-152496.088696407,364925.975474832,48207.4519706441)
(-168524.574744769,354761.403445346,84719.0865861583)
(-200560.114461105,339246.17019548,152171.657074186)
(-260612.085210428,316398.188364175,279913.100449938)
(-359704.078350319,283709.893382123,511720.166638404)
(-488544.10488466,238024.44537394,887448.407710333)
(-679309.054386933,174331.442821285,1482492.41289214)
(-873458.265545105,93096.0182226658,2310630.14339665)
(0,0,0)
(0,0,0)
(0,0,0)
(0,0,0)
(0,0,0)
(0,0,0)
(-219431.379052066,584200.157924976,9177.18174209022)
(-222102.592164187,581712.387811438,20628.7082672827)
(-228929.753555302,576356.541189281,38127.8961081402)
(-243594.035911897,567240.493760034,69242.8417053528)
(-273338.058800037,552493.495884448,129333.574816418)
(-329713.678422788,528261.959424649,247183.482178726)
(-422681.644400698,487652.598268433,465922.421693126)
(-539847.501542017,420179.014942982,823615.353666105)
(-717617.074573015,314429.345860696,1401134.52519966)
(-894594.973276298,171335.623188256,2217489.89351047)
(0,0,0)
(0,0,0)
(0,0,0)
(0,0,0)
(0,0,0)
(0,0,0)
(-361239.764808867,938732.96303306,6706.95970078233)
(-363378.625844712,936453.052988675,15344.9203682617)
(-368895.853217475,931480.267649395,29117.0471256397)
(-380835.782319987,922578.371937847,54614.9512678014)
(-405281.812845315,907127.822031083,105262.437966475)
(-452151.793471838,879060.359428868,206615.831434076)
(-530006.631641066,825889.976289379,398385.085054177)
(-624872.546010061,725677.074375049,717759.57163219)
(-787217.952382709,561482.817444887,1257924.0524307)
(-935040.3485941,318278.009008908,2046022.01520409)
(0,0,0)
(0,0,0)
(0,0,0)
(0,0,0)
(0,0,0)
(0,0,0)
(-598742.835024193,1532982.90922793,4492.88882928938)
(-600218.789263949,1530704.34754973,10460.3835322027)
(-604001.295450038,1525544.91631044,20397.030321144)
(-612043.348115422,1515714.84871574,39303.9016586618)
(-628197.643280841,1497239.91215139,77389.4548191921)
(-658533.393567621,1461394.97073725,153588.237078439)
(-709511.395181288,1390857.102279,298132.506270119)
(-785279.473000883,1255657.64555387,553431.408092179)
(-915602.49744546,1015888.62422005,1014628.09876239)
(-1005585.67494019,610881.765292001,1727610.0174195)
(0,0,0)
(0,0,0)
(0,0,0)
(0,0,0)
(0,0,0)
(0,0,0)
(-836286.904316231,2366992.23241637,2277.58112782008)
(-837022.429739834,2364641.69695105,5362.66146633645)
(-838918.207569064,2359189.90167918,10635.883666696)
(-842882.692547011,2348334.79217134,20898.6327581347)
(-850702.875571014,2327156.78551538,41684.6349651959)
(-865305.887041098,2285223.9209128,83161.5718307248)
(-890821.577537135,2201890.93212378,162949.319523066)
(-933824.069335045,2038861.06252792,313569.971884028)
(-1005322.08475699,1725370.52319065,609410.157670372)
(-1012506.73875851,1116268.39068202,1116530.27103889)
(0,0,0)
(0,0,0)
(0,0,0)
(0,0,0)
(0,0,0)
(0,0,0)
(0,0,0)
(0,0,0)
(0,0,0)
(0,0,0)
(0,0,0)
(0,0,0)
(0,0,0)
(0,0,0)
(0,0,0)
(0,0,0)
(0,0,0)
(0,0,0)
(0,0,0)
(0,0,0)
(0,0,0)
(0,0,0)
(0,0,0)
(0,0,0)
(0,0,0)
(0,0,0)
(0,0,0)
(0,0,0)
(0,0,0)
(0,0,0)
(0,0,0)
(0,0,0)
(0,0,0)
(0,0,0)
(0,0,0)
(0,0,0)
(0,0,0)
(0,0,0)
(0,0,0)
(0,0,0)
(0,0,0)
(0,0,0)
(0,0,0)
(0,0,0)
(0,0,0)
(0,0,0)
(0,0,0)
(0,0,0)
(0,0,0)
(0,0,0)
(0,0,0)
(0,0,0)
(0,0,0)
(0,0,0)
(0,0,0)
(0,0,0)
(0,0,0)
(0,0,0)
(0,0,0)
(0,0,0)
(0,0,0)
(0,0,0)
(0,0,0)
(0,0,0)
(0,0,0)
(0,0,0)
(0,0,0)
(0,0,0)
(0,0,0)
(0,0,0)
(0,0,0)
(0,0,0)
(0,0,0)
(0,0,0)
(0,0,0)
(0,0,0)
(0,0,0)
(0,0,0)
(0,0,0)
(0,0,0)
(0,0,0)
(0,0,0)
(0,0,0)
(0,0,0)
(0,0,0)
(0,0,0)
(0,0,0)
(0,0,0)
(0,0,0)
(0,0,0)
(0,0,0)
(0,0,0)
(0,0,0)
(0,0,0)
(0,0,0)
(0,0,0)
(0,0,0)
(0,0,0)
(0,0,0)
(0,0,0)
(0,0,0)
(0,0,0)
(7853884.55714359,24987.7540068034,21870.1131287595)
(7848760.83029472,23849.2163801237,46935.4441394449)
(7836945.46230072,21353.3178727327,79201.4966559889)
(7814927.29946183,17244.4190450937,124203.209451535)
(7775675.70803921,11456.7092749931,190069.1512098)
(7705931.33232107,4544.53119664912,289216.68020872)
(7578061.81884026,-1677.965063971,443984.852357342)
(7325460.71383117,-4421.39066712362,712349.689364288)
(6755386.87751746,-3672.50049411029,1313444.4940107)
(5207038.21999687,-1805.54858579942,3224586.66944365)
(0,0,0)
(0,0,0)
(0,0,0)
(0,0,0)
(0,0,0)
(0,0,0)
(7848613.29719807,53400.006426145,20596.9671701101)
(7843455.13345098,51202.4162948516,44293.9296020223)
(7831514.07906277,46416.2214626716,74999.0697536088)
(7809091.62921076,38415.0098175763,118329.593463482)
(7768824.5136105,26703.5319615844,183044.120122622)
(7697157.39060078,11906.4215809142,282913.023406046)
(7567307.61679507,-2223.38257373423,441189.780363555)
(7315728.31214645,-8247.00920908921,713105.62427962)
(6749306.48616721,-6150.79544020349,1315341.46593571)
(5204375.77375941,-2612.28805649341,3226393.38323256)
(0,0,0)
(0,0,0)
(0,0,0)
(0,0,0)
(0,0,0)
(0,0,0)
(7836736.04348484,88952.5029535049,18293.8061605728)
(7831565.32672562,85980.6679056665,39371.6805650031)
(7819390.69710314,79494.3771802958,66873.8216924682)
(7795988.77570007,68381.6962896519,106508.657494103)
(7752950.23115182,51327.9985684757,168140.521394946)
(7675415.67785071,28001.5438208592,268698.204395112)
(7538127.52197234,3215.5994314482,435119.706802448)
(7288907.51703879,-7307.53064687194,715203.946339515)
(6733678.74939094,-3450.95477571028,1318922.52186812)
(5197876.63637802,-109.363624927797,3229086.82865341)
(0,0,0)
(0,0,0)
(0,0,0)
(0,0,0)
(0,0,0)
(0,0,0)
(7814917.17064892,136275.13481928,15243.9455548747)
(7809760.11520471,132992.150662431,32757.370720815)
(7797305.15626415,125846.770908971,55659.1831268679)
(7772381.80879718,113510.657761177,89338.222030107)
(7724213.18552814,93961.2950550624,144678.548816439)
(7633386.67960257,65259.5608081918,243799.06013009)
(7473261.9415179,30395.4453950194,424526.987249883)
(7227908.51386039,13401.6332355721,719014.846666167)
(6702189.82401584,14823.3477442862,1322286.20206779)
(5185769.46901004,10481.4512852909,3229329.13239855)
(0,0,0)
(0,0,0)
(0,0,0)
(0,0,0)
(0,0,0)
(0,0,0)
(7776566.09563915,201815.552540031,11990.1347279193)
(7771526.84562957,198747.515039074,25597.8495653051)
(7759029.91555883,192167.480959841,43261.844253711)
(7732815.69966131,181073.636528159,69705.5878289439)
(7678774.26128332,164109.563154829,115898.502074917)
(7568047.61641243,140388.096147472,208879.52726682)
(7356764.23494153,112374.878450615,407472.268899881)
(7114976.83245467,87893.3908432194,720362.978414322)
(6652935.25283202,64350.4811417866,1317932.47485987)
(5167832.19467899,34807.7774646825,3218908.67725073)
(0,0,0)
(0,0,0)
(0,0,0)
(0,0,0)
(0,0,0)
(0,0,0)
(7708296.20181913,296347.644246723,8990.46854645911)
(7703608.21453669,293817.466877138,19084.7609586325)
(7691722.60009521,288474.041801952,32211.5985851642)
(7665994.48097938,279682.496066264,52735.7705833111)
(7611346.59987493,266436.660003962,92154.0466584549)
(7497499.41493681,247224.029508374,180858.700410563)
(7283614.51491813,220653.73168411,382913.341168931)
(7052531.83955441,186677.904217275,696704.970615974)
(6611034.0183291,136017.70538921,1288346.7609128)
(5147276.96521162,71944.0388313383,3184127.35604964)
(0,0,0)
(0,0,0)
(0,0,0)
(0,0,0)
(0,0,0)
(0,0,0)
(7581764.75396338,442312.282307649,6491.31618391133)
(7577690.03916091,440344.121480311,13824.1175159548)
(7567162.13864734,436314.251414235,23544.1029614397)
(7543784.70750888,429926.018318848,39573.9245483587)
(7492858.29901299,420478.831988741,72987.4820108681)
(7384094.38723964,405787.529937321,154268.003179708)
(7176773.18106684,380314.554374798,348804.442281697)
(6968237.45956362,335154.787761251,645894.684892421)
(6548917.36455883,244826.556556695,1224203.48185318)
(5112143.4662946,130884.854033964,3112176.31434006)
(0,0,0)
(0,0,0)
(0,0,0)
(0,0,0)
(0,0,0)
(0,0,0)
(7328993.54149425,701162.168723342,4568.89454151291)
(7325762.22376412,699555.833266105,9868.42040717477)
(7317340.40520532,696346.088647097,17252.4120118006)
(7298429.24476419,691350.896720879,30214.5937858977)
(7256466.62987528,684185.852128355,58411.2181858221)
(7164237.78668161,672664.022979614,128797.23225047)
(6982844.35649885,646391.120642678,303521.765102901)
(6846746.26907133,565278.046359961,555431.778682964)
(6423459.75881481,433072.492391203,1110160.21891116)
(5030777.784239,247720.22060384,2981158.80676846)
(0,0,0)
(0,0,0)
(0,0,0)
(0,0,0)
(0,0,0)
(0,0,0)
(6757481.00029065,1295559.03528446,3031.38538438354)
(6755283.51591486,1293992.13138852,6744.86934352035)
(6749610.0607234,1290708.95012682,12422.7389506494)
(6737234.88873585,1284946.4821073,23201.0039731961)
(6710968.73850947,1274780.51145651,47092.0501149963)
(6657565.54807132,1254653.06215075,102656.156565185)
(6561248.694237,1209575.7314839,222363.543566027)
(6425778.12054759,1107141.99115314,423094.092484712)
(6043352.83189679,926174.468503128,924688.874290821)
(4783259.85976284,603943.745140837,2733271.90231103)
(0,0,0)
(0,0,0)
(0,0,0)
(0,0,0)
(0,0,0)
(0,0,0)
(5207838.56898179,3203552.79583463,1532.85341200346)
(5206743.01062094,3201883.68134231,3527.95035764675)
(5203932.19736184,3198275.88587339,6762.6969404747)
(5197984.56118291,3191339.78608264,13154.2264956183)
(5185780.92631741,3177975.15269129,27127.8706327646)
(5161786.92053537,3150648.91204562,57691.3004217511)
(5117314.70748103,3092825.54941419,119957.284733598)
(5032080.04020327,2972808.32648268,242038.927126111)
(4783483.29028853,2730822.91114666,602237.196697373)
(3889402.52883559,2128835.50887863,2129088.25262564)
(0,0,0)
(0,0,0)
(0,0,0)
(0,0,0)
(0,0,0)
(0,0,0)
(0,0,0)
(0,0,0)
(0,0,0)
(0,0,0)
(0,0,0)
(0,0,0)
(0,0,0)
(0,0,0)
(0,0,0)
(0,0,0)
(0,0,0)
(0,0,0)
(0,0,0)
(0,0,0)
(0,0,0)
(0,0,0)
(0,0,0)
(0,0,0)
(0,0,0)
(0,0,0)
(0,0,0)
(0,0,0)
(0,0,0)
(0,0,0)
(0,0,0)
(0,0,0)
(0,0,0)
(0,0,0)
(0,0,0)
(0,0,0)
(0,0,0)
(0,0,0)
(0,0,0)
(0,0,0)
(0,0,0)
(0,0,0)
(0,0,0)
(0,0,0)
(0,0,0)
(0,0,0)
(0,0,0)
(0,0,0)
(0,0,0)
(0,0,0)
(0,0,0)
(0,0,0)
(0,0,0)
(0,0,0)
(0,0,0)
(0,0,0)
(0,0,0)
(0,0,0)
(0,0,0)
(0,0,0)
(0,0,0)
(0,0,0)
(0,0,0)
(0,0,0)
(0,0,0)
(0,0,0)
(0,0,0)
(0,0,0)
(0,0,0)
(0,0,0)
(0,0,0)
(0,0,0)
(0,0,0)
(0,0,0)
(0,0,0)
(0,0,0)
(0,0,0)
(0,0,0)
(0,0,0)
(0,0,0)
(0,0,0)
(0,0,0)
(0,0,0)
(0,0,0)
(0,0,0)
(0,0,0)
(0,0,0)
(0,0,0)
(0,0,0)
(0,0,0)
(0,0,0)
(0,0,0)
(0,0,0)
(0,0,0)
(0,0,0)
(0,0,0)
(0,0,0)
(0,0,0)
(0,0,0)
(0,0,0)
(0,0,0)
(0,0,0)
(-136289.171396895,19841.6041643973,16680.0371158194)
(-141944.876159146,18683.9742030969,35049.6821062571)
(-154796.016692341,16081.4738894451,57057.5999496749)
(-178093.179161418,11528.353426307,84897.6378863748)
(-217964.239065589,4630.66438376546,120254.833347133)
(-284458.11478852,-4250.30429163629,161242.497488211)
(-393138.974535076,-12427.5631435853,191218.766746917)
(-565020.787814533,-14115.8679122913,142164.049044646)
(-811517.791533499,-9707.25729099472,-234876.111873729)
(-994957.355357674,-4452.73708368011,-1982079.88669562)
(0,0,0)
(0,0,0)
(0,0,0)
(0,0,0)
(0,0,0)
(0,0,0)
(-142294.886381511,41665.4996648314,15432.2008188536)
(-147872.357296207,39448.8490674865,32342.7294413201)
(-160610.713721389,34422.1834782404,52474.7253764478)
(-183914.254277132,25393.3366666298,77963.5383637727)
(-224350.942049977,10835.3174603828,111282.253687349)
(-292613.195734072,-9846.25381930383,152996.702289541)
(-403867.917796826,-31399.5022693173,189492.088746856)
(-574131.200971531,-35012.0868722218,146595.733564457)
(-816132.842191946,-21727.0810591334,-229597.201568352)
(-996599.188189655,-9075.34870464054,-1977651.71525853)
(0,0,0)
(0,0,0)
(0,0,0)
(0,0,0)
(0,0,0)
(0,0,0)
(-155687.361303754,67305.8493877177,13130.9678055049)
(-161066.864962543,64318.137277767,27241.7840231135)
(-173559.726384697,57520.5063682004,43441.7973606145)
(-197082.379114994,44835.4253690835,63418.7762129027)
(-239602.814463285,22592.4864733004,90562.5655547936)
(-314894.618586318,-14014.5816640057,131389.102576225)
(-439767.629724049,-61610.004140622,185842.668883604)
(-605583.673380068,-68227.5207008138,159897.205870652)
(-829971.791407916,-34901.3673625537,-216930.054287247)
(-1001053.82510212,-12179.9636586412,-1968547.06511341)
(0,0,0)
(0,0,0)
(0,0,0)
(0,0,0)
(0,0,0)
(0,0,0)
(-179601.457609764,98052.0581482267,10120.3322379086)
(-184695.648824942,94860.3822127101,20381.7640723096)
(-196816.948475254,87638.5744529497,30733.7134666884)
(-220818.363701761,73959.4819359165,41157.7421384898)
(-268066.043190774,48497.5439269561,53879.8261434213)
(-364012.619072834,-99.4942556284462,83711.9501501282)
(-551349.892939574,-86121.6744431585,179183.367649833)
(-708448.067578871,-99547.007338262,193207.348466294)
(-864505.080371778,-34452.0411694756,-194199.160599382)
(-1010534.22288828,-7477.5234211857,-1956249.99619888)
(0,0,0)
(0,0,0)
(0,0,0)
(0,0,0)
(0,0,0)
(0,0,0)
(-219729.815399871,133698.57204978,6997.30987720211)
(-224401.950506821,130949.159930057,13185.241035997)
(-235823.308191639,124949.039776538,17075.9122025214)
(-259813.485540011,114322.898042442,15689.5940370737)
(-312652.397737911,96723.2547107421,5238.45501416929)
(-447977.153554994,69846.920639912,-2335.27717425686)
(-890288.319797049,39205.7022202156,165737.813640618)
(-1056157.31751437,25405.6806759491,258267.188335148)
(-932119.687921339,22430.2650522117,-167212.264393379)
(-1026023.98745194,14232.9061771965,-1948718.59912097)
(0,0,0)
(0,0,0)
(0,0,0)
(0,0,0)
(0,0,0)
(0,0,0)
(-285871.205690483,169875.352956019,4338.5393431355)
(-289959.280390532,167933.641689706,7269.46525039081)
(-300180.931014454,163942.622203766,6527.32667256453)
(-322484.418301506,157541.169824012,-1864.13308851887)
(-373830.783470386,148001.019286374,-21616.6015791417)
(-508762.38846952,133797.789447256,-32957.7542404003)
(-929382.092069437,113728.053297965,151864.414409092)
(-1081358.61186848,102334.378147706,255174.081099999)
(-963501.242483137,73910.8225278797,-175423.302823752)
(-1041477.37912436,36823.2810034901,-1962911.42057422)
(0,0,0)
(0,0,0)
(0,0,0)
(0,0,0)
(0,0,0)
(0,0,0)
(-393923.398857833,189466.86163936,2444.55687757643)
(-397295.458919379,188349.92548052,3361.68390674438)
(-405891.264279319,186453.615334208,252.006442533303)
(-425337.407838946,184554.908194521,-11291.7038404293)
(-472442.24049444,184089.028871159,-35731.2611780869)
(-604447.406437875,185965.616692917,-53009.3820064386)
(-1042846.68490845,186409.886524555,140276.563482061)
(-1183071.93719227,213683.947335596,226584.303789753)
(-1011076.94379081,119382.665437177,-212545.318029997)
(-1067075.42899259,49530.2998427789,-1999685.52884252)
(0,0,0)
(0,0,0)
(0,0,0)
(0,0,0)
(0,0,0)
(0,0,0)
(-566262.142459293,129656.112784965,1414.34554762087)
(-568819.517014477,129112.18158248,1581.74296396555)
(-575421.996883532,128674.409553622,-1528.73642688254)
(-590710.134700863,130186.295139359,-11672.8311669744)
(-629695.630536183,138708.989758774,-33782.6189032626)
(-750719.114838873,166048.017814107,-52560.2057643349)
(-1229225.43241544,224850.08916372,167417.293250566)
(-1002322.53901427,144359.542842142,132158.418569397)
(-1049154.41765714,52963.837565794,-282460.664347439)
(-1106733.1401977,205.555386417171,-2049277.0827146)
(0,0,0)
(0,0,0)
(0,0,0)
(0,0,0)
(0,0,0)
(0,0,0)
(-813546.451200398,-253893.015430098,924.492445762501)
(-815225.30841642,-254345.781142384,1239.19224154906)
(-819503.516078715,-254780.196247059,155.287584072864)
(-828913.660234142,-254156.7985688,-3005.15699802016)
(-850399.848032075,-250286.870698962,-6292.7972589972)
(-901690.789171241,-241007.650232646,6367.12077001998)
(-1013840.04831978,-234247.201962126,86901.067192317)
(-1050859.45413899,-286434.472988248,40680.5704489269)
(-1147710.95889237,-333618.740243631,-335325.14821276)
(-1166014.13968758,-289874.302052761,-2049623.37858345)
(0,0,0)
(0,0,0)
(0,0,0)
(0,0,0)
(0,0,0)
(0,0,0)
(-996484.603118864,-2003701.03579296,479.105203262118)
(-997310.54963831,-2004304.24157202,839.038631825851)
(-999383.648664748,-2005179.88482877,902.485979858462)
(-1003728.29193442,-2006198.6729066,1005.12617457957)
(-1012954.50190019,-2007356.06118401,3157.6576169446)
(-1032278.24488551,-2010692.8530116,13255.9385564655)
(-1068001.48810696,-2024068.53670812,34741.3816302165)
(-1107867.15636033,-2058835.69401935,-6562.28803548112)
(-1166321.20612179,-2052244.2864559,-291784.332673224)
(-1125621.31430635,-1760272.41965913,-1760014.45918516)
(0,0,0)
(0,0,0)
(0,0,0)
(0,0,0)
(0,0,0)
(0,0,0)
(0,0,0)
(0,0,0)
(0,0,0)
(0,0,0)
(0,0,0)
(0,0,0)
(0,0,0)
(0,0,0)
(0,0,0)
(0,0,0)
(0,0,0)
(0,0,0)
(0,0,0)
(0,0,0)
(0,0,0)
(0,0,0)
(0,0,0)
(0,0,0)
(0,0,0)
(0,0,0)
(0,0,0)
(0,0,0)
(0,0,0)
(0,0,0)
(0,0,0)
(0,0,0)
(0,0,0)
(0,0,0)
(0,0,0)
(0,0,0)
(0,0,0)
(0,0,0)
(0,0,0)
(0,0,0)
(0,0,0)
(0,0,0)
(0,0,0)
(0,0,0)
(0,0,0)
(0,0,0)
(0,0,0)
(0,0,0)
(0,0,0)
(0,0,0)
(0,0,0)
(0,0,0)
(0,0,0)
(0,0,0)
(0,0,0)
(0,0,0)
(0,0,0)
(0,0,0)
(0,0,0)
(0,0,0)
(0,0,0)
(0,0,0)
(0,0,0)
(0,0,0)
(0,0,0)
(0,0,0)
(0,0,0)
(0,0,0)
(0,0,0)
(0,0,0)
(0,0,0)
(0,0,0)
(0,0,0)
(0,0,0)
(0,0,0)
(0,0,0)
(0,0,0)
(0,0,0)
(0,0,0)
(0,0,0)
(0,0,0)
(0,0,0)
(0,0,0)
(0,0,0)
(0,0,0)
(0,0,0)
(0,0,0)
(0,0,0)
(0,0,0)
(0,0,0)
(0,0,0)
(0,0,0)
(0,0,0)
(0,0,0)
(0,0,0)
(0,0,0)
(0,0,0)
(0,0,0)
(0,0,0)
(0,0,0)
(0,0,0)
(0,0,0)
(-161200.031501945,13941.582215499,10969.2778895521)
(-166019.516684015,12842.0188578419,22201.8995565833)
(-176647.330442758,10345.2611071182,33707.9521998829)
(-195112.420512059,5762.43212196318,44964.7614285578)
(-224922.748605068,-1752.2898279234,53675.5607959624)
(-270771.666515168,-12469.6605691896,52458.7730918038)
(-336626.713132832,-23208.373447124,19154.8851366862)
(-418166.864842524,-23224.8668423324,-104474.170992997)
(-483388.639597404,-14273.69879824,-418329.624130827)
(-420132.874630232,-6060.79187610363,-987093.312982147)
(0,0,0)
(0,0,0)
(0,0,0)
(0,0,0)
(0,0,0)
(0,0,0)
(-166648.977566138,28438.7269658558,9856.94643426909)
(-171207.926626757,26364.3817509248,19670.1528717371)
(-181245.22554479,21518.8301035061,29131.0956987536)
(-198724.961379054,12254.7794112452,37449.4555113892)
(-227166.849123479,-4415.71952919415,42928.792286165)
(-271682.68932296,-32175.2452166014,41703.8705224721)
(-337146.190127797,-67366.4982033031,19140.2676096291)
(-416239.523393945,-66484.5065155474,-95491.7702947387)
(-480261.482305984,-35537.2948108711,-410099.534168063)
(-418213.92282705,-13504.8506807437,-981040.740726081)
(0,0,0)
(0,0,0)
(0,0,0)
(0,0,0)
(0,0,0)
(0,0,0)
(-178598.919277714,43584.0012562349,7766.28368358407)
(-182610.78408819,40836.7499869446,14837.8345732071)
(-191468.42405233,34355.8660191107,19909.4963252344)
(-206942.169014211,21178.9518355268,20845.1138001734)
(-232554.227938787,-5832.30849118447,15213.1162376638)
(-275259.345164587,-63127.2444870526,6529.84208637136)
(-347417.100444222,-173203.565335796,20016.3799390396)
(-416440.223948027,-171079.931343248,-64531.6446653109)
(-472547.220849652,-69430.4872358119,-388063.022798619)
(-413437.086571215,-21662.8833501769,-967521.728660094)
(0,0,0)
(0,0,0)
(0,0,0)
(0,0,0)
(0,0,0)
(0,0,0)
(-199163.59472269,58077.8499031739,5068.28846599425)
(-202433.778616076,55275.4843129671,8367.68393111098)
(-209572.662247372,48718.0191538365,6761.24456850553)
(-221794.884709684,35023.8316182513,-6107.11420629667)
(-241891.68098993,3944.92105400042,-42058.7059523227)
(-281580.557595958,-84077.1436640281,-103540.868252225)
(-425106.571067061,-425125.75901741,22138.0035568675)
(-447191.667282886,-447308.196986755,37109.8689043926)
(-454462.719902853,-102083.307654293,-340279.671146053)
(-403738.45005585,-22979.6270642317,-945758.700264447)
(0,0,0)
(0,0,0)
(0,0,0)
(0,0,0)
(0,0,0)
(0,0,0)
(-231702.133558508,67680.2315100159,2369.93655179318)
(-234121.036121282,65509.6823488659,1854.8241303551)
(-239099.564798665,60713.0532186239,-6863.95332740535)
(-246294.872584591,51773.3135813064,-37132.0482458764)
(-251427.85129827,35629.7241454422,-130041.397776961)
(-226628.181222919,9075.11843935675,-444542.632212429)
(-7.50753526869657e-05,-2.15131398275855e-05,5.04210623607538e-05)