/*--------------------------------*- C++ -*----------------------------------*\
| =========                 |                                                 |
| \\      /  F ield         | foam-extend: Open Source CFD                    |
|  \\    /   O peration     | Version:     4.0                                |
|   \\  /    A nd           | Web:         http://www.foam-extend.org         |
|    \\/     M anipulation  |                                                 |
\*---------------------------------------------------------------------------*/
FoamFile
{
    version 2.0;
    format ascii;
    class volVectorField;
    location "Data/2359";
    object      E;
}
// * * * * * * * * * * * * * * * * * * * * * * * * * * * * * * * * * * * * * //

dimensions      [0 1 -1 0 0 0 0];

internalField   nonuniform List<vector>
4096
(
(0,0,0)
(0,0,0)
(0,0,0)
(0,0,0)
(0,0,0)
(0,0,0)
(0,0,0)
(0,0,0)
(0,0,0)
(0,0,0)
(0,0,0)
(0,0,0)
(0,0,0)
(0,0,0)
(0,0,0)
(0,0,0)
(0,0,0)
(0,0,0)
(0,0,0)
(0,0,0)
(0,0,0)
(0,0,0)
(0,0,0)
(0,0,0)
(0,0,0)
(0,0,0)
(0,0,0)
(0,0,0)
(0,0,0)
(0,0,0)
(0,0,0)
(0,0,0)
(0,0,0)
(0,0,0)
(0,0,0)
(0,0,0)
(0,0,0)
(0,0,0)
(0,0,0)
(0,0,0)
(0,0,0)
(0,0,0)
(0,0,0)
(0,0,0)
(0,0,0)
(0,0,0)
(0,0,0)
(0,0,0)
(0,0,0)
(0,0,0)
(0,0,0)
(0,0,0)
(0,0,0)
(0,0,0)
(0,0,0)
(0,0,0)
(0,0,0)
(0,0,0)
(0,0,0)
(0,0,0)
(0,0,0)
(0,0,0)
(0,0,0)
(0,0,0)
(0,0,0)
(0,0,0)
(0,0,0)
(0,0,0)
(0,0,0)
(0,0,0)
(0,0,0)
(0,0,0)
(0,0,0)
(0,0,0)
(0,0,0)
(0,0,0)
(0,0,0)
(0,0,0)
(0,0,0)
(0,0,0)
(0,0,0)
(0,0,0)
(0,0,0)
(0,0,0)
(0,0,0)
(0,0,0)
(0,0,0)
(0,0,0)
(0,0,0)
(0,0,0)
(0,0,0)
(0,0,0)
(0,0,0)
(0,0,0)
(0,0,0)
(0,0,0)
(0,0,0)
(0,0,0)
(0,0,0)
(0,0,0)
(0,0,0)
(0,0,0)
(0,0,0)
(0,0,0)
(0,0,0)
(0,0,0)
(0,0,0)
(0,0,0)
(0,0,0)
(0,0,0)
(0,0,0)
(0,0,0)
(0,0,0)
(0,0,0)
(0,0,0)
(0,0,0)
(0,0,0)
(0,0,0)
(0,0,0)
(0,0,0)
(0,0,0)
(0,0,0)
(0,0,0)
(0,0,0)
(0,0,0)
(0,0,0)
(0,0,0)
(0,0,0)
(0,0,0)
(0,0,0)
(0,0,0)
(0,0,0)
(0,0,0)
(0,0,0)
(0,0,0)
(0,0,0)
(0,0,0)
(0,0,0)
(0,0,0)
(0,0,0)
(0,0,0)
(0,0,0)
(0,0,0)
(0,0,0)
(0,0,0)
(0,0,0)
(0,0,0)
(0,0,0)
(0,0,0)
(0,0,0)
(0,0,0)
(0,0,0)
(0,0,0)
(0,0,0)
(0,0,0)
(0,0,0)
(0,0,0)
(0,0,0)
(0,0,0)
(0,0,0)
(0,0,0)
(0,0,0)
(0,0,0)
(0,0,0)
(0,0,0)
(0,0,0)
(0,0,0)
(0,0,0)
(0,0,0)
(0,0,0)
(0,0,0)
(0,0,0)
(0,0,0)
(0,0,0)
(0,0,0)
(0,0,0)
(0,0,0)
(0,0,0)
(0,0,0)
(0,0,0)
(0,0,0)
(0,0,0)
(0,0,0)
(0,0,0)
(0,0,0)
(0,0,0)
(0,0,0)
(0,0,0)
(0,0,0)
(0,0,0)
(0,0,0)
(0,0,0)
(0,0,0)
(0,0,0)
(0,0,0)
(0,0,0)
(0,0,0)
(0,0,0)
(0,0,0)
(0,0,0)
(0,0,0)
(0,0,0)
(0,0,0)
(0,0,0)
(0,0,0)
(0,0,0)
(0,0,0)
(0,0,0)
(0,0,0)
(0,0,0)
(0,0,0)
(0,0,0)
(0,0,0)
(0,0,0)
(0,0,0)
(0,0,0)
(0,0,0)
(0,0,0)
(0,0,0)
(0,0,0)
(0,0,0)
(0,0,0)
(0,0,0)
(0,0,0)
(0,0,0)
(0,0,0)
(0,0,0)
(0,0,0)
(0,0,0)
(0,0,0)
(0,0,0)
(0,0,0)
(0,0,0)
(0,0,0)
(0,0,0)
(0,0,0)
(0,0,0)
(0,0,0)
(0,0,0)
(0,0,0)
(0,0,0)
(0,0,0)
(0,0,0)
(0,0,0)
(0,0,0)
(0,0,0)
(0,0,0)
(0,0,0)
(0,0,0)
(0,0,0)
(0,0,0)
(0,0,0)
(0,0,0)
(0,0,0)
(0,0,0)
(0,0,0)
(0,0,0)
(0,0,0)
(0,0,0)
(0,0,0)
(0,0,0)
(0,0,0)
(0,0,0)
(0,0,0)
(0,0,0)
(0,0,0)
(0,0,0)
(0,0,0)
(0,0,0)
(0,0,0)
(0,0,0)
(0,0,0)
(0,0,0)
(0,0,0)
(0,0,0)
(0,0,0)
(0,0,0)
(0,0,0)
(0,0,0)
(0,0,0)
(0,0,0)
(0,0,0)
(0,0,0)
(0,0,0)
(0,0,0)
(0,0,0)
(0,0,0)
(0,0,0)
(0,0,0)
(0,0,0)
(0,0,0)
(0,0,0)
(0,0,0)
(0,0,0)
(0,0,0)
(0,0,0)
(0,0,0)
(0,0,0)
(0,0,0)
(0,0,0)
(0,0,0)
(0,0,0)
(0,0,0)
(0,0,0)
(0,0,0)
(0,0,0)
(0,0,0)
(0,0,0)
(0,0,0)
(0,0,0)
(0,0,0)
(0,0,0)
(0,0,0)
(0,0,0)
(0,0,0)
(0,0,0)
(0,0,0)
(0,0,0)
(0,0,0)
(0,0,0)
(0,0,0)
(0,0,0)
(0,0,0)
(0,0,0)
(0,0,0)
(0,0,0)
(0,0,0)
(0,0,0)
(0,0,0)
(0,0,0)
(0,0,0)
(0,0,0)
(0,0,0)
(0,0,0)
(0,0,0)
(0,0,0)
(0,0,0)
(0,0,0)
(0,0,0)
(0,0,0)
(0,0,0)
(0,0,0)
(0,0,0)
(0,0,0)
(0,0,0)
(0,0,0)
(0,0,0)
(0,0,0)
(0,0,0)
(0,0,0)
(0,0,0)
(0,0,0)
(0,0,0)
(0,0,0)
(0,0,0)
(0,0,0)
(0,0,0)
(0,0,0)
(0,0,0)
(0,0,0)
(0,0,0)
(0,0,0)
(0,0,0)
(0,0,0)
(0,0,0)
(0,0,0)
(0,0,0)
(0,0,0)
(0,0,0)
(0,0,0)
(0,0,0)
(0,0,0)
(0,0,0)
(0,0,0)
(0,0,0)
(0,0,0)
(0,0,0)
(0,0,0)
(0,0,0)
(0,0,0)
(0,0,0)
(0,0,0)
(0,0,0)
(0,0,0)
(0,0,0)
(0,0,0)
(0,0,0)
(0,0,0)
(0,0,0)
(0,0,0)
(0,0,0)
(0,0,0)
(0,0,0)
(0,0,0)
(0,0,0)
(0,0,0)
(0,0,0)
(0,0,0)
(0,0,0)
(0,0,0)
(0,0,0)
(0,0,0)
(0,0,0)
(0,0,0)
(0,0,0)
(0,0,0)
(0,0,0)
(0,0,0)
(0,0,0)
(0,0,0)
(0,0,0)
(0,0,0)
(0,0,0)
(0,0,0)
(0,0,0)
(0,0,0)
(0,0,0)
(0,0,0)
(0,0,0)
(0,0,0)
(0,0,0)
(0,0,0)
(0,0,0)
(0,0,0)
(0,0,0)
(0,0,0)
(0,0,0)
(0,0,0)
(0,0,0)
(0,0,0)
(0,0,0)
(0,0,0)
(0,0,0)
(0,0,0)
(0,0,0)
(0,0,0)
(0,0,0)
(0,0,0)
(0,0,0)
(0,0,0)
(0,0,0)
(0,0,0)
(0,0,0)
(0,0,0)
(0,0,0)
(0,0,0)
(0,0,0)
(0,0,0)
(0,0,0)
(0,0,0)
(0,0,0)
(0,0,0)
(0,0,0)
(0,0,0)
(0,0,0)
(0,0,0)
(0,0,0)
(0,0,0)
(0,0,0)
(0,0,0)
(0,0,0)
(0,0,0)
(0,0,0)
(0,0,0)
(0,0,0)
(0,0,0)
(0,0,0)
(0,0,0)
(0,0,0)
(0,0,0)
(0,0,0)
(0,0,0)
(0,0,0)
(0,0,0)
(0,0,0)
(0,0,0)
(0,0,0)
(0,0,0)
(0,0,0)
(0,0,0)
(0,0,0)
(0,0,0)
(0,0,0)
(0,0,0)
(0,0,0)
(0,0,0)
(0,0,0)
(0,0,0)
(0,0,0)
(0,0,0)
(0,0,0)
(0,0,0)
(0,0,0)
(0,0,0)
(0,0,0)
(0,0,0)
(0,0,0)
(0,0,0)
(0,0,0)
(0,0,0)
(0,0,0)
(0,0,0)
(0,0,0)
(0,0,0)
(0,0,0)
(0,0,0)
(0,0,0)
(0,0,0)
(0,0,0)
(0,0,0)
(0,0,0)
(0,0,0)
(0,0,0)
(0,0,0)
(0,0,0)
(0,0,0)
(0,0,0)
(0,0,0)
(0,0,0)
(0,0,0)
(0,0,0)
(0,0,0)
(0,0,0)
(0,0,0)
(0,0,0)
(0,0,0)
(0,0,0)
(0,0,0)
(0,0,0)
(0,0,0)
(0,0,0)
(0,0,0)
(0,0,0)
(0,0,0)
(0,0,0)
(0,0,0)
(0,0,0)
(0,0,0)
(0,0,0)
(0,0,0)
(0,0,0)
(0,0,0)
(0,0,0)
(0,0,0)
(0,0,0)
(0,0,0)
(0,0,0)
(0,0,0)
(0,0,0)
(0,0,0)
(0,0,0)
(0,0,0)
(0,0,0)
(0,0,0)
(0,0,0)
(0,0,0)
(0,0,0)
(0,0,0)
(0,0,0)
(0,0,0)
(0,0,0)
(0,0,0)
(0,0,0)
(0,0,0)
(0,0,0)
(0,0,0)
(0,0,0)
(0,0,0)
(0,0,0)
(0,0,0)
(0,0,0)
(0,0,0)
(0,0,0)
(0,0,0)
(0,0,0)
(0,0,0)
(0,0,0)
(0,0,0)
(0,0,0)
(0,0,0)
(0,0,0)
(0,0,0)
(0,0,0)
(0,0,0)
(0,0,0)
(0,0,0)
(0,0,0)
(0,0,0)
(0,0,0)
(0,0,0)
(0,0,0)
(0,0,0)
(0,0,0)
(0,0,0)
(0,0,0)
(0,0,0)
(0,0,0)
(0,0,0)
(0,0,0)
(0,0,0)
(0,0,0)
(0,0,0)
(0,0,0)
(0,0,0)
(0,0,0)
(0,0,0)
(0,0,0)
(0,0,0)
(0,0,0)
(0,0,0)
(0,0,0)
(0,0,0)
(0,0,0)
(0,0,0)
(0,0,0)
(0,0,0)
(0,0,0)
(0,0,0)
(0,0,0)
(0,0,0)
(0,0,0)
(0,0,0)
(0,0,0)
(0,0,0)
(0,0,0)
(0,0,0)
(0,0,0)
(0,0,0)
(0,0,0)
(0,0,0)
(0,0,0)
(0,0,0)
(0,0,0)
(0,0,0)
(0,0,0)
(0,0,0)
(0,0,0)
(0,0,0)
(0,0,0)
(0,0,0)
(0,0,0)
(0,0,0)
(0,0,0)
(0,0,0)
(0,0,0)
(0,0,0)
(0,0,0)
(0,0,0)
(0,0,0)
(0,0,0)
(0,0,0)
(0,0,0)
(0,0,0)
(0,0,0)
(0,0,0)
(0,0,0)
(0,0,0)
(0,0,0)
(0,0,0)
(0,0,0)
(0,0,0)
(0,0,0)
(0,0,0)
(0,0,0)
(0,0,0)
(0,0,0)
(0,0,0)
(0,0,0)
(0,0,0)
(0,0,0)
(0,0,0)
(0,0,0)
(0,0,0)
(0,0,0)
(0,0,0)
(0,0,0)
(0,0,0)
(0,0,0)
(0,0,0)
(0,0,0)
(0,0,0)
(0,0,0)
(0,0,0)
(0,0,0)
(0,0,0)
(0,0,0)
(0,0,0)
(0,0,0)
(0,0,0)
(0,0,0)
(0,0,0)
(0,0,0)
(0,0,0)
(0,0,0)
(0,0,0)
(0,0,0)
(0,0,0)
(0,0,0)
(0,0,0)
(0,0,0)
(0,0,0)
(0,0,0)
(0,0,0)
(0,0,0)
(0,0,0)
(0,0,0)
(0,0,0)
(0,0,0)
(0,0,0)
(0,0,0)
(0,0,0)
(0,0,0)
(0,0,0)
(0,0,0)
(0,0,0)
(0,0,0)
(0,0,0)
(0,0,0)
(0,0,0)
(0,0,0)
(0,0,0)
(0,0,0)
(0,0,0)
(0,0,0)
(0,0,0)
(0,0,0)
(0,0,0)
(0,0,0)
(0,0,0)
(0,0,0)
(0,0,0)
(0,0,0)
(0,0,0)
(0,0,0)
(0,0,0)
(0,0,0)
(0,0,0)
(0,0,0)
(0,0,0)
(0,0,0)
(0,0,0)
(0,0,0)
(0,0,0)
(0,0,0)
(0,0,0)
(0,0,0)
(0,0,0)
(0,0,0)
(0,0,0)
(0,0,0)
(0,0,0)
(0,0,0)
(0,0,0)
(0,0,0)
(0,0,0)
(0,0,0)
(0,0,0)
(0,0,0)
(0,0,0)
(0,0,0)
(0,0,0)
(0,0,0)
(0,0,0)
(0,0,0)
(0,0,0)
(0,0,0)
(0,0,0)
(0,0,0)
(0,0,0)
(0,0,0)
(0,0,0)
(0,0,0)
(0,0,0)
(0,0,0)
(0,0,0)
(0,0,0)
(0,0,0)
(0,0,0)
(0,0,0)
(0,0,0)
(0,0,0)
(0,0,0)
(0,0,0)
(0,0,0)
(0,0,0)
(0,0,0)
(0,0,0)
(0,0,0)
(0,0,0)
(0,0,0)
(0,0,0)
(0,0,0)
(0,0,0)
(0,0,0)
(0,0,0)
(0,0,0)
(0,0,0)
(0,0,0)
(0,0,0)
(0,0,0)
(0,0,0)
(0,0,0)
(0,0,0)
(0,0,0)
(0,0,0)
(0,0,0)
(0,0,0)
(0,0,0)
(0,0,0)
(0,0,0)
(0,0,0)
(0,0,0)
(0,0,0)
(0,0,0)
(0,0,0)
(0,0,0)
(0,0,0)
(0,0,0)
(0,0,0)
(-125710.105906922,66905.3196609647,58804.7862459557)
(-132906.307749612,64169.2246336766,127541.869361891)
(-149619.707313375,58425.1821603585,218736.394514908)
(-181234.872375894,49400.1468416413,350571.120049167)
(-238289.369215756,37193.6134614499,551666.875803481)
(-340703.041256117,23203.6226156523,869166.294443939)
(-526201.045375314,10459.0467834696,1384908.29303581)
(-861488.98158017,2652.22109580685,2243745.05352021)
(-1420976.14795239,41.078956903522,3664680.12251566)
(-1979944.96888963,-153.078449721454,5644778.16985505)
(0,0,0)
(0,0,0)
(0,0,0)
(0,0,0)
(0,0,0)
(0,0,0)
(-132903.173139826,143785.649615344,56022.8431854444)
(-140159.213428933,138563.846676806,121787.434571253)
(-157129.212006065,127628.050011636,209713.778726036)
(-189496.262488763,110192.316896127,338417.87116032)
(-248160.740035666,86085.5491079978,537686.675549427)
(-353047.711316357,57477.0966418025,856460.912839633)
(-540597.616410963,30375.0917894664,1377142.4842446)
(-874608.141282367,13215.3679897581,2241187.47863293)
(-1429718.84578994,6459.75153242824,3664487.6518474)
(-1984024.03082598,3355.61638725742,5645002.98783633)
(0,0,0)
(0,0,0)
(0,0,0)
(0,0,0)
(0,0,0)
(0,0,0)
(-149407.162148171,242385.633516755,50807.1782467594)
(-156807.434938462,235357.740303316,110820.719558715)
(-174322.486951895,220518.219080856,192253.037441396)
(-208307.533638565,196446.712965237,314306.175010852)
(-270738.502363576,162114.604868387,509015.621614027)
(-382153.385722516,119262.220046827,829383.883931517)
(-576176.544278428,75907.2054763136,1360028.31452311)
(-907370.172487299,46150.7753421193,2234463.07965803)
(-1450829.6952098,30421.5057732486,3661331.02062704)
(-1993594.30930011,16533.0340669963,5641747.91224746)
(0,0,0)
(0,0,0)
(0,0,0)
(0,0,0)
(0,0,0)
(0,0,0)
(-180276.71223946,378806.646467222,43855.6992889941)
(-187813.634033625,370987.333769858,96039.739856079)
(-206021.072513772,354333.923756394,168245.107694306)
(-242359.751823011,326983.398663861,280068.173818686)
(-310977.352627146,286920.506407575,466239.624906651)
(-434902.768140414,234310.697548534,786093.915545362)
(-644323.685996876,175981.899615872,1330342.90740267)
(-970749.122561355,128369.847931959,2218872.95737413)
(-1489515.51365572,91250.0513692509,3647559.9254338)
(-2010491.92784031,49140.0835946036,5625444.80374666)
(0,0,0)
(0,0,0)
(0,0,0)
(0,0,0)
(0,0,0)
(0,0,0)
(-235622.407212093,578310.950354181,36118.1033251313)
(-243150.883770129,570725.220480267,79531.1003848486)
(-261735.129938838,554534.492769539,141065.661310542)
(-300032.146046322,527825.526962416,240255.679058308)
(-375005.593904698,488313.23659111,413868.542779473)
(-514401.321412888,434702.404314032,727878.15742684)
(-748048.271010003,369074.839155433,1282833.48889728)
(-1067200.95582907,296496.898266789,2181907.39439154)
(-1545665.17422346,213159.728807077,3605662.89117724)
(-2034849.16142806,113001.831926623,5576650.30427326)
(0,0,0)
(0,0,0)
(0,0,0)
(0,0,0)
(0,0,0)
(0,0,0)
(-335554.485995789,885300.753431725,28564.6829182481)
(-342710.609446558,878532.248980197,63468.2638648711)
(-360681.879378891,864087.625280067,114597.010733235)
(-398604.367249596,840023.440700384,201003.46424486)
(-474363.754167737,803223.685812942,360456.76919077)
(-616390.626556202,749154.994986813,662394.80507421)
(-850759.521115106,671816.353549303,1210412.81179546)
(-1155452.17307117,563592.35654794,2098769.52658548)
(-1606504.03072871,412679.562042093,3505753.72407924)
(-2065513.29997663,220316.997292002,5463951.85869033)
(0,0,0)
(0,0,0)
(0,0,0)
(0,0,0)
(0,0,0)
(0,0,0)
(-518948.047094132,1382361.34146531,21887.459060548)
(-525278.817270013,1376496.98561135,49201.5396994153)
(-541410.335280947,1363905.61831022,90793.8819502167)
(-576061.995744503,1342429.61323034,164449.705164773)
(-646443.053669526,1307569.97352833,306546.471118903)
(-779892.353216317,1250449.04295397,585144.776368056)
(-999847.59750666,1154506.67048464,1102302.05693939)
(-1276920.55941934,994762.741060469,1948052.23184621)
(-1697155.39400795,744307.302681148,3313579.88521505)
(-2115523.6205467,405548.327473545,5243872.17558034)
(0,0,0)
(0,0,0)
(0,0,0)
(0,0,0)
(0,0,0)
(0,0,0)
(-854406.357670355,2220671.22855368,16096.4705819789)
(-859470.526400503,2215353.2525737,36710.7300201453)
(-872468.696380606,2203651.80405236,69433.2406586247)
(-900646.120628222,2182774.81803945,129734.156477723)
(-958486.701658982,2146284.65672466,249506.174940375)
(-1069430.26992649,2080179.77766989,489205.710150938)
(-1253641.59088219,1954696.45197976,942657.519537981)
(-1477964.49778801,1717569.92001264,1697814.83837383)
(-1861743.35493066,1328806.0115884,2975059.48439724)
(-2211147.77447499,753177.47497409,4838578.11137162)
(0,0,0)
(0,0,0)
(0,0,0)
(0,0,0)
(0,0,0)
(0,0,0)
(-1416176.64492716,3626048.32090418,10799.552576624)
(-1419640.34715096,3620731.89112695,25061.2611743459)
(-1428454.39736581,3608548.19787512,48619.264717346)
(-1447391.46320538,3585424.67122562,93360.8747365332)
(-1485601.99403426,3541836.432742,183411.09275345)
(-1557399.38270384,3457360.61301813,363629.640109055)
(-1677995.42390281,3290823.47693974,705498.039051895)
(-1857165.86464764,2971048.30951735,1309185.51419484)
(-2165303.30107448,2403628.51912262,2399666.30773502)
(-2377930.16033256,1445183.03074384,4085590.91229784)
(0,0,0)
(0,0,0)
(0,0,0)
(0,0,0)
(0,0,0)
(0,0,0)
(-1977739.08301398,5598272.79886389,5514.60505430118)
(-1979469.51160266,5592752.98476207,12963.0230218488)
(-1983828.83171546,5579782.89490322,25557.1577092471)
(-1993122.73867438,5554245.30101474,49859.266594553)
(-2011635.35783478,5504397.14041221,98933.9167591557)
(-2046227.04853346,5405550.2970008,196971.281309928)
(-2106591.47755617,5208753.71551284,385632.520292998)
(-2208284.62789543,4823219.9818107,741745.47589503)
(-2377376.29638944,4081541.18252642,1441209.10888062)
(-2394267.27991759,2640311.80805977,2640347.61148231)
(0,0,0)
(0,0,0)
(0,0,0)
(0,0,0)
(0,0,0)
(0,0,0)
(0,0,0)
(0,0,0)
(0,0,0)
(0,0,0)
(0,0,0)
(0,0,0)
(0,0,0)
(0,0,0)
(0,0,0)
(0,0,0)
(0,0,0)
(0,0,0)
(0,0,0)
(0,0,0)
(0,0,0)
(0,0,0)
(0,0,0)
(0,0,0)
(0,0,0)
(0,0,0)
(0,0,0)
(0,0,0)
(0,0,0)
(0,0,0)
(0,0,0)
(0,0,0)
(0,0,0)
(0,0,0)
(0,0,0)
(0,0,0)
(0,0,0)
(0,0,0)
(0,0,0)
(0,0,0)
(0,0,0)
(0,0,0)
(0,0,0)
(0,0,0)
(0,0,0)
(0,0,0)
(0,0,0)
(0,0,0)
(0,0,0)
(0,0,0)
(0,0,0)
(0,0,0)
(0,0,0)
(0,0,0)
(0,0,0)
(0,0,0)
(0,0,0)
(0,0,0)
(0,0,0)
(0,0,0)
(0,0,0)
(0,0,0)
(0,0,0)
(0,0,0)
(0,0,0)
(0,0,0)
(0,0,0)
(0,0,0)
(0,0,0)
(0,0,0)
(0,0,0)
(0,0,0)
(0,0,0)
(0,0,0)
(0,0,0)
(0,0,0)
(0,0,0)
(0,0,0)
(0,0,0)
(0,0,0)
(0,0,0)
(0,0,0)
(0,0,0)
(0,0,0)
(0,0,0)
(0,0,0)
(0,0,0)
(0,0,0)
(0,0,0)
(0,0,0)
(0,0,0)
(0,0,0)
(0,0,0)
(0,0,0)
(0,0,0)
(0,0,0)
(0,0,0)
(0,0,0)
(0,0,0)
(0,0,0)
(0,0,0)
(0,0,0)
(18569144.3501904,59616.7202132079,51539.6355509748)
(18557071.1892486,56825.1571780872,110747.793236145)
(18529299.2800125,50824.7840327789,187014.833738868)
(18477335.3234221,41050.0121830896,293405.43761918)
(18384747.3933186,27268.3226183534,449111.16432794)
(18220015.0568305,10806.9766759974,683596.901426642)
(17917752.4968825,-3969.09222489195,1049623.2632551)
(17320361.4167097,-10480.9210275573,1684264.5978543)
(15972312.2254651,-8698.35830893861,3105685.39460723)
(12311330.9205197,-4242.62792847363,7624662.94498784)
(0,0,0)
(0,0,0)
(0,0,0)
(0,0,0)
(0,0,0)
(0,0,0)
(18556885.3234494,127137.384742051,48701.6507434366)
(18544802.2236412,121832.151334604,104744.031378256)
(18516784.8254808,110381.364029553,177284.225756062)
(18463826.8859429,91313.0260295471,279708.875339397)
(18368657.2636154,63466.0921677923,432703.914000345)
(18199281.2773696,28340.3460473438,668852.367804524)
(17892382.6761936,-5190.79947984646,1043104.59431648)
(17297460.7830879,-19502.8727157515,1686068.43349594)
(15958072.6059358,-14579.2651175472,3110168.70044012)
(12305094.4479315,-6186.06443651648,7629004.47005212)
(0,0,0)
(0,0,0)
(0,0,0)
(0,0,0)
(0,0,0)
(0,0,0)
(18528965.6664079,211404.186965374,43371.181082043)
(18516840.9903594,204306.061991032,93259.6569891642)
(18488264.7439737,188815.148062701,158249.453891953)
(18432984.5515494,162371.110048676,251910.096546355)
(18331191.3115938,121870.152821165,397587.033797031)
(18147899.9424143,66530.8572796113,635354.006289428)
(17823393.9940976,7792.36912930617,1028811.11116578)
(17234123.2865068,-17174.7180514361,1691000.30936896)
(15921222.2489678,-8180.17058469907,3118560.08251988)
(12289786.7689796,-313.536879852541,7635317.28854504)
(0,0,0)
(0,0,0)
(0,0,0)
(0,0,0)
(0,0,0)
(0,0,0)
(18477503.0570253,323341.802900901,36293.4266611532)
(18465380.3116425,315599.409697237,77816.9451403702)
(18436082.7071225,298607.007008267,131932.118419992)
(18377160.5123814,269264.687327688,211529.088798087)
(18263232.2406038,222841.511021023,342358.949228783)
(18048526.2964583,154773.64943213,576697.904339044)
(17670040.7890121,72222.5500701677,1003914.06025075)
(17089965.2950744,31923.2931693193,1700112.44325573)
(15846757.3745101,35106.665729168,3126563.53063739)
(12261146.511269,24777.3301129586,7635845.03639685)
(0,0,0)
(0,0,0)
(0,0,0)
(0,0,0)
(0,0,0)
(0,0,0)
(18386872.4842737,478286.04429171,28571.6789848365)
(18375003.3557944,471095.929476725,60931.7315023065)
(18345548.3551249,455505.16196378,102760.903344594)
(18283529.2031252,429178.416264622,165296.637097535)
(18155714.0164688,388936.196253334,274493.153353315)
(17893931.0474866,332692.57376725,494252.671980172)
(17394424.4675418,266328.416880807,963684.878479263)
(16822778.4156111,208220.121226615,1703419.49084336)
(15730135.6563559,152316.174043447,3116419.96381106)
(12218643.960293,82362.6606171859,7611352.32344723)
(0,0,0)
(0,0,0)
(0,0,0)
(0,0,0)
(0,0,0)
(0,0,0)
(18225586.8316743,701757.148484739,21398.3899983338)
(18214522.0562832,695810.649559523,45461.8160473343)
(18186477.5943048,683182.475308814,76635.8408800613)
(18125580.7060286,662415.747553279,125224.248174789)
(17996285.1968544,631098.738312229,218423.566955229)
(17727034.4738367,585646.036422158,428055.815768856)
(17221205.6434412,522692.302411538,905737.577543373)
(16674759.3148791,442072.05733813,1647684.96534301)
(15630813.0200262,322011.815003574,3046683.08548943)
(12169908.0898337,170316.65429812,7529318.51385956)
(0,0,0)
(0,0,0)
(0,0,0)
(0,0,0)
(0,0,0)
(0,0,0)
(17926466.8536102,1046818.83429048,15534.2253514547)
(17916829.1171241,1042221.19569746,33026.5566808965)
(17891968.1372276,1032727.66413316,56113.7072095671)
(17836691.04535,1017724.93011355,94062.2954162401)
(17716145.4737149,995490.740020166,173092.578185357)
(17458706.046352,960924.498046984,365226.528853637)
(16968131.7127095,900685.40973393,825264.923176504)
(16474949.540524,793672.477587415,1527805.21484538)
(15483780.0609125,579713.580250865,2895178.80653887)
(12086787.3501093,309918.709181877,7359276.59286075)
(0,0,0)
(0,0,0)
(0,0,0)
(0,0,0)
(0,0,0)
(0,0,0)
(17328535.6793969,1658879.6007198,11008.0083649106)
(17320926.7493229,1655165.74892002,23676.9912804303)
(17301124.0332683,1647596.8807636,41225.8568625623)
(17256487.1228316,1635946.70428683,71881.6510909265)
(17157176.1823086,1619162.79733721,138557.521667597)
(16938803.1567316,1592241.2753892,305018.129528855)
(16509415.3497961,1530317.76796948,718339.642476395)
(16187769.8237334,1338296.52279104,1313992.08761272)
(15187167.5826525,1025212.39453934,2625593.14760253)
(11894408.1443018,586374.318046248,7049592.43182288)
(0,0,0)
(0,0,0)
(0,0,0)
(0,0,0)
(0,0,0)
(0,0,0)
(15977012.529055,3064377.08929334,7324.14930580096)
(15971871.3003873,3060796.67945622,16192.3830928784)
(15958653.2771454,3053065.41888551,29626.9823212777)
(15929479.2850465,3039598.11372086,55115.6364968308)
(15867336.8948778,3015762.85598186,111587.500801625)
(15740881.8308195,2968522.62633027,243035.748198726)
(15512898.5427235,2862170.64951797,526299.71188548)
(15192618.6864683,2619835.34601461,1000987.14940749)
(14288469.5131735,2191496.89789425,2186940.64366607)
(11309194.9718241,1428829.11676089,6463371.52465618)
(0,0,0)
(0,0,0)
(0,0,0)
(0,0,0)
(0,0,0)
(0,0,0)
(12313023.3992842,7575849.85887191,3775.55998464787)
(12310466.8317327,7572095.1078538,8551.60011312091)
(12304002.8926435,7563570.36370221,16225.742798972)
(12289996.7455393,7547373.97309453,31341.211073266)
(12261093.272494,7516043.3519812,64342.8966067376)
(12204247.5989692,7451774.5503554,136627.136940457)
(12099005.7250433,7315270.56746468,283940.828255805)
(11897476.1675211,7031387.3677376,572638.822977885)
(11309667.3379167,6458823.28532499,1424279.61310253)
(9195770.99416536,5034542.41555861,5034538.85208322)
(0,0,0)
(0,0,0)
(0,0,0)
(0,0,0)
(0,0,0)
(0,0,0)
(0,0,0)
(0,0,0)
(0,0,0)
(0,0,0)
(0,0,0)
(0,0,0)
(0,0,0)
(0,0,0)
(0,0,0)
(0,0,0)
(0,0,0)
(0,0,0)
(0,0,0)
(0,0,0)
(0,0,0)
(0,0,0)
(0,0,0)
(0,0,0)
(0,0,0)
(0,0,0)
(0,0,0)
(0,0,0)
(0,0,0)
(0,0,0)
(0,0,0)
(0,0,0)
(0,0,0)
(0,0,0)
(0,0,0)
(0,0,0)
(0,0,0)
(0,0,0)
(0,0,0)
(0,0,0)
(0,0,0)
(0,0,0)
(0,0,0)
(0,0,0)
(0,0,0)
(0,0,0)
(0,0,0)
(0,0,0)
(0,0,0)
(0,0,0)
(0,0,0)
(0,0,0)
(0,0,0)
(0,0,0)
(0,0,0)
(0,0,0)
(0,0,0)
(0,0,0)
(0,0,0)
(0,0,0)
(0,0,0)
(0,0,0)
(0,0,0)
(0,0,0)
(0,0,0)
(0,0,0)
(0,0,0)
(0,0,0)
(0,0,0)
(0,0,0)
(0,0,0)
(0,0,0)
(0,0,0)
(0,0,0)
(0,0,0)
(0,0,0)
(0,0,0)
(0,0,0)
(0,0,0)
(0,0,0)
(0,0,0)
(0,0,0)
(0,0,0)
(0,0,0)
(0,0,0)
(0,0,0)
(0,0,0)
(0,0,0)
(0,0,0)
(0,0,0)
(0,0,0)
(0,0,0)
(0,0,0)
(0,0,0)
(0,0,0)
(0,0,0)
(0,0,0)
(0,0,0)
(0,0,0)
(0,0,0)
(0,0,0)
(0,0,0)
(-323466.11755942,47194.6040681944,39405.0518201218)
(-336791.290188767,44386.148546683,82870.5708493322)
(-366925.183975059,38139.385574244,134944.837401271)
(-421847.070721117,27383.3350406418,200733.084642452)
(-515916.423206328,11084.4454282065,284301.643877708)
(-672943.481131253,-9995.91464142451,381245.284619558)
(-929776.184512941,-29389.5847508742,452152.738904461)
(-1336283.26281599,-33406.7879596219,336193.394528264)
(-1919241.46307537,-22938.6921567797,-555325.036635989)
(-2352833.11036974,-10482.3967982539,-4686689.42080964)
(0,0,0)
(0,0,0)
(0,0,0)
(0,0,0)
(0,0,0)
(0,0,0)
(-337529.370427856,99052.3346858632,36546.1513980811)
(-350610.837629239,93725.7957541391,76608.7535995946)
(-380429.085768701,81728.6725866429,124222.56597525)
(-435402.013629086,60337.6355625707,184486.35316385)
(-530939.539998685,25907.9499352801,263248.840409415)
(-692238.879998148,-23100.2475523828,361862.518826645)
(-955089.970885785,-74180.0168881995,448114.786181815)
(-1357697.62289815,-82799.5387148025,346655.131061498)
(-1929987.23511413,-51371.7025797935,-542862.829326897)
(-2356642.76298713,-21460.3762251422,-4676158.45084282)
(0,0,0)
(0,0,0)
(0,0,0)
(0,0,0)
(0,0,0)
(0,0,0)
(-368992.470662623,159816.09074411,31183.5691508413)
(-381623.099329558,152765.806504589,64596.8362279358)
(-410919.139316349,136602.515155823,102896.065087268)
(-466442.141937448,106529.102013886,150120.480261311)
(-566961.069041281,53887.6464600036,214282.352510237)
(-744920.571145913,-32832.1903050544,310823.996961638)
(-1039958.87693909,-145528.508757162,439514.548005769)
(-1431990.48147004,-161262.951886932,378080.917293119)
(-1962605.56782831,-82543.8060849283,-512929.974266972)
(-2367133.87458573,-28879.8137800288,-4654600.70500825)
(0,0,0)
(0,0,0)
(0,0,0)
(0,0,0)
(0,0,0)
(0,0,0)
(-425373.622231567,232562.08382415,24119.874315386)
(-437348.239012461,225131.335202812,48472.0844105798)
(-465840.187786201,207996.749620964,72989.9329926805)
(-522526.094072921,175563.010685681,97631.8189136852)
(-634229.764451837,115266.001808315,127704.656759517)
(-861010.505742743,156.645142588625,198241.811651438)
(-1303677.66246501,-203410.718410037,423831.660919879)
(-1675091.30637223,-235258.817213838,456873.31583195)
(-2044292.38804026,-81502.553292222,-459128.98627179)
(-2389596.17636304,-17739.6116474515,-4625537.31263388)
(0,0,0)
(0,0,0)
(0,0,0)
(0,0,0)
(0,0,0)
(0,0,0)
(-520135.886755184,316884.366011986,16675.2769796019)
(-531148.655718376,310506.132110356,31441.6797233424)
(-558054.802411944,296297.180214289,40733.5948053185)
(-614774.758695683,271110.762167038,37478.993283447)
(-739723.809299345,229426.41518055,12745.5938177738)
(-1059657.9032873,165704.181717129,-5223.80384433142)
(-2105277.11043237,93027.4967516522,392028.74710659)
(-2497312.81770875,60125.1936612807,610725.157689802)
(-2204446.59501446,52965.1350982474,-395171.091191672)
(-2426359.08440566,33622.4954773577,-4607540.96547914)
(0,0,0)
(0,0,0)
(0,0,0)
(0,0,0)
(0,0,0)
(0,0,0)
(-676341.143513686,402480.589164886,10320.9401736387)
(-685998.743852885,397951.887629502,17385.17292903)
(-710116.425412946,388512.509729736,15753.0512698747)
(-762894.038426246,373396.121410714,-4068.37538053499)
(-884396.760522309,350850.5600722,-50821.3747569428)
(-1203528.38573649,317177.674682885,-77742.8200109414)
(-2198309.79645822,269487.59526981,359301.709508753)
(-2557710.63497709,242160.24456651,603725.796598232)
(-2279138.32614399,174933.970693644,-414302.504688469)
(-2463105.84264799,87181.239753023,-4640858.12834379)
(0,0,0)
(0,0,0)
(0,0,0)
(0,0,0)
(0,0,0)
(0,0,0)
(-931693.749442472,448754.729551911,5875.6508041129)
(-939673.862181909,446184.724571407,8134.98130673635)
(-959991.248494551,441750.442511465,845.622385575322)
(-1005985.42264708,437385.723742975,-26478.3238110498)
(-1117533.15563467,436395.061365485,-84355.0076162269)
(-1430046.09721855,440894.311136763,-125330.312360969)
(-2467693.64298308,441874.331637072,332097.495102948)
(-2799862.60917153,506426.462279024,536632.615224493)
(-2391832.43091183,283051.53166757,-501883.265786343)
(-2523647.48938428,117507.662204384,-4727785.66060579)
(0,0,0)
(0,0,0)
(0,0,0)
(0,0,0)
(0,0,0)
(0,0,0)
(-1339367.03643804,307252.277753411,3394.35577195626)
(-1345383.51697038,306021.747418712,3856.7873564432)
(-1360901.15311984,305041.057076595,-3419.45268201621)
(-1396966.66516052,308834.089474057,-27424.8422824503)
(-1489278.29704777,329226.003571745,-79812.116993636)
(-1776008.49760215,394241.954600358,-124358.917985024)
(-2909497.18440286,533741.343035306,396675.792954326)
(-2371550.24581184,343068.656348427,313342.856568731)
(-2481624.97689732,126437.886544097,-667261.750619367)
(-2617344.95707605,1099.84874662138,-4845111.6476452)
(0,0,0)
(0,0,0)
(0,0,0)
(0,0,0)
(0,0,0)
(0,0,0)
(-1924199.07741561,-599755.332964359,2208.40532687041)
(-1928117.6493307,-600753.518205954,2961.80880799657)
(-1938051.64177706,-601725.447207853,422.420153404012)
(-1960215.11481291,-600020.980965349,-7038.92140924519)
(-2011052.34468469,-590579.258758855,-14855.2313776581)
(-2132638.08848412,-568184.096579188,15079.9272439637)
(-2398466.46573336,-551813.821813655,205989.288688238)
(-2485665.55489842,-675440.315281101,96771.6898229573)
(-2714421.73443307,-787442.435861249,-792467.552026586)
(-2757404.25823053,-684678.464299429,-4846100.82078736)
(0,0,0)
(0,0,0)
(0,0,0)
(0,0,0)
(0,0,0)
(0,0,0)
(-2356628.40459671,-4737357.6150927,1243.27414779925)
(-2358543.67120144,-4738572.4574962,2061.9045106521)
(-2363285.04197004,-4740577.73976354,2191.31981839062)
(-2373524.59493177,-4742753.23148753,2434.09894998791)
(-2395376.13570075,-4745195.78679647,7509.22332083812)
(-2441184.02427703,-4752651.43244067,31397.3705670522)
(-2525834.38565969,-4783962.63505526,82375.4826501939)
(-2620051.1603598,-4866338.62734338,-15209.6892682714)
(-2758206.21061454,-4851103.91704325,-689685.471416573)
(-2661806.04321294,-4161405.68377417,-4161392.02642497)
(0,0,0)
(0,0,0)
(0,0,0)
(0,0,0)
(0,0,0)
(0,0,0)
(0,0,0)
(0,0,0)
(0,0,0)
(0,0,0)
(0,0,0)
(0,0,0)
(0,0,0)
(0,0,0)
(0,0,0)
(0,0,0)
(0,0,0)
(0,0,0)
(0,0,0)
(0,0,0)
(0,0,0)
(0,0,0)
(0,0,0)
(0,0,0)
(0,0,0)
(0,0,0)
(0,0,0)
(0,0,0)
(0,0,0)
(0,0,0)
(0,0,0)
(0,0,0)
(0,0,0)
(0,0,0)
(0,0,0)
(0,0,0)
(0,0,0)
(0,0,0)
(0,0,0)
(0,0,0)
(0,0,0)
(0,0,0)
(0,0,0)
(0,0,0)
(0,0,0)
(0,0,0)
(0,0,0)
(0,0,0)
(0,0,0)
(0,0,0)
(0,0,0)
(0,0,0)
(0,0,0)
(0,0,0)
(0,0,0)
(0,0,0)
(0,0,0)
(0,0,0)
(0,0,0)
(0,0,0)
(0,0,0)
(0,0,0)
(0,0,0)
(0,0,0)
(0,0,0)
(0,0,0)
(0,0,0)
(0,0,0)
(0,0,0)
(0,0,0)
(0,0,0)
(0,0,0)
(0,0,0)
(0,0,0)
(0,0,0)
(0,0,0)
(0,0,0)
(0,0,0)
(0,0,0)
(0,0,0)
(0,0,0)
(0,0,0)
(0,0,0)
(0,0,0)
(0,0,0)
(0,0,0)
(0,0,0)
(0,0,0)
(0,0,0)
(0,0,0)
(0,0,0)
(0,0,0)
(0,0,0)
(0,0,0)
(0,0,0)
(0,0,0)
(0,0,0)
(0,0,0)
(0,0,0)
(0,0,0)
(0,0,0)
(0,0,0)
(-382468.159294517,32992.4050893939,26009.6366457049)
(-393767.198721086,30396.6616047134,52588.8835733146)
(-418669.741673596,24454.7860757951,79878.6551960572)
(-462216.552306723,13677.4309305799,106570.70585108)
(-532539.598209105,-4007.60609738458,127201.486951244)
(-640725.841662597,-29330.1731233019,124314.020605892)
(-796252.015649723,-54765.4600849944,45555.3118276697)
(-989103.197937606,-54862.1027701725,-246762.650280546)
(-1143397.66469069,-33695.4306205287,-988911.018044669)
(-993635.39256728,-14283.6666409366,-2333825.06920618)
(0,0,0)
(0,0,0)
(0,0,0)
(0,0,0)
(0,0,0)
(0,0,0)
(-395278.216491942,67352.0046743812,23389.2464790969)
(-405921.128598444,62445.7580671929,46650.4409858227)
(-429419.59828367,50985.1620327913,69110.577543798)
(-470627.861831847,29123.8296669176,88890.0270102163)
(-537762.517216793,-10173.5061173087,101878.904248252)
(-642833.496444274,-75779.7018170271,98923.0493881088)
(-797358.844710821,-159043.472107437,45469.9352355933)
(-984410.841006271,-157061.698022691,-225617.251403769)
(-1135832.18576057,-83961.8725657572,-969505.858812097)
(-988995.133501273,-31924.2317576477,-2319512.9231813)
(0,0,0)
(0,0,0)
(0,0,0)
(0,0,0)
(0,0,0)
(0,0,0)
(-423365.080987865,103250.081396229,18474.5336033981)
(-432766.387019176,96843.3183533157,35220.2610068893)
(-453526.701280455,81521.2433550456,47291.7416487395)
(-489981.818124898,50370.5147239005,49584.7327792101)
(-550445.03523646,-13404.5109926611,36299.7038497387)
(-651253.689333024,-148891.026312291,15744.1465321017)
(-821546.016854067,-409190.531280496,47478.3456201393)
(-984774.146396272,-404270.388704484,-152529.298771847)
(-1117505.96988965,-164149.567980116,-917441.201296142)
(-977683.090872097,-51298.0044171896,-2287518.21235024)
(0,0,0)
(0,0,0)
(0,0,0)
(0,0,0)
(0,0,0)
(0,0,0)
(-471873.257789632,137657.298178331,12092.4187759703)
(-479552.727527514,131191.241856073,19948.9837882704)
(-496294.511056471,115648.491575429,16276.0588381598)
(-525049.691354386,83249.4300797642,-14079.2592362404)
(-572448.715181056,9774.94511368127,-99039.7646133613)
(-666080.587730888,-198450.753625066,-244409.955312443)
(-1004752.18221146,-1004950.89803654,52424.9311900451)
(-1057192.09856195,-1057394.92206852,87650.2567438086)
(-1074769.72559089,-241571.840964609,-804450.132721069)
(-954783.878836747,-54480.3755601086,-2236080.05910446)
(0,0,0)
(0,0,0)
(0,0,0)
(0,0,0)
(0,0,0)
(0,0,0)
(-548635.420494105,160509.084737525,5647.74717972483)
(-554308.369204012,155489.64317629,4509.05934514271)
(-566008.328681853,144101.504793859,-15990.4276033763)
(-582967.810860798,122922.156375048,-87470.1017335427)
(-595016.870986271,84736.0195003678,-307138.114433307)
(-536234.888443787,21804.0972036065,-1050815.9801055)