/*--------------------------------*- C++ -*----------------------------------*\
| =========                 |                                                 |
| \\      /  F ield         | foam-extend: Open Source Cstd::filesystem::create_directory();FD                    |
|  \\    /   O peration     | Version:     4.0                                |
|   \\  /    A nd           | Web:         http://www.foam-extend.org         |
|    \\/     M anipulation  |                                                 |
\*---------------------------------------------------------------------------*/
FoamFile
{
    version 2.0;
    format ascii;
    class volVectorField;
    location "Data/2568";
    object      H;
}
// * * * * * * * * * * * * * * * * * * * * * * * * * * * * * * * * * * * * * //

dimensions      [0 1 -1 0 0 0 0];

internalField   nonuniform List<vector>
4096
(
(0,0,0)
(0,0,0)
(0,0,0)
(0,0,0)
(0,0,0)
(0,0,0)
(0,0,0)
(0,0,0)
(0,0,0)
(0,0,0)
(0,0,0)
(0,0,0)
(0,0,0)
(0,0,0)
(0,0,0)
(0,0,0)
(0,0,0)
(0,0,0)
(0,0,0)
(0,0,0)
(0,0,0)
(0,0,0)
(0,0,0)
(0,0,0)
(0,0,0)
(0,0,0)
(0,0,0)
(0,0,0)
(0,0,0)
(0,0,0)
(0,0,0)
(0,0,0)
(0,0,0)
(0,0,0)
(0,0,0)
(0,0,0)
(0,0,0)
(0,0,0)
(0,0,0)
(0,0,0)
(0,0,0)
(0,0,0)
(0,0,0)
(0,0,0)
(0,0,0)
(0,0,0)
(0,0,0)
(0,0,0)
(0,0,0)
(0,0,0)
(0,0,0)
(0,0,0)
(0,0,0)
(0,0,0)
(0,0,0)
(0,0,0)
(0,0,0)
(0,0,0)
(0,0,0)
(0,0,0)
(0,0,0)
(0,0,0)
(0,0,0)
(0,0,0)
(0,0,0)
(0,0,0)
(0,0,0)
(0,0,0)
(0,0,0)
(0,0,0)
(0,0,0)
(0,0,0)
(0,0,0)
(0,0,0)
(0,0,0)
(0,0,0)
(0,0,0)
(0,0,0)
(0,0,0)
(0,0,0)
(0,0,0)
(0,0,0)
(0,0,0)
(0,0,0)
(0,0,0)
(0,0,0)
(0,0,0)
(0,0,0)
(0,0,0)
(0,0,0)
(0,0,0)
(0,0,0)
(0,0,0)
(0,0,0)
(0,0,0)
(0,0,0)
(0,0,0)
(0,0,0)
(0,0,0)
(0,0,0)
(0,0,0)
(0,0,0)
(0,0,0)
(0,0,0)
(0,0,0)
(0,0,0)
(0,0,0)
(0,0,0)
(0,0,0)
(0,0,0)
(0,0,0)
(0,0,0)
(0,0,0)
(0,0,0)
(0,0,0)
(0,0,0)
(0,0,0)
(0,0,0)
(0,0,0)
(0,0,0)
(0,0,0)
(0,0,0)
(0,0,0)
(0,0,0)
(0,0,0)
(0,0,0)
(0,0,0)
(0,0,0)
(0,0,0)
(0,0,0)
(0,0,0)
(0,0,0)
(0,0,0)
(0,0,0)
(0,0,0)
(0,0,0)
(0,0,0)
(0,0,0)
(0,0,0)
(0,0,0)
(0,0,0)
(0,0,0)
(0,0,0)
(0,0,0)
(0,0,0)
(0,0,0)
(0,0,0)
(0,0,0)
(0,0,0)
(0,0,0)
(0,0,0)
(0,0,0)
(0,0,0)
(0,0,0)
(0,0,0)
(0,0,0)
(0,0,0)
(0,0,0)
(0,0,0)
(0,0,0)
(0,0,0)
(0,0,0)
(0,0,0)
(0,0,0)
(0,0,0)
(0,0,0)
(0,0,0)
(0,0,0)
(0,0,0)
(0,0,0)
(0,0,0)
(0,0,0)
(0,0,0)
(0,0,0)
(0,0,0)
(0,0,0)
(0,0,0)
(0,0,0)
(0,0,0)
(0,0,0)
(0,0,0)
(0,0,0)
(0,0,0)
(0,0,0)
(0,0,0)
(0,0,0)
(0,0,0)
(0,0,0)
(0,0,0)
(0,0,0)
(0,0,0)
(0,0,0)
(0,0,0)
(0,0,0)
(0,0,0)
(0,0,0)
(0,0,0)
(0,0,0)
(0,0,0)
(0,0,0)
(0,0,0)
(0,0,0)
(0,0,0)
(0,0,0)
(0,0,0)
(0,0,0)
(0,0,0)
(0,0,0)
(0,0,0)
(0,0,0)
(0,0,0)
(0,0,0)
(0,0,0)
(0,0,0)
(0,0,0)
(0,0,0)
(0,0,0)
(0,0,0)
(0,0,0)
(0,0,0)
(0,0,0)
(0,0,0)
(0,0,0)
(0,0,0)
(0,0,0)
(0,0,0)
(0,0,0)
(0,0,0)
(0,0,0)
(0,0,0)
(0,0,0)
(0,0,0)
(0,0,0)
(0,0,0)
(0,0,0)
(0,0,0)
(0,0,0)
(0,0,0)
(0,0,0)
(0,0,0)
(0,0,0)
(0,0,0)
(0,0,0)
(0,0,0)
(0,0,0)
(0,0,0)
(0,0,0)
(0,0,0)
(0,0,0)
(0,0,0)
(0,0,0)
(0,0,0)
(0,0,0)
(0,0,0)
(0,0,0)
(0,0,0)
(0,0,0)
(0,0,0)
(0,0,0)
(0,0,0)
(0,0,0)
(0,0,0)
(0,0,0)
(0,0,0)
(0,0,0)
(0,0,0)
(0,0,0)
(0,0,0)
(0,0,0)
(0,0,0)
(0,0,0)
(0,0,0)
(0,0,0)
(0,0,0)
(0,0,0)
(0,0,0)
(0,0,0)
(0,0,0)
(0,0,0)
(0,0,0)
(0,0,0)
(0,0,0)
(0,0,0)
(0,0,0)
(0,0,0)
(0,0,0)
(0,0,0)
(0,0,0)
(0,0,0)
(0,0,0)
(0,0,0)
(0,0,0)
(0,0,0)
(0,0,0)
(0,0,0)
(0,0,0)
(0,0,0)
(0,0,0)
(0,0,0)
(0,0,0)
(0,0,0)
(0,0,0)
(0,0,0)
(0,0,0)
(0,0,0)
(0,0,0)
(0,0,0)
(0,0,0)
(0,0,0)
(0,0,0)
(0,0,0)
(0,0,0)
(0,0,0)
(0,0,0)
(0,0,0)
(0,0,0)
(0,0,0)
(0,0,0)
(0,0,0)
(0,0,0)
(0,0,0)
(0,0,0)
(0,0,0)
(0,0,0)
(0,0,0)
(0,0,0)
(0,0,0)
(0,0,0)
(0,0,0)
(0,0,0)
(0,0,0)
(0,0,0)
(0,0,0)
(0,0,0)
(0,0,0)
(0,0,0)
(0,0,0)
(0,0,0)
(0,0,0)
(0,0,0)
(0,0,0)
(0,0,0)
(0,0,0)
(0,0,0)
(0,0,0)
(0,0,0)
(0,0,0)
(0,0,0)
(0,0,0)
(0,0,0)
(0,0,0)
(0,0,0)
(0,0,0)
(0,0,0)
(0,0,0)
(0,0,0)
(0,0,0)
(0,0,0)
(0,0,0)
(0,0,0)
(0,0,0)
(0,0,0)
(0,0,0)
(0,0,0)
(0,0,0)
(0,0,0)
(0,0,0)
(0,0,0)
(0,0,0)
(0,0,0)
(0,0,0)
(0,0,0)
(0,0,0)
(0,0,0)
(0,0,0)
(0,0,0)
(0,0,0)
(0,0,0)
(0,0,0)
(0,0,0)
(0,0,0)
(0,0,0)
(0,0,0)
(0,0,0)
(0,0,0)
(0,0,0)
(0,0,0)
(0,0,0)
(0,0,0)
(0,0,0)
(0,0,0)
(0,0,0)
(0,0,0)
(0,0,0)
(0,0,0)
(0,0,0)
(0,0,0)
(0,0,0)
(0,0,0)
(0,0,0)
(0,0,0)
(0,0,0)
(0,0,0)
(0,0,0)
(0,0,0)
(0,0,0)
(0,0,0)
(0,0,0)
(0,0,0)
(0,0,0)
(0,0,0)
(0,0,0)
(0,0,0)
(0,0,0)
(0,0,0)
(0,0,0)
(0,0,0)
(0,0,0)
(0,0,0)
(0,0,0)
(0,0,0)
(0,0,0)
(0,0,0)
(0,0,0)
(0,0,0)
(0,0,0)
(0,0,0)
(0,0,0)
(0,0,0)
(0,0,0)
(0,0,0)
(0,0,0)
(0,0,0)
(0,0,0)
(0,0,0)
(0,0,0)
(0,0,0)
(0,0,0)
(0,0,0)
(0,0,0)
(0,0,0)
(0,0,0)
(0,0,0)
(0,0,0)
(0,0,0)
(0,0,0)
(0,0,0)
(0,0,0)
(0,0,0)
(0,0,0)
(0,0,0)
(0,0,0)
(0,0,0)
(0,0,0)
(0,0,0)
(0,0,0)
(0,0,0)
(0,0,0)
(0,0,0)
(0,0,0)
(0,0,0)
(0,0,0)
(0,0,0)
(0,0,0)
(0,0,0)
(0,0,0)
(0,0,0)
(0,0,0)
(0,0,0)
(0,0,0)
(0,0,0)
(0,0,0)
(0,0,0)
(0,0,0)
(0,0,0)
(0,0,0)
(0,0,0)
(0,0,0)
(0,0,0)
(0,0,0)
(0,0,0)
(0,0,0)
(0,0,0)
(0,0,0)
(0,0,0)
(0,0,0)
(0,0,0)
(0,0,0)
(0,0,0)
(0,0,0)
(0,0,0)
(0,0,0)
(0,0,0)
(0,0,0)
(0,0,0)
(0,0,0)
(0,0,0)
(0,0,0)
(0,0,0)
(0,0,0)
(0,0,0)
(0,0,0)
(0,0,0)
(0,0,0)
(0,0,0)
(0,0,0)
(0,0,0)
(0,0,0)
(0,0,0)
(0,0,0)
(0,0,0)
(0,0,0)
(0,0,0)
(0,0,0)
(0,0,0)
(0,0,0)
(0,0,0)
(0,0,0)
(0,0,0)
(0,0,0)
(0,0,0)
(0,0,0)
(0,0,0)
(0,0,0)
(0,0,0)
(0,0,0)
(0,0,0)
(0,0,0)
(0,0,0)
(0,0,0)
(0,0,0)
(0,0,0)
(0,0,0)
(0,0,0)
(0,0,0)
(0,0,0)
(0,0,0)
(0,0,0)
(0,0,0)
(0,0,0)
(0,0,0)
(0,0,0)
(0,0,0)
(0,0,0)
(0,0,0)
(0,0,0)
(0,0,0)
(0,0,0)
(0,0,0)
(0,0,0)
(0,0,0)
(0,0,0)
(0,0,0)
(0,0,0)
(0,0,0)
(0,0,0)
(0,0,0)
(0,0,0)
(0,0,0)
(0,0,0)
(0,0,0)
(0,0,0)
(0,0,0)
(0,0,0)
(0,0,0)
(0,0,0)
(0,0,0)
(0,0,0)
(0,0,0)
(0,0,0)
(0,0,0)
(0,0,0)
(0,0,0)
(0,0,0)
(0,0,0)
(0,0,0)
(0,0,0)
(0,0,0)
(0,0,0)
(0,0,0)
(0,0,0)
(0,0,0)
(0,0,0)
(0,0,0)
(0,0,0)
(0,0,0)
(0,0,0)
(0,0,0)
(0,0,0)
(0,0,0)
(0,0,0)
(0,0,0)
(0,0,0)
(0,0,0)
(0,0,0)
(0,0,0)
(0,0,0)
(0,0,0)
(0,0,0)
(0,0,0)
(0,0,0)
(0,0,0)
(0,0,0)
(0,0,0)
(0,0,0)
(0,0,0)
(0,0,0)
(0,0,0)
(0,0,0)
(0,0,0)
(0,0,0)
(0,0,0)
(0,0,0)
(0,0,0)
(0,0,0)
(0,0,0)
(0,0,0)
(0,0,0)
(0,0,0)
(0,0,0)
(0,0,0)
(0,0,0)
(0,0,0)
(0,0,0)
(0,0,0)
(0,0,0)
(0,0,0)
(0,0,0)
(0,0,0)
(0,0,0)
(0,0,0)
(0,0,0)
(0,0,0)
(0,0,0)
(0,0,0)
(0,0,0)
(0,0,0)
(0,0,0)
(0,0,0)
(0,0,0)
(0,0,0)
(0,0,0)
(0,0,0)
(0,0,0)
(0,0,0)
(0,0,0)
(0,0,0)
(0,0,0)
(0,0,0)
(0,0,0)
(0,0,0)
(0,0,0)
(0,0,0)
(0,0,0)
(0,0,0)
(0,0,0)
(0,0,0)
(0,0,0)
(0,0,0)
(0,0,0)
(0,0,0)
(0,0,0)
(0,0,0)
(0,0,0)
(0,0,0)
(0,0,0)
(0,0,0)
(0,0,0)
(0,0,0)
(0,0,0)
(0,0,0)
(0,0,0)
(0,0,0)
(0,0,0)
(0,0,0)
(0,0,0)
(0,0,0)
(0,0,0)
(0,0,0)
(0,0,0)
(0,0,0)
(0,0,0)
(0,0,0)
(0,0,0)
(0,0,0)
(0,0,0)
(0,0,0)
(0,0,0)
(0,0,0)
(0,0,0)
(0,0,0)
(0,0,0)
(0,0,0)
(0,0,0)
(0,0,0)
(0,0,0)
(0,0,0)
(0,0,0)
(0,0,0)
(0,0,0)
(0,0,0)
(0,0,0)
(0,0,0)
(0,0,0)
(0,0,0)
(0,0,0)
(0,0,0)
(0,0,0)
(0,0,0)
(0,0,0)
(0,0,0)
(0,0,0)
(0,0,0)
(0,0,0)
(0,0,0)
(0,0,0)
(0,0,0)
(0,0,0)
(0,0,0)
(0,0,0)
(0,0,0)
(0,0,0)
(0,0,0)
(0,0,0)
(0,0,0)
(0,0,0)
(0,0,0)
(0,0,0)
(0,0,0)
(0,0,0)
(0,0,0)
(0,0,0)
(0,0,0)
(0,0,0)
(0,0,0)
(0,0,0)
(0,0,0)
(0,0,0)
(0,0,0)
(0,0,0)
(0,0,0)
(0,0,0)
(0,0,0)
(0,0,0)
(0,0,0)
(0,0,0)
(0,0,0)
(0,0,0)
(0,0,0)
(0,0,0)
(0,0,0)
(0,0,0)
(0,0,0)
(0,0,0)
(0,0,0)
(0,0,0)
(0,0,0)
(0,0,0)
(0,0,0)
(0,0,0)
(0,0,0)
(0,0,0)
(0,0,0)
(0,0,0)
(0,0,0)
(0,0,0)
(0,0,0)
(0,0,0)
(0,0,0)
(0,0,0)
(0,0,0)
(0,0,0)
(0,0,0)
(0,0,0)
(0,0,0)
(0,0,0)
(0,0,0)
(0,0,0)
(0,0,0)
(0,0,0)
(0,0,0)
(0,0,0)
(0,0,0)
(0,0,0)
(0,0,0)
(0,0,0)
(0,0,0)
(0,0,0)
(0,0,0)
(0,0,0)
(0,0,0)
(0,0,0)
(0,0,0)
(0,0,0)
(0,0,0)
(0,0,0)
(0,0,0)
(0,0,0)
(0,0,0)
(0,0,0)
(0,0,0)
(0,0,0)
(0,0,0)
(0,0,0)
(0,0,0)
(0,0,0)
(0,0,0)
(0,0,0)
(0,0,0)
(0,0,0)
(0,0,0)
(0,0,0)
(0,0,0)
(0,0,0)
(0,0,0)
(0,0,0)
(0,0,0)
(0,0,0)
(0,0,0)
(4.52155997750667e-13,-2.14854648921713e-13,-8.44410257575206e-13)
(6.22706457990268e-13,1.74948181592895e-12,-1.01644901155879e-12)
(4.08913493183547e-13,5.48695067996262e-12,-1.25814824132068e-12)
(3.98739839238244e-13,1.08772253751795e-11,-1.39948214716718e-12)
(7.90480583347196e-13,1.83208883824677e-11,-1.29458703972967e-12)
(8.16070931643772e-13,3.04098908831109e-11,-1.13528952784606e-12)
(1.25758955399434e-12,5.06118895687257e-11,-1.12344498091331e-12)
(3.77146348604199e-14,8.29994620489463e-11,-9.68839730040937e-13)
(-4.37660406043403e-13,1.35213406271307e-10,-1.01464177279308e-12)
(-1.50077283620289e-13,2.07739107821223e-10,-8.09858067181509e-13)
(0,0,0)
(0,0,0)
(0,0,0)
(0,0,0)
(0,0,0)
(0,0,0)
(3.01879571261525e-13,3.61585418035712e-13,-3.27747445480322e-12)
(6.85440158194306e-13,2.56927352694926e-12,-3.61394010323283e-12)
(7.79348240697486e-13,5.94926666883619e-12,-3.45982555678225e-12)
(1.02268422059651e-12,1.06967296417615e-11,-3.18462297452322e-12)
(1.71019471554261e-12,1.81009137904231e-11,-2.80990515520739e-12)
(1.78049446805929e-12,3.01163177400704e-11,-2.23083504605595e-12)
(2.25227065575459e-12,5.02331709647401e-11,-1.99023918615465e-12)
(1.35200378018011e-12,8.25597510152986e-11,-1.67916479089796e-12)
(1.21514016113202e-12,1.34303776731319e-10,-1.42160309064628e-12)
(1.43914827599212e-12,2.06292798575513e-10,-7.84983667205751e-13)
(0,0,0)
(0,0,0)
(0,0,0)
(0,0,0)
(0,0,0)
(0,0,0)
(6.61530612251261e-13,6.97284748710351e-13,-6.6367973280466e-12)
(2.07025277852665e-12,2.74964205696592e-12,-6.94468928166047e-12)
(2.56151936046899e-12,6.095319316313e-12,-7.02458673751569e-12)
(2.66480533162282e-12,1.0405243359333e-11,-6.69229139953131e-12)
(2.3857513221972e-12,1.75697444402683e-11,-5.83383926948307e-12)
(1.83820581805861e-12,2.9366249679907e-11,-4.62347178356486e-12)
(2.31032348804806e-12,4.91700529784114e-11,-3.62938319292615e-12)
(1.39853062810768e-12,8.13213509426084e-11,-2.67795529509828e-12)
(2.00432632586128e-12,1.32742271263593e-10,-2.0012798083683e-12)
(3.13581384633187e-12,2.04809017432807e-10,-1.06570959726973e-12)
(0,0,0)
(0,0,0)
(0,0,0)
(0,0,0)
(0,0,0)
(0,0,0)
(1.07145707571154e-12,8.86395575603292e-13,-1.03949655621261e-11)
(3.10234089437632e-12,2.83314602770853e-12,-1.06335596333993e-11)
(4.01150688932232e-12,5.99210322514921e-12,-1.09130691084929e-11)
(3.87678150116219e-12,9.6871519244162e-12,-1.05832312938875e-11)
(2.92457558019373e-12,1.61940194218059e-11,-9.49347583208017e-12)
(2.01171794703321e-12,2.76654992518432e-11,-7.89006312754962e-12)
(2.12225839629282e-12,4.74489334003774e-11,-6.23886224811934e-12)
(9.7018623852526e-13,7.97350968278322e-11,-4.85500249053761e-12)
(2.21845050898283e-12,1.31194183771794e-10,-3.58316970170717e-12)
(3.87280425478855e-12,2.03275293951324e-10,-2.01489661918215e-12)
(0,0,0)
(0,0,0)
(0,0,0)
(0,0,0)
(0,0,0)
(0,0,0)
(1.68397456617187e-12,1.07669791330889e-12,-1.84415678259689e-11)
(3.92563448297247e-12,2.87585416572594e-12,-1.84920400977123e-11)
(4.73873503715833e-12,5.63350470070365e-12,-1.82444377541844e-11)
(4.38005097503589e-12,8.70966040586213e-12,-1.74630850307637e-11)
(3.96727532772901e-12,1.42693344787608e-11,-1.62957316557189e-11)
(2.19841361486213e-12,2.50171833789684e-11,-1.46300169467526e-11)
(1.64400455655332e-13,4.48847662090188e-11,-1.30034121229961e-11)
(-5.83157629848315e-13,7.75899407667959e-11,-1.08550193974722e-11)
(8.7453248243508e-13,1.29281052760785e-10,-7.94547831850501e-12)
(1.39841004193217e-12,2.01171709538546e-10,-4.16884304338341e-12)
(0,0,0)
(0,0,0)
(0,0,0)
(0,0,0)
(0,0,0)
(0,0,0)
(1.7149932384065e-12,1.08423490258594e-12,-3.21750908604083e-11)
(4.78561337804478e-12,2.62754466542257e-12,-3.24434373472955e-11)
(6.44027597702768e-12,4.80612290976864e-12,-3.19160035312208e-11)
(6.19761190879257e-12,7.57789539760009e-12,-3.04945331056386e-11)
(5.36714901141676e-12,1.25382297124693e-11,-2.88127024439808e-11)
(2.16797398328537e-12,2.26341748009102e-11,-2.6643989462476e-11)
(-1.07949328436397e-12,4.23119076859266e-11,-2.45143795933766e-11)
(-2.6553911515991e-12,7.45275820172034e-11,-2.10355412760169e-11)
(-2.59218173125337e-12,1.25967115802714e-10,-1.55897177690093e-11)
(-3.33857515179034e-12,1.97790169425036e-10,-8.33220185977797e-12)
(0,0,0)
(0,0,0)
(0,0,0)
(0,0,0)
(0,0,0)
(0,0,0)
(1.13614066814084e-12,1.20368800448005e-12,-5.16723247922451e-11)
(4.32582638722983e-12,2.50261460748829e-12,-5.1687390445827e-11)
(6.64472300336521e-12,3.93887132296553e-12,-5.09639977114227e-11)
(6.74338709955359e-12,6.39072557330571e-12,-4.93828830716774e-11)
(4.73128802551975e-12,1.10888663104541e-11,-4.75736304229207e-11)
(-1.83180363137614e-13,2.06926260847493e-11,-4.49861838057213e-11)
(-3.3311718466036e-12,3.94192589718824e-11,-4.19610698897513e-11)
(-5.04407404380604e-12,6.98924324061804e-11,-3.67040878803754e-11)
(-5.98032944052566e-12,1.1971884926446e-10,-2.78321881169701e-11)
(-7.10184146323045e-12,1.90552302015293e-10,-1.52170864560938e-11)
(0,0,0)
(0,0,0)
(0,0,0)
(0,0,0)
(0,0,0)
(0,0,0)
(1.49905841927653e-12,8.5255127508465e-13,-8.11643035840593e-11)
(3.1628090069843e-12,1.97578213314809e-12,-8.09622429201576e-11)
(5.06926210988961e-12,2.89358618750258e-12,-8.04317396122374e-11)
(6.14148487745556e-12,5.15641913184713e-12,-7.92937061632018e-11)
(4.09983330527707e-12,9.25256534143455e-12,-7.75633780301358e-11)
(-1.17380046364982e-12,1.79344835811697e-11,-7.51407744554728e-11)
(-4.51441471440004e-12,3.44083964003266e-11,-7.14068338573842e-11)
(-5.87745213197228e-12,6.18008570860472e-11,-6.34031515916079e-11)
(-7.13058429268811e-12,1.08053695041121e-10,-4.9216845685e-11)
(-8.22755445472563e-12,1.76126717821841e-10,-2.7847552430679e-11)
(0,0,0)
(0,0,0)
(0,0,0)
(0,0,0)
(0,0,0)
(0,0,0)
(6.41648730340622e-13,8.09658443062048e-13,-1.30328414698257e-10)
(1.29225575425902e-12,1.4603346825875e-12,-1.30230853384612e-10)
(2.97682065278315e-12,2.03026453583494e-12,-1.30122573360195e-10)
(4.10227671336436e-12,4.04398197232465e-12,-1.29367353634718e-10)
(2.04077914392836e-12,7.13408700549542e-12,-1.27405511676539e-10)
(-1.78061190311596e-12,1.36525960084065e-11,-1.24492588760533e-10)
(-4.88603179024026e-12,2.59777755955052e-11,-1.19145023978749e-10)
(-6.06751489879765e-12,4.80493484842162e-11,-1.08421459961431e-10)
(-6.51956319470142e-12,8.73527194264335e-11,-8.77153729196749e-11)
(-7.11269375984375e-12,1.48710488374533e-10,-5.26377828828521e-11)
(0,0,0)
(0,0,0)
(0,0,0)
(0,0,0)
(0,0,0)
(0,0,0)
(-1.50748431463796e-12,8.35981344707922e-13,-2.00971361969665e-10)
(-1.17696794722259e-12,9.85321620834323e-13,-2.00466434413838e-10)
(9.32605439643098e-13,1.14504655470275e-12,-2.00123778412876e-10)
(1.90240229540358e-12,2.3639887345289e-12,-1.99523653967009e-10)
(-2.36508179481822e-14,3.91679278927851e-12,-1.97646294831931e-10)
(-1.93418481693728e-12,7.42082723944616e-12,-1.94873224078137e-10)
(-4.5964605979119e-12,1.4350281959329e-11,-1.88384651312624e-10)
(-5.97074695291941e-12,2.7339156151686e-11,-1.7502247882757e-10)
(-6.06952595135177e-12,5.25976287722258e-11,-1.48087636833167e-10)
(-6.48196490025714e-12,9.6235269080028e-11,-9.57126331163719e-11)
(0,0,0)
(0,0,0)
(0,0,0)
(0,0,0)
(0,0,0)
(0,0,0)
(0,0,0)
(0,0,0)
(0,0,0)
(0,0,0)
(0,0,0)
(0,0,0)
(0,0,0)
(0,0,0)
(0,0,0)
(0,0,0)
(0,0,0)
(0,0,0)
(0,0,0)
(0,0,0)
(0,0,0)
(0,0,0)
(0,0,0)
(0,0,0)
(0,0,0)
(0,0,0)
(0,0,0)
(0,0,0)
(0,0,0)
(0,0,0)
(0,0,0)
(0,0,0)
(0,0,0)
(0,0,0)
(0,0,0)
(0,0,0)
(0,0,0)
(0,0,0)
(0,0,0)
(0,0,0)
(0,0,0)
(0,0,0)
(0,0,0)
(0,0,0)
(0,0,0)
(0,0,0)
(0,0,0)
(0,0,0)
(0,0,0)
(0,0,0)
(0,0,0)
(0,0,0)
(0,0,0)
(0,0,0)
(0,0,0)
(0,0,0)
(0,0,0)
(0,0,0)
(0,0,0)
(0,0,0)
(0,0,0)
(0,0,0)
(0,0,0)
(0,0,0)
(0,0,0)
(0,0,0)
(0,0,0)
(0,0,0)
(0,0,0)
(0,0,0)
(0,0,0)
(0,0,0)
(0,0,0)
(0,0,0)
(0,0,0)
(0,0,0)
(0,0,0)
(0,0,0)
(0,0,0)
(0,0,0)
(0,0,0)
(0,0,0)
(0,0,0)
(0,0,0)
(0,0,0)
(0,0,0)
(0,0,0)
(0,0,0)
(0,0,0)
(0,0,0)
(0,0,0)
(0,0,0)
(0,0,0)
(0,0,0)
(0,0,0)
(0,0,0)
(0,0,0)
(0,0,0)
(0,0,0)
(0,0,0)
(0,0,0)
(0,0,0)
(4.77546847778786e-14,3.81304401178125e-13,-1.61259438465229e-12)
(4.46139767265255e-14,3.66478102144831e-12,-1.68333413686755e-12)
(8.79314101351803e-14,9.82146571197133e-12,-2.04989141105043e-12)
(4.74340465205299e-13,1.87679112358092e-11,-2.4938462350278e-12)
(8.51157663460374e-13,3.15255424192672e-11,-2.16839843326456e-12)
(1.09779952775106e-12,5.23897200119404e-11,-1.70953502607335e-12)
(1.48170290716395e-12,8.66620624512059e-11,-1.25023330819506e-12)
(5.23227711158981e-13,1.42414877080238e-10,-7.78384173194306e-13)
(2.67185427842014e-13,2.46583383991034e-10,-9.66449506275535e-13)
(4.86373894232744e-13,4.85346757877705e-10,-9.37519105095959e-13)
(0,0,0)
(0,0,0)
(0,0,0)
(0,0,0)
(0,0,0)
(0,0,0)
(3.0264588901675e-13,7.31087851197299e-13,-5.58740253249978e-12)
(3.50957081730859e-13,4.4484702928767e-12,-6.01151084751384e-12)
(3.58093010966764e-13,1.03582289834706e-11,-6.20930351465437e-12)
(9.39452683703065e-13,1.85468286041968e-11,-6.18185189676139e-12)
(1.66229395654596e-12,3.11721183431442e-11,-5.16248076584184e-12)
(2.28996666830576e-12,5.19815626070251e-11,-3.62479597330782e-12)
(3.00431424666963e-12,8.61718690821924e-11,-2.27294070378818e-12)
(2.33284215291818e-12,1.41859665521244e-10,-1.33225578720166e-12)
(2.14002620574644e-12,2.45750040249131e-10,-1.20816333897e-12)
(2.13794575164033e-12,4.84072308104015e-10,-7.98434999333596e-13)
(0,0,0)
(0,0,0)
(0,0,0)
(0,0,0)
(0,0,0)
(0,0,0)
(7.8031173897218e-13,1.06253471542912e-12,-1.12349498602687e-11)
(2.06664626364469e-12,4.92045462845538e-12,-1.17883839014884e-11)
(2.3324401136688e-12,1.07409314919357e-11,-1.2035109732059e-11)
(2.5244446364918e-12,1.80827862378813e-11,-1.17657624760321e-11)
(2.55110885470077e-12,2.99984230440977e-11,-1.01373717660852e-11)
(2.54486765551009e-12,5.05293118679194e-11,-7.55090769936487e-12)
(3.08001516823084e-12,8.50098848965092e-11,-4.75689832868686e-12)
(2.30810925606991e-12,1.40896782347375e-10,-2.92547416390347e-12)
(2.61684360649342e-12,2.44433770421087e-10,-2.17443310292531e-12)
(3.6038277302869e-12,4.82687671827062e-10,-1.21164814640827e-12)
(0,0,0)
(0,0,0)
(0,0,0)
(0,0,0)
(0,0,0)
(0,0,0)
(1.11974880927942e-12,1.53667238874892e-12,-1.87290189117991e-11)
(3.33914223144918e-12,5.26979424184408e-12,-1.90847341716332e-11)
(4.040267599154e-12,1.0704864946331e-11,-1.89064451511591e-11)
(3.76451755791512e-12,1.68447397316224e-11,-1.78036286127367e-11)
(3.24584781871184e-12,2.7413117176325e-11,-1.59890321354164e-11)
(3.00883294046827e-12,4.71789193046784e-11,-1.34538570278724e-11)
(3.30256583004364e-12,8.2517417348523e-11,-1.00647713310898e-11)
(1.84350951074129e-12,1.39653259640424e-10,-7.63919527991012e-12)
(2.56330843804732e-12,2.43286032517114e-10,-5.7173559343181e-12)
(3.96149204902227e-12,4.81382614188713e-10,-3.10855216069455e-12)
(0,0,0)
(0,0,0)
(0,0,0)
(0,0,0)
(0,0,0)
(0,0,0)
(1.72690984863825e-12,1.91159501793935e-12,-3.26042597882807e-11)
(3.92634163974595e-12,5.21749838320609e-12,-3.25026845596689e-11)
(4.78476410467009e-12,9.70901143793029e-12,-3.18853060552419e-11)
(4.34446260824417e-12,1.48422825447644e-11,-3.05842155508303e-11)
(4.03266538507078e-12,2.38867326830669e-11,-2.89681653064063e-11)
(2.954817369149e-12,4.20051559709417e-11,-2.7122502827698e-11)
(5.8886625325707e-13,7.79026378457359e-11,-2.53473412297318e-11)
(-4.30339959007347e-13,1.37767430929508e-10,-2.02373661148663e-11)
(4.11834165235196e-13,2.41570115206164e-10,-1.43927477999829e-11)
(6.11107111585835e-13,4.79151050533028e-10,-7.42441323959308e-12)
(0,0,0)
(0,0,0)
(0,0,0)
(0,0,0)
(0,0,0)
(0,0,0)
(1.86388662340003e-12,1.9276605872354e-12,-5.46256900078129e-11)
(4.38310961990143e-12,4.68548488260086e-12,-5.45626588536803e-11)
(5.88605713824403e-12,8.05731298604196e-12,-5.40423717517985e-11)
(5.70295107144064e-12,1.22822882200113e-11,-5.29523250136321e-11)
(4.64779943194692e-12,2.00765255167178e-11,-5.13192343832267e-11)
(1.97991283032097e-12,3.71240290047988e-11,-4.93782075406889e-11)
(-1.66568288766038e-12,7.46343034910522e-11,-4.73793677051095e-11)
(-3.46606504757406e-12,1.33906458687642e-10,-3.99017770788624e-11)
(-3.60143110223978e-12,2.36832291541641e-10,-2.86742367388858e-11)
(-4.43290960132936e-12,4.73676710700352e-10,-1.49189136354813e-11)
(0,0,0)
(0,0,0)
(0,0,0)
(0,0,0)
(0,0,0)
(0,0,0)
(1.50234305111711e-12,1.75127837570712e-12,-8.7342470993722e-11)
(4.12926612716706e-12,4.06280483717786e-12,-8.72574438555597e-11)
(6.10889349908638e-12,6.41766957115692e-12,-8.68701310040385e-11)
(6.16844089224347e-12,9.61322280306262e-12,-8.58830275035585e-11)
(3.98014237735943e-12,1.62269165004187e-11,-8.44068511682595e-11)
(-4.50151775502374e-13,3.19464995339641e-11,-8.22582345131645e-11)
(-3.57729128442305e-12,6.8765352578657e-11,-7.75291275241378e-11)
(-5.82439848718213e-12,1.25163351724909e-10,-6.78218824704055e-11)
(-6.93027687819244e-12,2.25453355512266e-10,-5.02898287641346e-11)
(-7.89334372553318e-12,4.60729661590843e-10,-2.70758734592343e-11)
(0,0,0)
(0,0,0)
(0,0,0)
(0,0,0)
(0,0,0)
(0,0,0)
(1.33989058739755e-12,1.43608287956415e-12,-1.40510483773344e-10)
(3.147753149626e-12,3.39711355377954e-12,-1.40013947149597e-10)
(4.79455031252547e-12,5.103322103853e-12,-1.39461674428642e-10)
(5.5235939039147e-12,7.89609789464413e-12,-1.3855755482412e-10)
(3.7957080665297e-12,1.39981442667955e-11,-1.36944105587834e-10)
(-6.2585348894885e-13,2.91266532349987e-11,-1.34321512413777e-10)
(-4.08747617534849e-12,6.02973852768192e-11,-1.2827449378631e-10)
(-6.31224943687414e-12,1.09136710331922e-10,-1.12841883807143e-10)
(-7.79890193215181e-12,2.03713345868495e-10,-8.7264228618652e-11)
(-8.65887743869125e-12,4.34850954137279e-10,-4.96784978910798e-11)
(0,0,0)
(0,0,0)
(0,0,0)
(0,0,0)
(0,0,0)
(0,0,0)
(5.17764515050177e-13,1.04670297562588e-12,-2.41327382032161e-10)
(1.65898879159589e-12,2.31754432928664e-12,-2.41166384193689e-10)
(3.1068189084406e-12,3.60403843069388e-12,-2.40961638016543e-10)
(3.82042799298563e-12,6.06941850990658e-12,-2.39955987208259e-10)
(2.34515044415119e-12,1.09799523027688e-11,-2.37572819479758e-10)
(-8.96407915958597e-13,2.2862276233891e-11,-2.33394055201485e-10)
(-3.98210217136733e-12,4.52284864422392e-11,-2.24096983242951e-10)
(-6.06340960803209e-12,8.41816432558903e-11,-2.04231195198433e-10)
(-6.84206257732433e-12,1.67033664011366e-10,-1.68172797328277e-10)
(-7.27525734823876e-12,3.85968398542731e-10,-1.05347097062418e-10)
(0,0,0)
(0,0,0)
(0,0,0)
(0,0,0)
(0,0,0)
(0,0,0)
(-1.17643052575659e-12,7.63018886583763e-13,-4.769936098548e-10)
(-5.34302327350839e-13,1.26265931895204e-12,-4.76845533278694e-10)
(1.47752754847686e-12,1.76504429578342e-12,-4.76561599947401e-10)
(2.38903189485462e-12,3.2879440733377e-12,-4.75727686033838e-10)
(1.12007121752949e-12,6.05641212921299e-12,-4.73160441154925e-10)
(-1.00193034301549e-12,1.25549840973255e-11,-4.68216080216343e-10)
(-3.60835112365313e-12,2.46885662495577e-11,-4.56762369609684e-10)
(-5.56643279559644e-12,4.80026743108791e-11,-4.33154833526349e-10)
(-5.84690089592486e-12,1.04593369497138e-10,-3.85772572017542e-10)
(-5.95932893655193e-12,2.81136835194473e-10,-2.81217786403194e-10)
(0,0,0)
(0,0,0)
(0,0,0)
(0,0,0)
(0,0,0)
(0,0,0)
(0,0,0)
(0,0,0)
(0,0,0)
(0,0,0)
(0,0,0)
(0,0,0)
(0,0,0)
(0,0,0)
(0,0,0)
(0,0,0)
(0,0,0)
(0,0,0)
(0,0,0)
(0,0,0)
(0,0,0)
(0,0,0)
(0,0,0)
(0,0,0)
(0,0,0)
(0,0,0)
(0,0,0)
(0,0,0)
(0,0,0)
(0,0,0)
(0,0,0)
(0,0,0)
(0,0,0)
(0,0,0)
(0,0,0)
(0,0,0)
(0,0,0)
(0,0,0)
(0,0,0)
(0,0,0)
(0,0,0)
(0,0,0)
(0,0,0)
(0,0,0)
(0,0,0)
(0,0,0)
(0,0,0)
(0,0,0)
(0,0,0)
(0,0,0)
(0,0,0)
(0,0,0)
(0,0,0)
(0,0,0)
(0,0,0)
(0,0,0)
(0,0,0)
(0,0,0)
(0,0,0)
(0,0,0)
(0,0,0)
(0,0,0)
(0,0,0)
(0,0,0)
(0,0,0)
(0,0,0)
(0,0,0)
(0,0,0)
(0,0,0)
(0,0,0)
(0,0,0)
(0,0,0)
(0,0,0)
(0,0,0)
(0,0,0)
(0,0,0)
(0,0,0)
(0,0,0)
(0,0,0)
(0,0,0)
(0,0,0)
(0,0,0)
(0,0,0)
(0,0,0)
(0,0,0)
(0,0,0)
(0,0,0)
(0,0,0)
(0,0,0)
(0,0,0)
(0,0,0)
(0,0,0)
(0,0,0)
(0,0,0)
(0,0,0)
(0,0,0)
(0,0,0)
(0,0,0)
(0,0,0)
(0,0,0)
(0,0,0)
(0,0,0)
(-2.31289012991021e-13,5.25638607524493e-13,-2.73922969332734e-12)
(-3.72518021222628e-13,4.7096237896829e-12,-2.94794612072568e-12)
(-4.87703652624583e-15,1.27902417009895e-11,-3.30712862612294e-12)
(3.69975294894654e-13,2.38313064015137e-11,-3.28810066153231e-12)
(7.45718332307937e-13,3.91828932810508e-11,-2.52673362078309e-12)
(1.04665521494626e-12,6.19522037587074e-11,-1.15569664861175e-12)
(1.50004714090959e-12,9.72165645081457e-11,1.00468153853391e-13)
(1.26650460290385e-12,1.48043576908005e-10,2.97643050315588e-13)
(1.07159876899143e-12,2.20228421090794e-10,-2.5950632830499e-13)
(8.23304562637869e-13,3.07720720162976e-10,-4.53310128950357e-13)
(0,0,0)
(0,0,0)
(0,0,0)
(0,0,0)
(0,0,0)
(0,0,0)
(3.95307339673461e-13,8.88224408217004e-13,-7.56699161969524e-12)
(7.67654130058868e-14,5.36512052118956e-12,-8.17213411246141e-12)
(-5.20611170566758e-14,1.2902791370947e-11,-8.36681768527993e-12)
(3.84123919632261e-13,2.31260987511529e-11,-7.63245776289515e-12)
(1.29830446370206e-12,3.7985697684411e-11,-5.74081750683786e-12)
(2.39036213771919e-12,6.09051054741491e-11,-2.5420678276607e-12)
(3.2256135150129e-12,9.70724784339941e-11,5.62825078315001e-13)
(3.17163287980404e-12,1.48416867927492e-10,1.05492050578061e-12)
(3.04656769397886e-12,2.20350756839558e-10,2.49368869112544e-13)
(2.72414702972487e-12,3.07286747080217e-10,-2.61577406154363e-15)
(0,0,0)
(0,0,0)
(0,0,0)
(0,0,0)
(0,0,0)
(0,0,0)
(8.59608104967321e-13,1.53629238986849e-12,-1.39663060498992e-11)
(1.96403248175355e-12,5.94534064906468e-12,-1.4499587288694e-11)
(2.09915940412261e-12,1.25938696377383e-11,-1.43501122250539e-11)
(2.13410043220164e-12,2.12799424344452e-11,-1.32015580531122e-11)
(2.54995065575155e-12,3.49167565345373e-11,-1.04577048761087e-11)
(3.10125084826019e-12,5.81352278827896e-11,-5.35639838005871e-12)
(3.74105855211608e-12,9.67790701282897e-11,6.23139646863452e-13)
(2.80059090083653e-12,1.49460020414591e-10,1.09646437669264e-12)
(2.80179655501953e-12,2.2085130040018e-10,1.29657626955709e-14)
(3.69723722183443e-12,3.07416956878854e-10,-2.75880163276065e-13)
(0,0,0)
(0,0,0)
(0,0,0)
(0,0,0)
(0,0,0)
(0,0,0)
(1.10054143948176e-12,1.97211962563366e-12,-2.40596063898665e-11)
(3.21314907054052e-12,6.08310523655163e-12,-2.41535085313148e-11)
(3.93330456827999e-12,1.1875647436634e-11,-2.3206340051096e-11)
(3.95237826661265e-12,1.86830904458676e-11,-2.10067479250392e-11)
(4.23705720458011e-12,2.99680394138615e-11,-1.7733781788453e-11)
(4.79351057769935e-12,5.20766465515389e-11,-1.17971427422116e-11)
(5.49176928222179e-12,9.55311628576451e-11,-2.83826111552002e-12)
(1.80749887600516e-12,1.51622791215988e-10,-3.59775500288319e-12)
(1.67042197569839e-12,2.22298475848661e-10,-4.29743626763342e-12)
(3.08450354328797e-12,3.08130973452949e-10,-2.88144530016987e-12)
(0,0,0)
(0,0,0)
(0,0,0)
(0,0,0)
(0,0,0)
(0,0,0)
(1.60926905008604e-12,1.87756167110309e-12,-3.94012199737648e-11)
(3.84097663731609e-12,5.32484405158201e-12,-3.94255514114853e-11)
(5.13537205049789e-12,9.91783609271771e-12,-3.8802486319773e-11)
(5.28840668875434e-12,1.5098275731372e-11,-3.69885454723268e-11)
(5.99721007403438e-12,2.31766254254058e-11,-3.44045889119074e-11)
(6.06078273631679e-12,4.02086596677681e-11,-3.14434579041595e-11)
(-1.2527745076008e-12,8.39680843602812e-11,-3.58611209802612e-11)
(-2.41398603245627e-12,1.54282614868477e-10,-2.45126705247705e-11)
(-1.81867672881115e-12,2.23354886343506e-10,-1.70238666231763e-11)
(-1.33896629568381e-12,3.07095549724942e-10,-8.90954468951062e-12)
(0,0,0)
(0,0,0)
(0,0,0)
(0,0,0)
(0,0,0)
(0,0,0)
(1.97723768106608e-12,1.76221379592375e-12,-6.36350962231622e-11)
(4.48550256286686e-12,4.44777834879962e-12,-6.37064817371085e-11)
(6.43565381514399e-12,7.66913391072047e-12,-6.36423897156683e-11)
(6.73892585909442e-12,1.10221155498684e-11,-6.26795455468673e-11)
(6.55638160499691e-12,1.64989153282594e-11,-6.0983937775123e-11)
(5.1586024653299e-12,3.1703616075236e-11,-5.96979115996861e-11)
(-3.27432260088612e-12,8.5487999148218e-11,-6.50609625173003e-11)
(-5.95049842570501e-12,1.52576069250444e-10,-5.23698207818009e-11)
(-5.9778181754497e-12,2.19143475513211e-10,-3.61830610114259e-11)
(-6.40477412831964e-12,3.00951363411597e-10,-1.83257588388767e-11)
(0,0,0)
(0,0,0)
(0,0,0)
(0,0,0)
(0,0,0)
(0,0,0)
(1.73251141010192e-12,1.46128173946577e-12,-9.87367593007466e-11)
(4.40764455776189e-12,3.47892731895815e-12,-9.88221184451643e-11)
(6.43613746634674e-12,5.60243385045782e-12,-9.88337976622535e-11)
(6.40938946520197e-12,7.05064931895662e-12,-9.86591402677706e-11)
(4.06029795603631e-12,9.52764633327457e-12,-9.92081455246056e-11)
(-2.35941246542404e-12,1.88345386880501e-11,-1.02077633625566e-10)
(-4.81656903635396e-12,7.82274649039092e-11,-9.57513300258329e-11)
(-7.32981080108066e-12,1.42990283491407e-10,-9.02426487259209e-11)
(-8.40422253879435e-12,2.0551279771688e-10,-6.2485857649368e-11)
(-9.09050973090951e-12,2.85483978743258e-10,-3.19304417381754e-11)
(0,0,0)
(0,0,0)
(0,0,0)
(0,0,0)
(0,0,0)
(0,0,0)
(1.23273386813165e-12,1.05389825554287e-12,-1.47620883754403e-10)
(3.67504965333365e-12,2.61228916095293e-12,-1.47477200378712e-10)
(5.3897143798122e-12,4.39023605336335e-12,-1.47436932505506e-10)
(5.73682405380554e-12,5.90925652440884e-12,-1.47614279029426e-10)
(4.19130685583841e-12,1.03558410690167e-11,-1.48418871615969e-10)
(-4.08495114867378e-13,2.64727135564862e-11,-1.50097199494825e-10)
(-4.45118731992889e-12,7.3625030027281e-11,-1.48819901603151e-10)
(-6.9348375504602e-12,1.19716412328387e-10,-1.27310626175258e-10)
(-8.70495080243256e-12,1.782992299828e-10,-9.31894353642114e-11)
(-9.45481973440776e-12,2.55941184200173e-10,-5.02670219840559e-11)
(0,0,0)
(0,0,0)
(0,0,0)
(0,0,0)
(0,0,0)
(0,0,0)
(6.40450765445962e-13,3.87707836335648e-13,-2.15226931291362e-10)
(2.50912762446241e-12,1.63746750466249e-12,-2.15511997357756e-10)
(3.94016223617844e-12,3.265722013263e-12,-2.157453441089e-10)
(4.21873470090395e-12,5.17644001928437e-12,-2.15581768306341e-10)
(3.08992633962017e-12,9.95467193252843e-12,-2.15058600591669e-10)
(1.13812261770575e-13,2.40058652580332e-11,-2.13079325089768e-10)
(-3.30797002254403e-12,5.30392845420198e-11,-2.04815323309983e-10)
(-5.94283853449514e-12,8.78052617147207e-11,-1.80465054511694e-10)
(-7.2274683284737e-12,1.37453364468656e-10,-1.39964403085629e-10)
(-7.79079106277814e-12,2.07139604045586e-10,-8.05720516186459e-11)
(0,0,0)
(0,0,0)
(0,0,0)
(0,0,0)
(0,0,0)
(0,0,0)
(-5.61488216153137e-13,1.46203644435483e-13,-2.98922068690379e-10)
(4.44423660136116e-13,9.29453245569801e-13,-2.99710999386038e-10)
(2.40865793090629e-12,1.85016659518111e-12,-3.00256991525866e-10)
(3.10973108938215e-12,3.23562428674973e-12,-3.00004431173561e-10)
(2.23212240836234e-12,6.13232886542995e-12,-2.98304191067709e-10)
(9.93431469448428e-14,1.37262080574397e-11,-2.93909306160405e-10)
(-2.52732095687749e-12,2.79792508878297e-11,-2.82152576244664e-10)