/*--------------------------------*- C++ -*----------------------------------*\
| =========                 |                                                 |
| \\      /  F ield         | foam-extend: Open Source CFD                    |
|  \\    /   O peration     | Version:     4.0                                |
|   \\  /    A nd           | Web:         http://www.foam-extend.org         |
|    \\/     M anipulation  |                                                 |
\*---------------------------------------------------------------------------*/
FoamFile
{
    version 2.0;
    format ascii;
    class volVectorField;
    location "3747";
    object      H;
}
// * * * * * * * * * * * * * * * * * * * * * * * * * * * * * * * * * * * * * //

dimensions      [0 1 -1 0 0 0 0];

internalField   nonuniform List<vector>
4096
(
(0,0,0)
(0,0,0)
(0,0,0)
(0,0,0)
(0,0,0)
(0,0,0)
(0,0,0)
(0,0,0)
(0,0,0)
(0,0,0)
(0,0,0)
(0,0,0)
(0,0,0)
(0,0,0)
(0,0,0)
(0,0,0)
(0,0,0)
(0,0,0)
(0,0,0)
(0,0,0)
(0,0,0)
(0,0,0)
(0,0,0)
(0,0,0)
(0,0,0)
(0,0,0)
(0,0,0)
(0,0,0)
(0,0,0)
(0,0,0)
(0,0,0)
(0,0,0)
(0,0,0)
(0,0,0)
(0,0,0)
(0,0,0)
(0,0,0)
(0,0,0)
(0,0,0)
(0,0,0)
(0,0,0)
(0,0,0)
(0,0,0)
(0,0,0)
(0,0,0)
(0,0,0)
(0,0,0)
(0,0,0)
(0,0,0)
(0,0,0)
(0,0,0)
(0,0,0)
(0,0,0)
(0,0,0)
(0,0,0)
(0,0,0)
(0,0,0)
(0,0,0)
(0,0,0)
(0,0,0)
(0,0,0)
(0,0,0)
(0,0,0)
(0,0,0)
(0,0,0)
(0,0,0)
(0,0,0)
(0,0,0)
(0,0,0)
(0,0,0)
(0,0,0)
(0,0,0)
(0,0,0)
(0,0,0)
(0,0,0)
(0,0,0)
(0,0,0)
(0,0,0)
(0,0,0)
(0,0,0)
(0,0,0)
(0,0,0)
(0,0,0)
(0,0,0)
(0,0,0)
(0,0,0)
(0,0,0)
(0,0,0)
(0,0,0)
(0,0,0)
(0,0,0)
(0,0,0)
(0,0,0)
(0,0,0)
(0,0,0)
(0,0,0)
(0,0,0)
(0,0,0)
(0,0,0)
(0,0,0)
(0,0,0)
(0,0,0)
(0,0,0)
(0,0,0)
(0,0,0)
(0,0,0)
(0,0,0)
(0,0,0)
(0,0,0)
(0,0,0)
(0,0,0)
(0,0,0)
(0,0,0)
(0,0,0)
(0,0,0)
(0,0,0)
(0,0,0)
(0,0,0)
(0,0,0)
(0,0,0)
(0,0,0)
(0,0,0)
(0,0,0)
(0,0,0)
(0,0,0)
(0,0,0)
(0,0,0)
(0,0,0)
(0,0,0)
(0,0,0)
(0,0,0)
(0,0,0)
(0,0,0)
(0,0,0)
(0,0,0)
(0,0,0)
(0,0,0)
(0,0,0)
(0,0,0)
(0,0,0)
(0,0,0)
(0,0,0)
(0,0,0)
(0,0,0)
(0,0,0)
(0,0,0)
(0,0,0)
(0,0,0)
(0,0,0)
(0,0,0)
(0,0,0)
(0,0,0)
(0,0,0)
(0,0,0)
(0,0,0)
(0,0,0)
(0,0,0)
(0,0,0)
(0,0,0)
(0,0,0)
(0,0,0)
(0,0,0)
(0,0,0)
(0,0,0)
(0,0,0)
(0,0,0)
(0,0,0)
(0,0,0)
(0,0,0)
(0,0,0)
(0,0,0)
(0,0,0)
(0,0,0)
(0,0,0)
(0,0,0)
(0,0,0)
(0,0,0)
(0,0,0)
(0,0,0)
(0,0,0)
(0,0,0)
(0,0,0)
(0,0,0)
(0,0,0)
(0,0,0)
(0,0,0)
(0,0,0)
(0,0,0)
(0,0,0)
(0,0,0)
(0,0,0)
(0,0,0)
(0,0,0)
(0,0,0)
(0,0,0)
(0,0,0)
(0,0,0)
(0,0,0)
(0,0,0)
(0,0,0)
(0,0,0)
(0,0,0)
(0,0,0)
(0,0,0)
(0,0,0)
(0,0,0)
(0,0,0)
(0,0,0)
(0,0,0)
(0,0,0)
(0,0,0)
(0,0,0)
(0,0,0)
(0,0,0)
(0,0,0)
(0,0,0)
(0,0,0)
(0,0,0)
(0,0,0)
(0,0,0)
(0,0,0)
(0,0,0)
(0,0,0)
(0,0,0)
(0,0,0)
(0,0,0)
(0,0,0)
(0,0,0)
(0,0,0)
(0,0,0)
(0,0,0)
(0,0,0)
(0,0,0)
(0,0,0)
(0,0,0)
(0,0,0)
(0,0,0)
(0,0,0)
(0,0,0)
(0,0,0)
(0,0,0)
(0,0,0)
(0,0,0)
(0,0,0)
(0,0,0)
(0,0,0)
(0,0,0)
(0,0,0)
(0,0,0)
(0,0,0)
(0,0,0)
(0,0,0)
(0,0,0)
(0,0,0)
(0,0,0)
(0,0,0)
(0,0,0)
(0,0,0)
(0,0,0)
(0,0,0)
(0,0,0)
(0,0,0)
(0,0,0)
(0,0,0)
(0,0,0)
(0,0,0)
(0,0,0)
(0,0,0)
(0,0,0)
(0,0,0)
(0,0,0)
(0,0,0)
(0,0,0)
(0,0,0)
(0,0,0)
(0,0,0)
(0,0,0)
(0,0,0)
(0,0,0)
(0,0,0)
(0,0,0)
(0,0,0)
(0,0,0)
(0,0,0)
(0,0,0)
(0,0,0)
(0,0,0)
(0,0,0)
(0,0,0)
(0,0,0)
(0,0,0)
(0,0,0)
(0,0,0)
(0,0,0)
(0,0,0)
(0,0,0)
(0,0,0)
(0,0,0)
(0,0,0)
(0,0,0)
(0,0,0)
(0,0,0)
(0,0,0)
(0,0,0)
(0,0,0)
(0,0,0)
(0,0,0)
(0,0,0)
(0,0,0)
(0,0,0)
(0,0,0)
(0,0,0)
(0,0,0)
(0,0,0)
(0,0,0)
(0,0,0)
(0,0,0)
(0,0,0)
(0,0,0)
(0,0,0)
(0,0,0)
(0,0,0)
(0,0,0)
(0,0,0)
(0,0,0)
(0,0,0)
(0,0,0)
(0,0,0)
(0,0,0)
(0,0,0)
(0,0,0)
(0,0,0)
(0,0,0)
(0,0,0)
(0,0,0)
(0,0,0)
(0,0,0)
(0,0,0)
(0,0,0)
(0,0,0)
(0,0,0)
(0,0,0)
(0,0,0)
(0,0,0)
(0,0,0)
(0,0,0)
(0,0,0)
(0,0,0)
(0,0,0)
(0,0,0)
(0,0,0)
(0,0,0)
(0,0,0)
(0,0,0)
(0,0,0)
(0,0,0)
(0,0,0)
(0,0,0)
(0,0,0)
(0,0,0)
(0,0,0)
(0,0,0)
(0,0,0)
(0,0,0)
(0,0,0)
(0,0,0)
(0,0,0)
(0,0,0)
(0,0,0)
(0,0,0)
(0,0,0)
(0,0,0)
(0,0,0)
(0,0,0)
(0,0,0)
(0,0,0)
(0,0,0)
(0,0,0)
(0,0,0)
(0,0,0)
(0,0,0)
(0,0,0)
(0,0,0)
(0,0,0)
(0,0,0)
(0,0,0)
(0,0,0)
(0,0,0)
(0,0,0)
(0,0,0)
(0,0,0)
(0,0,0)
(0,0,0)
(0,0,0)
(0,0,0)
(0,0,0)
(0,0,0)
(0,0,0)
(0,0,0)
(0,0,0)
(0,0,0)
(0,0,0)
(0,0,0)
(0,0,0)
(0,0,0)
(0,0,0)
(0,0,0)
(0,0,0)
(0,0,0)
(0,0,0)
(0,0,0)
(0,0,0)
(0,0,0)
(0,0,0)
(0,0,0)
(0,0,0)
(0,0,0)
(0,0,0)
(0,0,0)
(0,0,0)
(0,0,0)
(0,0,0)
(0,0,0)
(0,0,0)
(0,0,0)
(0,0,0)
(0,0,0)
(0,0,0)
(0,0,0)
(0,0,0)
(0,0,0)
(0,0,0)
(0,0,0)
(0,0,0)
(0,0,0)
(0,0,0)
(0,0,0)
(0,0,0)
(0,0,0)
(0,0,0)
(0,0,0)
(0,0,0)
(0,0,0)
(0,0,0)
(0,0,0)
(0,0,0)
(0,0,0)
(0,0,0)
(0,0,0)
(0,0,0)
(0,0,0)
(0,0,0)
(0,0,0)
(0,0,0)
(0,0,0)
(0,0,0)
(0,0,0)
(0,0,0)
(0,0,0)
(0,0,0)
(0,0,0)
(0,0,0)
(0,0,0)
(0,0,0)
(0,0,0)
(0,0,0)
(0,0,0)
(0,0,0)
(0,0,0)
(0,0,0)
(0,0,0)
(0,0,0)
(0,0,0)
(0,0,0)
(0,0,0)
(0,0,0)
(0,0,0)
(0,0,0)
(0,0,0)
(0,0,0)
(0,0,0)
(0,0,0)
(0,0,0)
(0,0,0)
(0,0,0)
(0,0,0)
(0,0,0)
(0,0,0)
(0,0,0)
(0,0,0)
(0,0,0)
(0,0,0)
(0,0,0)
(0,0,0)
(0,0,0)
(0,0,0)
(0,0,0)
(0,0,0)
(0,0,0)
(0,0,0)
(0,0,0)
(0,0,0)
(0,0,0)
(0,0,0)
(0,0,0)
(0,0,0)
(0,0,0)
(0,0,0)
(0,0,0)
(0,0,0)
(0,0,0)
(0,0,0)
(0,0,0)
(0,0,0)
(0,0,0)
(0,0,0)
(0,0,0)
(0,0,0)
(0,0,0)
(0,0,0)
(0,0,0)
(0,0,0)
(0,0,0)
(0,0,0)
(0,0,0)
(0,0,0)
(0,0,0)
(0,0,0)
(0,0,0)
(0,0,0)
(0,0,0)
(0,0,0)
(0,0,0)
(0,0,0)
(0,0,0)
(0,0,0)
(0,0,0)
(0,0,0)
(0,0,0)
(0,0,0)
(0,0,0)
(0,0,0)
(0,0,0)
(0,0,0)
(0,0,0)
(0,0,0)
(0,0,0)
(0,0,0)
(0,0,0)
(0,0,0)
(0,0,0)
(0,0,0)
(0,0,0)
(0,0,0)
(0,0,0)
(0,0,0)
(0,0,0)
(0,0,0)
(0,0,0)
(0,0,0)
(0,0,0)
(0,0,0)
(0,0,0)
(0,0,0)
(0,0,0)
(0,0,0)
(0,0,0)
(0,0,0)
(0,0,0)
(0,0,0)
(0,0,0)
(0,0,0)
(0,0,0)
(0,0,0)
(0,0,0)
(0,0,0)
(0,0,0)
(0,0,0)
(0,0,0)
(0,0,0)
(0,0,0)
(0,0,0)
(0,0,0)
(0,0,0)
(0,0,0)
(0,0,0)
(0,0,0)
(0,0,0)
(0,0,0)
(0,0,0)
(0,0,0)
(0,0,0)
(0,0,0)
(0,0,0)
(0,0,0)
(0,0,0)
(0,0,0)
(0,0,0)
(0,0,0)
(0,0,0)
(0,0,0)
(0,0,0)
(0,0,0)
(0,0,0)
(0,0,0)
(0,0,0)
(0,0,0)
(0,0,0)
(0,0,0)
(0,0,0)
(0,0,0)
(0,0,0)
(0,0,0)
(0,0,0)
(0,0,0)
(0,0,0)
(0,0,0)
(0,0,0)
(0,0,0)
(0,0,0)
(0,0,0)
(0,0,0)
(0,0,0)
(0,0,0)
(0,0,0)
(0,0,0)
(0,0,0)
(0,0,0)
(0,0,0)
(0,0,0)
(0,0,0)
(0,0,0)
(0,0,0)
(0,0,0)
(0,0,0)
(0,0,0)
(0,0,0)
(0,0,0)
(0,0,0)
(0,0,0)
(0,0,0)
(0,0,0)
(0,0,0)
(0,0,0)
(0,0,0)
(0,0,0)
(0,0,0)
(0,0,0)
(0,0,0)
(0,0,0)
(0,0,0)
(0,0,0)
(0,0,0)
(0,0,0)
(0,0,0)
(0,0,0)
(0,0,0)
(0,0,0)
(0,0,0)
(0,0,0)
(0,0,0)
(0,0,0)
(0,0,0)
(0,0,0)
(0,0,0)
(0,0,0)
(0,0,0)
(0,0,0)
(0,0,0)
(0,0,0)
(0,0,0)
(0,0,0)
(0,0,0)
(0,0,0)
(0,0,0)
(0,0,0)
(0,0,0)
(0,0,0)
(0,0,0)
(0,0,0)
(0,0,0)
(0,0,0)
(0,0,0)
(0,0,0)
(0,0,0)
(0,0,0)
(0,0,0)
(0,0,0)
(0,0,0)
(0,0,0)
(0,0,0)
(0,0,0)
(0,0,0)
(0,0,0)
(0,0,0)
(0,0,0)
(0,0,0)
(0,0,0)
(0,0,0)
(0,0,0)
(0,0,0)
(0,0,0)
(0,0,0)
(0,0,0)
(0,0,0)
(0,0,0)
(0,0,0)
(0,0,0)
(0,0,0)
(0,0,0)
(0,0,0)
(0,0,0)
(0,0,0)
(0,0,0)
(0,0,0)
(0,0,0)
(0,0,0)
(0,0,0)
(0,0,0)
(0,0,0)
(0,0,0)
(0,0,0)
(0,0,0)
(0,0,0)
(0,0,0)
(0,0,0)
(0,0,0)
(0,0,0)
(0,0,0)
(0,0,0)
(0,0,0)
(0,0,0)
(0,0,0)
(0,0,0)
(0,0,0)
(0,0,0)
(0,0,0)
(0,0,0)
(0,0,0)
(0,0,0)
(0,0,0)
(0,0,0)
(0,0,0)
(0,0,0)
(0,0,0)
(0,0,0)
(0,0,0)
(0,0,0)
(0,0,0)
(0,0,0)
(0,0,0)
(0,0,0)
(0,0,0)
(0,0,0)
(0,0,0)
(0,0,0)
(0,0,0)
(0,0,0)
(0,0,0)
(0,0,0)
(0,0,0)
(0,0,0)
(0,0,0)
(0,0,0)
(0,0,0)
(0,0,0)
(0,0,0)
(0,0,0)
(0,0,0)
(0,0,0)
(0,0,0)
(0,0,0)
(0,0,0)
(0,0,0)
(0,0,0)
(0,0,0)
(0,0,0)
(0,0,0)
(0,0,0)
(0,0,0)
(0,0,0)
(0,0,0)
(0,0,0)
(0,0,0)
(0,0,0)
(0,0,0)
(0,0,0)
(0,0,0)
(0,0,0)
(0,0,0)
(0,0,0)
(0,0,0)
(0,0,0)
(0,0,0)
(0,0,0)
(0,0,0)
(0,0,0)
(0,0,0)
(0,0,0)
(0,0,0)
(0,0,0)
(0,0,0)
(0,0,0)
(0,0,0)
(0,0,0)
(0,0,0)
(0,0,0)
(0,0,0)
(0,0,0)
(0,0,0)
(0,0,0)
(0,0,0)
(0,0,0)
(0,0,0)
(0,0,0)
(0,0,0)
(0,0,0)
(0,0,0)
(0,0,0)
(2.32117757930502e-14,-8.5729467067021e-12,8.76094389434967e-12)
(-1.60681956226326e-13,-1.64545253933116e-11,8.37065163038609e-12)
(-4.35949264330437e-13,-2.70553021421339e-11,7.75263193935433e-12)
(-1.26182092596874e-12,-4.25869904889797e-11,6.78128551237635e-12)
(-1.01087679037806e-12,-6.84833231548583e-11,5.59471070410973e-12)
(7.77326282105047e-14,-1.1158350646935e-10,3.79159791743227e-12)
(1.12270269968598e-12,-1.80967612632826e-10,2.25354323617122e-12)
(1.48573685480826e-12,-2.96881556671445e-10,9.69655583360569e-13)
(9.95464609355182e-13,-4.90218203304574e-10,2.97506814484963e-13)
(-2.78186516818079e-13,-7.60600849976004e-10,4.63287744133388e-13)
(0,0,0)
(0,0,0)
(0,0,0)
(0,0,0)
(0,0,0)
(0,0,0)
(7.84614647031157e-13,-8.18270018952745e-12,1.70888472732077e-11)
(1.17758803870143e-12,-1.59019195669754e-11,1.6448951924548e-11)
(4.33236735311732e-13,-2.60875699529981e-11,1.57820971413708e-11)
(-1.21890755655357e-12,-4.16736164226402e-11,1.44307574019715e-11)
(-1.20547597782123e-12,-6.73451051214017e-11,1.19357998457115e-11)
(4.64780452000623e-13,-1.10155646989054e-10,8.60979961600371e-12)
(1.75755465413196e-12,-1.7984772866266e-10,6.01931071390237e-12)
(2.48940023538694e-12,-2.96654073147602e-10,4.12678469307716e-12)
(2.34058774945272e-12,-4.90708590794234e-10,2.93097487095526e-12)
(7.14587998116732e-13,-7.60614140505571e-10,1.88533823938242e-12)
(0,0,0)
(0,0,0)
(0,0,0)
(0,0,0)
(0,0,0)
(0,0,0)
(1.15288468145107e-12,-7.50047126506561e-12,2.81312226025436e-11)
(1.82254411082085e-12,-1.48121909519091e-11,2.74573310032939e-11)
(1.52312236553219e-12,-2.39557815498781e-11,2.66485278407291e-11)
(-1.04007069666171e-12,-3.86628807173192e-11,2.47362709552738e-11)
(-1.59331312003589e-12,-6.38463079927394e-11,2.10819566419685e-11)
(4.7548304813926e-13,-1.06782280534672e-10,1.66275661756287e-11)
(2.06508256547433e-12,-1.77752985766507e-10,1.29193885052051e-11)
(3.45661895197459e-12,-2.95981180444617e-10,9.94281286528937e-12)
(4.5053059005806e-12,-4.9044137303078e-10,7.29963986821017e-12)
(3.13557593639557e-12,-7.59873169145306e-10,4.05458080792136e-12)
(0,0,0)
(0,0,0)
(0,0,0)
(0,0,0)
(0,0,0)
(0,0,0)
(7.62069169649048e-14,-6.41698861224814e-12,4.54338024789064e-11)
(-8.55644018647769e-14,-1.24853512994735e-11,4.46972227332098e-11)
(-6.7001124114333e-13,-1.98973518001825e-11,4.35527467538943e-11)
(-2.51119292472233e-12,-3.36480785568451e-11,4.13790497085385e-11)
(-2.60765080397802e-12,-5.84844397978238e-11,3.75730594845099e-11)
(1.08230574419717e-13,-1.01678501597126e-10,3.2654651388001e-11)
(2.66851821656103e-12,-1.74478263334685e-10,2.76642408634587e-11)
(4.91802839436113e-12,-2.94388410009809e-10,2.219929123198e-11)
(6.44594173883829e-12,-4.88751391811751e-10,1.60939597760507e-11)
(6.16415813614472e-12,-7.57987657090037e-10,8.68558140108051e-12)
(0,0,0)
(0,0,0)
(0,0,0)
(0,0,0)
(0,0,0)
(0,0,0)
(-9.05833671841288e-13,-5.32045772505302e-12,7.23342791090611e-11)
(-1.80764596907318e-12,-1.02181388504076e-11,7.11859198640891e-11)
(-2.52168381904974e-12,-1.59402324662102e-11,6.96178193716357e-11)
(-2.33887233607555e-12,-2.82692061138757e-11,6.79569067188816e-11)
(-2.89207834156026e-12,-5.16897656375785e-11,6.54140106036393e-11)
(-7.22414104814439e-13,-9.40851672272129e-11,6.1329472348533e-11)
(2.11877720566765e-12,-1.68078827507991e-10,5.58639240160517e-11)
(4.15123377478277e-12,-2.89977594106755e-10,4.61423892671614e-11)
(5.36150195733667e-12,-4.84203471550476e-10,3.34178294298349e-11)
(5.98550694371039e-12,-7.5262481934479e-10,1.77008862693807e-11)
(0,0,0)
(0,0,0)
(0,0,0)
(0,0,0)
(0,0,0)
(0,0,0)
(-2.2743406569597e-12,-3.95590148515154e-12,1.14544583609054e-10)
(-5.06636896664022e-12,-7.40402897312477e-12,1.13506076710118e-10)
(-6.66337669341549e-12,-1.18796675630582e-11,1.11982405137028e-10)
(-5.46240770441332e-12,-2.27083907946223e-11,1.10557050830116e-10)
(-4.63366434486048e-12,-4.408792973733e-11,1.08303686538302e-10)
(-2.48874563786263e-12,-8.50987667226135e-11,1.04181100994896e-10)
(1.16298265134222e-13,-1.59577296203838e-10,9.65795151359281e-11)
(1.50415246755874e-12,-2.80310652149444e-10,8.19286967884157e-11)
(2.37481885890885e-12,-4.7203152332979e-10,5.99140296999302e-11)
(2.70061531752645e-12,-7.38115561768378e-10,3.167526127812e-11)
(0,0,0)
(0,0,0)
(0,0,0)
(0,0,0)
(0,0,0)
(0,0,0)
(-3.54947263996079e-12,-2.74418015309185e-12,1.81739596515611e-10)
(-7.60595717445131e-12,-5.22619510501223e-12,1.80692228587419e-10)
(-9.65509946760259e-12,-9.08201685907341e-12,1.794592744483e-10)
(-9.14613970265779e-12,-1.83456148477857e-11,1.78312454922923e-10)
(-8.0618651958387e-12,-3.71676099678456e-11,1.76008759673593e-10)
(-5.26318333310773e-12,-7.50674094091229e-11,1.70854452006483e-10)
(-3.05562789803783e-12,-1.46692603490153e-10,1.59207569660309e-10)
(-1.33061491529019e-12,-2.61789653171947e-10,1.38064007983152e-10)
(6.281528638739e-13,-4.47401129994479e-10,1.03442594526603e-10)
(4.63019011151127e-13,-7.09373445020594e-10,5.61374521894256e-11)
(0,0,0)
(0,0,0)
(0,0,0)
(0,0,0)
(0,0,0)
(0,0,0)
(-5.2054628035873e-12,-1.82448705679327e-12,2.96385480892359e-10)
(-9.63065168270368e-12,-4.02200068095778e-12,2.95393628484005e-10)
(-1.20185184385836e-11,-7.51338917963721e-12,2.93855084757075e-10)
(-1.2561964369974e-11,-1.52528325779778e-11,2.92030075461731e-10)
(-1.16847517106724e-11,-3.17656367834297e-11,2.88833673548309e-10)
(-7.67775616408806e-12,-6.51704486014805e-11,2.81275895886021e-10)
(-5.1465990821011e-12,-1.27226262403017e-10,2.65532383422771e-10)
(-3.03305673020269e-12,-2.29640384112817e-10,2.34048559432827e-10)
(-5.94477390213595e-13,-4.02774021314731e-10,1.81258609563961e-10)
(-1.73093560823007e-14,-6.55739898140453e-10,1.02596751554063e-10)
(0,0,0)
(0,0,0)
(0,0,0)
(0,0,0)
(0,0,0)
(0,0,0)
(-6.43307231864774e-12,-1.10583023552047e-12,4.87943311931587e-10)
(-1.17411550651539e-11,-2.52400021255885e-12,4.86758520452236e-10)
(-1.47979400335549e-11,-5.43572953428229e-12,4.84954827019331e-10)
(-1.66623664501966e-11,-1.1625854689628e-11,4.82432137508835e-10)
(-1.59687284133132e-11,-2.42348550858158e-11,4.77255696512886e-10)
(-1.13670940814551e-11,-4.96518468539715e-11,4.66330716118166e-10)
(-7.36093175648728e-12,-9.61445699602867e-11,4.44764222724603e-10)
(-3.65322231779007e-12,-1.77810329151353e-10,4.02070622272287e-10)
(-1.83430902989088e-13,-3.25418163932924e-10,3.25355524243838e-10)
(1.66195677727314e-12,-5.54640846122186e-10,1.95670156512365e-10)
(0,0,0)
(0,0,0)
(0,0,0)
(0,0,0)
(0,0,0)
(0,0,0)
(-7.65360596222015e-12,-5.42758925380716e-13,7.56052674245189e-10)
(-1.3387463465257e-11,-1.14317471126538e-12,7.54573186830441e-10)
(-1.56868074367718e-11,-2.95964764143825e-12,7.52580081745329e-10)
(-1.76676824088791e-11,-6.44374582029364e-12,7.4968835111332e-10)
(-1.72010094886841e-11,-1.31469454594083e-11,7.43411349180573e-10)
(-1.29974923103158e-11,-2.70649594263322e-11,7.3067617631117e-10)
(-7.75346769526758e-12,-5.26673169572392e-11,7.04624092683975e-10)
(-2.58484779749915e-12,-1.00957574694529e-10,6.52850913824106e-10)
(1.92686562043085e-12,-1.95862934944149e-10,5.52606060222475e-10)
(5.21097163215298e-12,-3.59032441645258e-10,3.57517675951571e-10)
(0,0,0)
(0,0,0)
(0,0,0)
(0,0,0)
(0,0,0)
(0,0,0)
(0,0,0)
(0,0,0)
(0,0,0)
(0,0,0)
(0,0,0)
(0,0,0)
(0,0,0)
(0,0,0)
(0,0,0)
(0,0,0)
(0,0,0)
(0,0,0)
(0,0,0)
(0,0,0)
(0,0,0)
(0,0,0)
(0,0,0)
(0,0,0)
(0,0,0)
(0,0,0)
(0,0,0)
(0,0,0)
(0,0,0)
(0,0,0)
(0,0,0)
(0,0,0)
(0,0,0)
(0,0,0)
(0,0,0)
(0,0,0)
(0,0,0)
(0,0,0)
(0,0,0)
(0,0,0)
(0,0,0)
(0,0,0)
(0,0,0)
(0,0,0)
(0,0,0)
(0,0,0)
(0,0,0)
(0,0,0)
(0,0,0)
(0,0,0)
(0,0,0)
(0,0,0)
(0,0,0)
(0,0,0)
(0,0,0)
(0,0,0)
(0,0,0)
(0,0,0)
(0,0,0)
(0,0,0)
(0,0,0)
(0,0,0)
(0,0,0)
(0,0,0)
(0,0,0)
(0,0,0)
(0,0,0)
(0,0,0)
(0,0,0)
(0,0,0)
(0,0,0)
(0,0,0)
(0,0,0)
(0,0,0)
(0,0,0)
(0,0,0)
(0,0,0)
(0,0,0)
(0,0,0)
(0,0,0)
(0,0,0)
(0,0,0)
(0,0,0)
(0,0,0)
(0,0,0)
(0,0,0)
(0,0,0)
(0,0,0)
(0,0,0)
(0,0,0)
(0,0,0)
(0,0,0)
(0,0,0)
(0,0,0)
(0,0,0)
(0,0,0)
(0,0,0)
(0,0,0)
(0,0,0)
(0,0,0)
(0,0,0)
(0,0,0)
(2.32575225789314e-14,-1.54364447644845e-11,1.53497568387629e-11)
(-9.52680915322041e-14,-3.14564293782068e-11,1.46904231906281e-11)
(-4.32335026507479e-13,-5.16933914616491e-11,1.32544508206961e-11)
(-9.88620184048309e-13,-7.97927798833579e-11,1.14261729206132e-11)
(-3.4598203721355e-13,-1.24012412232317e-10,9.14048399869498e-12)
(1.87927829246084e-13,-1.97456933141829e-10,6.12028104997058e-12)
(1.28670638246152e-12,-3.1587795767934e-10,2.87956578921213e-12)
(1.93040209968883e-12,-5.17780814882633e-10,5.56593184007012e-13)
(1.3200711688876e-12,-9.04700938330752e-10,-2.80915342835567e-13)
(1.98391756626898e-13,-1.78934575891628e-09,3.4997819697156e-14)
(0,0,0)
(0,0,0)
(0,0,0)
(0,0,0)
(0,0,0)
(0,0,0)
(7.42281071228016e-13,-1.4273446751867e-11,3.13973181679355e-11)
(7.5471420682427e-13,-2.94357242608027e-11,3.04538232864512e-11)
(-3.47211928423716e-13,-4.9053562136768e-11,2.85882264770302e-11)
(-1.73468570559714e-12,-7.69246003745799e-11,2.52573290255068e-11)
(-1.3782728767633e-12,-1.20773117760885e-10,1.98316922508635e-11)
(-3.18097100304508e-13,-1.9444186911761e-10,1.30867486855915e-11)
(1.555337778661e-12,-3.14487500312122e-10,6.88948265618403e-12)
(3.0123173548808e-12,-5.18231549209571e-10,3.57467079604393e-12)
(3.11900661789828e-12,-9.06204757772221e-10,2.52201987674652e-12)
(1.8589548770964e-12,-1.7906209400946e-09,1.58651699774455e-12)
(0,0,0)
(0,0,0)
(0,0,0)
(0,0,0)
(0,0,0)
(0,0,0)
(7.43293627884744e-13,-1.24915234628244e-11,5.28064979529875e-11)
(3.04507620953911e-13,-2.63350300260819e-11,5.18465456498883e-11)
(-6.23050498676838e-13,-4.42364282042669e-11,4.92351671403414e-11)
(-2.40055854383868e-12,-7.03148663057551e-11,4.39956040598219e-11)
(-2.5007908486816e-12,-1.13260758584135e-10,3.58833080064369e-11)
(-9.20118218987038e-13,-1.87988458976784e-10,2.59196883504431e-11)
(1.76693577366408e-12,-3.12177919877854e-10,1.62198283539631e-11)
(4.50702151406682e-12,-5.19402638003313e-10,1.13373221831584e-11)
(6.06038374174217e-12,-9.07851621418943e-10,8.68416836417723e-12)
(5.30464468851956e-12,-1.79172481397195e-09,4.91782210646016e-12)
(0,0,0)
(0,0,0)
(0,0,0)
(0,0,0)
(0,0,0)
(0,0,0)
(-2.83744224533144e-13,-1.05433329289313e-11,8.46976265920104e-11)
(-1.20830087161681e-12,-2.18365673618823e-11,8.31539974012355e-11)
(-2.45343352977222e-12,-3.6498617061583e-11,7.9817781965371e-11)
(-4.08407514366508e-12,-6.00624584042736e-11,7.41148544142008e-11)
(-4.4839168677238e-12,-1.01461462201726e-10,6.55246046390747e-11)
(-2.49469327094732e-12,-1.76541137662567e-10,5.41502250432083e-11)
(1.73403202129215e-12,-3.06803032419856e-10,4.12882047785501e-11)
(6.61254394732336e-12,-5.19858838350335e-10,3.23023837519397e-11)
(9.30639985326157e-12,-9.08258386545731e-10,2.38790201820801e-11)
(9.48690179354385e-12,-1.79114020342472e-09,1.31202113940132e-11)
(0,0,0)
(0,0,0)
(0,0,0)
(0,0,0)
(0,0,0)
(0,0,0)
(-1.12203066677193e-12,-8.32238279547506e-12,1.32299573102697e-10)
(-3.0536553539047e-12,-1.70747682952625e-11,1.30292960933391e-10)
(-4.92133606945259e-12,-2.82675140572638e-11,1.26680436240413e-10)
(-5.35679154008573e-12,-4.84622588847977e-11,1.22060347368877e-10)
(-6.40937598668623e-12,-8.60292875774247e-11,1.15876941821826e-10)
(-4.24326627700226e-12,-1.57720025228197e-10,1.08179436963121e-10)
(3.33878065049658e-12,-2.92126962581158e-10,1.00983933062456e-10)
(7.20885165495915e-12,-5.15565933629715e-10,7.99590611765499e-11)
(8.90649689671832e-12,-9.03137990741484e-10,5.66482219176875e-11)
(9.17713563637787e-12,-1.78327377645377e-09,2.99659195167539e-11)
(0,0,0)
(0,0,0)
(0,0,0)
(0,0,0)
(0,0,0)
(0,0,0)
(-2.44755509008192e-12,-5.89190137609876e-12,2.0504814007683e-10)
(-5.7205312616682e-12,-1.2034110494519e-11,2.03465612231518e-10)
(-8.03567309049646e-12,-2.04375791600172e-11,2.00450396767525e-10)
(-7.57181935943276e-12,-3.69912291703197e-11,1.9692458922968e-10)
(-7.43139857092435e-12,-7.00828939998979e-11,1.92524492339756e-10)
(-4.91851709241985e-12,-1.38810594788463e-10,1.86353671285645e-10)
(1.88242389892043e-12,-2.79065935806004e-10,1.76178001365049e-10)
(4.9978205784347e-12,-5.00914218177527e-10,1.47703013606011e-10)
(5.98319394534638e-12,-8.8326737240863e-10,1.06485315441014e-10)
(5.63375984819558e-12,-1.75882594842629e-09,5.62428547264149e-11)
(0,0,0)
(0,0,0)
(0,0,0)
(0,0,0)
(0,0,0)
(0,0,0)
(-3.4217978080686e-12,-4.16505694938126e-12,3.19786210258782e-10)
(-7.57719745938393e-12,-8.13825630410275e-12,3.18133354369836e-10)
(-1.00769076216547e-11,-1.46534737162275e-11,3.16153309331979e-10)
(-9.93522672314541e-12,-2.78069719354182e-11,3.14209032876389e-10)
(-8.30953071311212e-12,-5.57442406145448e-11,3.11805569286214e-10)
(-3.5132617945731e-12,-1.17763184998303e-10,3.0592412475772e-10)
(-1.37840730797613e-12,-2.57088960394153e-10,2.83884946869006e-10)
(1.14152948195813e-12,-4.68327748696141e-10,2.49112121100035e-10)
(3.30618652167926e-12,-8.39827069995666e-10,1.84378924488089e-10)
(2.9669243214182e-12,-1.708212289905e-09,9.95957816140047e-11)
(0,0,0)
(0,0,0)
(0,0,0)
(0,0,0)
(0,0,0)
(0,0,0)
(-4.93226721650545e-12,-2.88313468265091e-12,5.17824473299207e-10)
(-9.59010842417054e-12,-5.92981055632906e-12,5.16027124609208e-10)
(-1.22711687885918e-11,-1.14417861436946e-11,5.13674861841049e-10)
(-1.29925403449051e-11,-2.28203153710682e-11,5.11464526282667e-10)
(-1.16577557460184e-11,-4.88224741292701e-11,5.08161183965517e-10)
(-7.4528454482825e-12,-1.06494693557098e-10,4.99299151712261e-10)
(-4.74446753480877e-12,-2.24281263686313e-10,4.74255440962039e-10)
(-2.07316182305813e-12,-4.07615135841622e-10,4.16877590697318e-10)
(7.11523237953351e-13,-7.58952213500232e-10,3.2125276438655e-10)
(1.48039017876931e-12,-1.61252222966574e-09,1.82656065742377e-10)
(0,0,0)
(0,0,0)
(0,0,0)
(0,0,0)
(0,0,0)
(0,0,0)
(-5.81135214943711e-12,-1.86690482692725e-12,8.99416876172466e-10)
(-1.1318287133542e-11,-3.67034489021092e-12,8.97644778274586e-10)
(-1.47513324158969e-11,-8.21462414459184e-12,8.94999933900103e-10)
(-1.66680343235746e-11,-1.77258661814994e-11,8.91388005332344e-10)
(-1.61316576449907e-11,-3.85506780923965e-11,8.84324974881472e-10)
(-1.23874881155695e-11,-8.29219626310979e-11,8.68684439677555e-10)
(-8.14458430719028e-12,-1.67720547352002e-10,8.33097381466467e-10)
(-3.79087874615214e-12,-3.13695414584415e-10,7.57811948481132e-10)
(-5.32921603339978e-14,-6.22253117375859e-10,6.23057859504492e-10)
(1.72370881263276e-12,-1.43220180843179e-09,3.89908747365151e-10)
(0,0,0)
(0,0,0)
(0,0,0)
(0,0,0)
(0,0,0)
(0,0,0)
(-6.71687747285272e-12,-8.68732228350145e-13,1.78100079506368e-09)
(-1.25375330914104e-11,-1.55454519673165e-12,1.77933860629247e-09)
(-1.57547244462049e-11,-4.34051929835628e-12,1.77660820714391e-09)
(-1.78344262964259e-11,-9.81923067674904e-12,1.7718928061423e-09)
(-1.76127820786991e-11,-2.14163133607459e-11,1.76216461657691e-09)
(-1.40103681094603e-11,-4.58309088292623e-11,1.74151278701457e-09)
(-8.64760579266859e-12,-9.17020485733643e-11,1.69738863425934e-09)
(-3.29756889036245e-12,-1.79078825341093e-10,1.60744739686483e-09)
(1.152314947183e-12,-3.89521595269586e-10,1.42991206040147e-09)
(3.69620593859133e-12,-1.04327955577463e-09,1.04186654682157e-09)
(0,0,0)
(0,0,0)
(0,0,0)
(0,0,0)
(0,0,0)
(0,0,0)
(0,0,0)
(0,0,0)
(0,0,0)
(0,0,0)
(0,0,0)
(0,0,0)
(0,0,0)
(0,0,0)
(0,0,0)
(0,0,0)
(0,0,0)
(0,0,0)
(0,0,0)
(0,0,0)
(0,0,0)
(0,0,0)
(0,0,0)
(0,0,0)
(0,0,0)
(0,0,0)
(0,0,0)
(0,0,0)
(0,0,0)
(0,0,0)
(0,0,0)
(0,0,0)
(0,0,0)
(0,0,0)
(0,0,0)
(0,0,0)
(0,0,0)
(0,0,0)
(0,0,0)
(0,0,0)
(0,0,0)
(0,0,0)
(0,0,0)
(0,0,0)
(0,0,0)
(0,0,0)
(0,0,0)
(0,0,0)
(0,0,0)
(0,0,0)
(0,0,0)
(0,0,0)
(0,0,0)
(0,0,0)
(0,0,0)
(0,0,0)
(0,0,0)
(0,0,0)
(0,0,0)
(0,0,0)
(0,0,0)
(0,0,0)
(0,0,0)
(0,0,0)
(0,0,0)
(0,0,0)
(0,0,0)
(0,0,0)
(0,0,0)
(0,0,0)
(0,0,0)
(0,0,0)
(0,0,0)
(0,0,0)
(0,0,0)
(0,0,0)
(0,0,0)
(0,0,0)
(0,0,0)
(0,0,0)
(0,0,0)
(0,0,0)
(0,0,0)
(0,0,0)
(0,0,0)
(0,0,0)
(0,0,0)
(0,0,0)
(0,0,0)
(0,0,0)
(0,0,0)
(0,0,0)
(0,0,0)
(0,0,0)
(0,0,0)
(0,0,0)
(0,0,0)
(0,0,0)
(0,0,0)
(0,0,0)
(0,0,0)
(0,0,0)
(-4.80406842180615e-13,-1.96964283641287e-11,2.02812081510697e-11)
(-6.80000838551607e-13,-4.09605500205736e-11,1.89770572700022e-11)
(-1.24388645069732e-12,-6.79031026768135e-11,1.68511666107466e-11)
(-1.57111077098213e-12,-1.0502700854706e-10,1.41373855775964e-11)
(-5.65073560427842e-13,-1.604186681364e-10,1.00212784110448e-11)
(4.1357906631942e-13,-2.44621421057478e-10,4.72404191430765e-12)
(2.2192216198617e-12,-3.71231981139944e-10,-6.87624829875017e-13)
(3.21864495321589e-12,-5.5556841933632e-10,-3.08578504034701e-12)
(2.50797744834498e-12,-8.1923117687479e-10,-2.90298438869402e-12)
(1.50857075342741e-12,-1.14056018392882e-09,-1.36563962094279e-12)
(0,0,0)
(0,0,0)
(0,0,0)
(0,0,0)
(0,0,0)
(0,0,0)
(-9.61473364368591e-14,-1.8225483867044e-11,4.24968368199127e-11)
(-4.80383219140485e-13,-3.82312574034837e-11,4.0490751423693e-11)
(-1.83344841025067e-12,-6.41888290097164e-11,3.7170390334584e-11)
(-2.91878299944498e-12,-1.00373382541976e-10,3.14896529563809e-11)
(-2.14568848764445e-12,-1.54972067225753e-10,2.22757877563515e-11)
(-5.7424121243521e-13,-2.40133505008179e-10,1.02154630442473e-11)
(2.56056920387561e-12,-3.70342504975288e-10,-1.76995503795632e-12)
(5.23605706874679e-12,-5.57901659794332e-10,-4.85879236930364e-12)
(5.70137314398959e-12,-8.22950866094619e-10,-3.33447994489634e-12)
(4.54934575275588e-12,-1.14395596597518e-09,-1.41139210598695e-12)
(0,0,0)
(0,0,0)
(0,0,0)
(0,0,0)
(0,0,0)
(0,0,0)
(-2.44944604714485e-13,-1.54686682296061e-11,7.05695619107798e-11)
(-1.5825765326857e-12,-3.34476286689048e-11,6.85440806929194e-11)
(-3.12129856054314e-12,-5.66819603671843e-11,6.38463072959473e-11)
(-4.54067039211081e-12,-8.98836640838208e-11,5.48242595999041e-11)
(-4.33646757514939e-12,-1.42429251019634e-10,4.08289561859518e-11)
(-2.66757953679236e-12,-2.29538072742968e-10,2.10859223615942e-11)
(1.27455448656331e-12,-3.70058777416001e-10,-1.66193466091448e-12)
(7.61637567976773e-12,-5.64339782918873e-10,-3.74827900777321e-12)
(1.02334951270848e-11,-8.29436197509927e-10,-1.35180518803601e-13)
(9.63785624771614e-12,-1.14923174897971e-09,1.09144353187575e-12)
(0,0,0)
(0,0,0)
(0,0,0)
(0,0,0)
(0,0,0)
(0,0,0)
(-9.61065168469615e-13,-1.27285499250519e-11,1.10907094816587e-10)
(-2.633884501165e-12,-2.73101324709249e-11,1.08517049025529e-10)
(-4.98160898306193e-12,-4.56809043282964e-11,1.03121939145878e-10)
(-7.09402488970312e-12,-7.37880818854494e-11,9.29248827763927e-11)
(-8.54171189649423e-12,-1.21100027126398e-10,7.67912478500255e-11)
(-8.45378543926833e-12,-2.06335897749752e-10,5.15350564301834e-11)
(-3.95621679025232e-12,-3.66913535966023e-10,1.59925773006844e-11)
(1.07430027962325e-11,-5.76143572362424e-10,1.58939839049643e-11)
(1.4944812837868e-11,-8.38205236853486e-10,1.70191737351556e-11)
(1.47406862148937e-11,-1.15434054630444e-09,1.10434226063111e-11)
(0,0,0)
(0,0,0)
(0,0,0)
(0,0,0)
(0,0,0)
(0,0,0)
(-1.54589991692234e-12,-9.65690604616799e-12,1.70305806318882e-10)
(-4.48178846113015e-12,-2.03164907066303e-11,1.67659362111804e-10)
(-8.131182096775e-12,-3.32253886485883e-11,1.62128089385179e-10)
(-1.06444157073077e-11,-5.41189291104487e-11,1.53228430235808e-10)
(-1.46582647037051e-11,-9.04854630759949e-11,1.40931258823417e-10)
(-1.59571928167689e-11,-1.59755312850835e-10,1.27184785666521e-10)
(1.13026257596391e-11,-3.26094907691825e-10,1.40947371897399e-10)
(1.58679754610181e-11,-5.89033602285553e-10,9.3072171240008e-11)
(1.57181809667368e-11,-8.42574006092412e-10,6.35913202289427e-11)
(1.46952271252469e-11,-1.15088209657093e-09,3.36077856608616e-11)
(0,0,0)
(0,0,0)
(0,0,0)
(0,0,0)
(0,0,0)
(0,0,0)
(-2.59187167154587e-12,-6.52612918227989e-12,2.5617904488973e-10)
(-6.60116998830708e-12,-1.34110542668835e-11,2.53721661765712e-10)
(-1.02939709967078e-11,-2.17370755996341e-11,2.48784771195243e-10)
(-1.23559797041539e-11,-3.54940444463628e-11,2.42451422773431e-10)
(-1.55992309020352e-11,-6.16963599314077e-11,2.35466450107125e-10)
(-1.57902569624013e-11,-1.24442132137972e-10,2.2786000821361e-10)
(8.3804362473139e-12,-3.27461724234215e-10,2.37587340040319e-10)
(1.36290492605957e-11,-5.81615652335178e-10,1.87305986932768e-10)
(1.2785352248582e-11,-8.242572588035e-10,1.29655535580985e-10)
(1.12629560526628e-11,-1.1250650042506e-09,6.6990416370909e-11)
(0,0,0)
(0,0,0)
(0,0,0)
(0,0,0)
(0,0,0)
(0,0,0)
(-3.05086418439483e-12,-3.9603374589418e-12,3.77080469986975e-10)
(-7.80559817139971e-12,-7.56372408577406e-12,3.75189501952827e-10)
(-1.13443187381456e-11,-1.272242512344e-11,3.72507507155216e-10)
(-1.25184196977069e-11,-2.07264610714839e-11,3.70643102237452e-10)
(-9.34985266914975e-12,-3.49795985608666e-11,3.73039084641438e-10)
(7.2574246531645e-12,-7.44502992972825e-11,3.80943156649622e-10)
(5.86721752401781e-13,-3.06605792404527e-10,3.37083512988652e-10)
(5.16211323882345e-12,-5.45419285437315e-10,3.22733913884121e-10)
(7.21447290111568e-12,-7.72793796880502e-10,2.24188403750709e-10)
(6.87264569568969e-12,-1.0656787508462e-09,1.15642943748927e-10)
(0,0,0)
(0,0,0)
(0,0,0)
(0,0,0)
(0,0,0)
(0,0,0)
(-4.15114838082978e-12,-2.29577574992782e-12,5.55210590718738e-10)
(-9.49731132235705e-12,-4.54007412303911e-12,5.53629781409549e-10)
(-1.32879952294742e-11,-8.7025935305848e-12,5.51465837738031e-10)
(-1.47836472173198e-11,-1.71413708628651e-11,5.5044166719874e-10)
(-1.30675195294815e-11,-3.79845790493007e-11,5.52624916940817e-10)
(-5.98186562393648e-12,-9.89793692468837e-11,5.57790005705151e-10)
(-3.92733360472638e-12,-2.78080672388586e-10,5.46961151420152e-10)
(-3.68056770279592e-13,-4.51148304564305e-10,4.65738317078724e-10)
(2.60912575710743e-12,-6.691040304372e-10,3.39616449214281e-10)
(3.81603468854504e-12,-9.54584426648999e-10,1.83101213211101e-10)
(0,0,0)
(0,0,0)
(0,0,0)
(0,0,0)
(0,0,0)
(0,0,0)
(-5.03742685062852e-12,-1.33167772370414e-12,8.13288726755495e-10)
(-1.07892424536688e-11,-2.57085617979081e-12,8.11837181356924e-10)
(-1.50135086931901e-11,-6.34814315723685e-12,8.09518185571593e-10)
(-1.75116393778844e-11,-1.50938980862816e-11,8.06607876958159e-10)
(-1.76254871718244e-11,-3.61601229521461e-11,8.02284116302313e-10)
(-1.3891483706554e-11,-8.75440354662111e-11,7.92193173236066e-10)
(-8.8776500998097e-12,-1.95815369702914e-10,7.58686748961993e-10)
(-3.65337901527213e-12,-3.26571802887303e-10,6.66776304758613e-10)
(3.64297874557988e-13,-5.1436121135549e-10,5.16456558235812e-10)
(2.71020352029419e-12,-7.73564101869696e-10,2.9690330118757e-10)
(0,0,0)
(0,0,0)
(0,0,0)
(0,0,0)
(0,0,0)
(0,0,0)
(-5.9234209311186e-12,-4.43851560628144e-13,1.13224311425431e-09)
(-1.13616791397253e-11,-9.49708681400218e-13,1.13081831224811e-09)
(-1.53798427427923e-11,-3.53007423954811e-12,1.12854876157821e-09)
(-1.79254674082879e-11,-9.10317469676193e-12,1.12408950625473e-09)
(-1.83772658760421e-11,-2.20527711194059e-11,1.11521878666124e-09)
(-1.57171241844571e-11,-5.04555089428752e-11,1.09508502133245e-09)