/*--------------------------------*- C++ -*----------------------------------*\
| =========                 |                                                 |
| \\      /  F ield         | foam-extend: Open Source CFD                    |
|  \\    /   O peration     | Version:     4.0                                |
|   \\  /    A nd           | Web:         http://www.foam-extend.org         |
|    \\/     M anipulation  |                                                 |
\*---------------------------------------------------------------------------*/
FoamFile
{
    version 2.0;
    format ascii;
    class volVectorField;
    location "1796";
    object      E;
}
// * * * * * * * * * * * * * * * * * * * * * * * * * * * * * * * * * * * * * //

dimensions      [0 1 -1 0 0 0 0];

internalField   nonuniform List<vector>
4096
(
(0,0,0)
(0,0,0)
(0,0,0)
(0,0,0)
(0,0,0)
(0,0,0)
(0,0,0)
(0,0,0)
(0,0,0)
(0,0,0)
(0,0,0)
(0,0,0)
(0,0,0)
(0,0,0)
(0,0,0)
(0,0,0)
(0,0,0)
(0,0,0)
(0,0,0)
(0,0,0)
(0,0,0)
(0,0,0)
(0,0,0)
(0,0,0)
(0,0,0)
(0,0,0)
(0,0,0)
(0,0,0)
(0,0,0)
(0,0,0)
(0,0,0)
(0,0,0)
(0,0,0)
(0,0,0)
(0,0,0)
(0,0,0)
(0,0,0)
(0,0,0)
(0,0,0)
(0,0,0)
(0,0,0)
(0,0,0)
(0,0,0)
(0,0,0)
(0,0,0)
(0,0,0)
(0,0,0)
(0,0,0)
(0,0,0)
(0,0,0)
(0,0,0)
(0,0,0)
(0,0,0)
(0,0,0)
(0,0,0)
(0,0,0)
(0,0,0)
(0,0,0)
(0,0,0)
(0,0,0)
(0,0,0)
(0,0,0)
(0,0,0)
(0,0,0)
(0,0,0)
(0,0,0)
(0,0,0)
(0,0,0)
(0,0,0)
(0,0,0)
(0,0,0)
(0,0,0)
(0,0,0)
(0,0,0)
(0,0,0)
(0,0,0)
(0,0,0)
(0,0,0)
(0,0,0)
(0,0,0)
(0,0,0)
(0,0,0)
(0,0,0)
(0,0,0)
(0,0,0)
(0,0,0)
(0,0,0)
(0,0,0)
(0,0,0)
(0,0,0)
(0,0,0)
(0,0,0)
(0,0,0)
(0,0,0)
(0,0,0)
(0,0,0)
(0,0,0)
(0,0,0)
(0,0,0)
(0,0,0)
(0,0,0)
(0,0,0)
(0,0,0)
(0,0,0)
(0,0,0)
(0,0,0)
(0,0,0)
(0,0,0)
(0,0,0)
(0,0,0)
(0,0,0)
(0,0,0)
(0,0,0)
(0,0,0)
(0,0,0)
(0,0,0)
(0,0,0)
(0,0,0)
(0,0,0)
(0,0,0)
(0,0,0)
(0,0,0)
(0,0,0)
(0,0,0)
(0,0,0)
(0,0,0)
(0,0,0)
(0,0,0)
(0,0,0)
(0,0,0)
(0,0,0)
(0,0,0)
(0,0,0)
(0,0,0)
(0,0,0)
(0,0,0)
(0,0,0)
(0,0,0)
(0,0,0)
(0,0,0)
(0,0,0)
(0,0,0)
(0,0,0)
(0,0,0)
(0,0,0)
(0,0,0)
(0,0,0)
(0,0,0)
(0,0,0)
(0,0,0)
(0,0,0)
(0,0,0)
(0,0,0)
(0,0,0)
(0,0,0)
(0,0,0)
(0,0,0)
(0,0,0)
(0,0,0)
(0,0,0)
(0,0,0)
(0,0,0)
(0,0,0)
(0,0,0)
(0,0,0)
(0,0,0)
(0,0,0)
(0,0,0)
(0,0,0)
(0,0,0)
(0,0,0)
(0,0,0)
(0,0,0)
(0,0,0)
(0,0,0)
(0,0,0)
(0,0,0)
(0,0,0)
(0,0,0)
(0,0,0)
(0,0,0)
(0,0,0)
(0,0,0)
(0,0,0)
(0,0,0)
(0,0,0)
(0,0,0)
(0,0,0)
(0,0,0)
(0,0,0)
(0,0,0)
(0,0,0)
(0,0,0)
(0,0,0)
(0,0,0)
(0,0,0)
(0,0,0)
(0,0,0)
(0,0,0)
(0,0,0)
(0,0,0)
(0,0,0)
(0,0,0)
(0,0,0)
(0,0,0)
(0,0,0)
(0,0,0)
(0,0,0)
(0,0,0)
(0,0,0)
(0,0,0)
(0,0,0)
(0,0,0)
(0,0,0)
(0,0,0)
(0,0,0)
(0,0,0)
(0,0,0)
(0,0,0)
(0,0,0)
(0,0,0)
(0,0,0)
(0,0,0)
(0,0,0)
(0,0,0)
(0,0,0)
(0,0,0)
(0,0,0)
(0,0,0)
(0,0,0)
(0,0,0)
(0,0,0)
(0,0,0)
(0,0,0)
(0,0,0)
(0,0,0)
(0,0,0)
(0,0,0)
(0,0,0)
(0,0,0)
(0,0,0)
(0,0,0)
(0,0,0)
(0,0,0)
(0,0,0)
(0,0,0)
(0,0,0)
(0,0,0)
(0,0,0)
(0,0,0)
(0,0,0)
(0,0,0)
(0,0,0)
(0,0,0)
(0,0,0)
(0,0,0)
(0,0,0)
(0,0,0)
(0,0,0)
(0,0,0)
(0,0,0)
(0,0,0)
(0,0,0)
(0,0,0)
(0,0,0)
(0,0,0)
(0,0,0)
(0,0,0)
(0,0,0)
(0,0,0)
(0,0,0)
(0,0,0)
(0,0,0)
(0,0,0)
(0,0,0)
(0,0,0)
(0,0,0)
(0,0,0)
(0,0,0)
(0,0,0)
(0,0,0)
(0,0,0)
(0,0,0)
(0,0,0)
(0,0,0)
(0,0,0)
(0,0,0)
(0,0,0)
(0,0,0)
(0,0,0)
(0,0,0)
(0,0,0)
(0,0,0)
(0,0,0)
(0,0,0)
(0,0,0)
(0,0,0)
(0,0,0)
(0,0,0)
(0,0,0)
(0,0,0)
(0,0,0)
(0,0,0)
(0,0,0)
(0,0,0)
(0,0,0)
(0,0,0)
(0,0,0)
(0,0,0)
(0,0,0)
(0,0,0)
(0,0,0)
(0,0,0)
(0,0,0)
(0,0,0)
(0,0,0)
(0,0,0)
(0,0,0)
(0,0,0)
(0,0,0)
(0,0,0)
(0,0,0)
(0,0,0)
(0,0,0)
(0,0,0)
(0,0,0)
(0,0,0)
(0,0,0)
(0,0,0)
(0,0,0)
(0,0,0)
(0,0,0)
(0,0,0)
(0,0,0)
(0,0,0)
(0,0,0)
(0,0,0)
(0,0,0)
(0,0,0)
(0,0,0)
(0,0,0)
(0,0,0)
(0,0,0)
(0,0,0)
(0,0,0)
(0,0,0)
(0,0,0)
(0,0,0)
(0,0,0)
(0,0,0)
(0,0,0)
(0,0,0)
(0,0,0)
(0,0,0)
(0,0,0)
(0,0,0)
(0,0,0)
(0,0,0)
(0,0,0)
(0,0,0)
(0,0,0)
(0,0,0)
(0,0,0)
(0,0,0)
(0,0,0)
(0,0,0)
(0,0,0)
(0,0,0)
(0,0,0)
(0,0,0)
(0,0,0)
(0,0,0)
(0,0,0)
(0,0,0)
(0,0,0)
(0,0,0)
(0,0,0)
(0,0,0)
(0,0,0)
(0,0,0)
(0,0,0)
(0,0,0)
(0,0,0)
(0,0,0)
(0,0,0)
(0,0,0)
(0,0,0)
(0,0,0)
(0,0,0)
(0,0,0)
(0,0,0)
(0,0,0)
(0,0,0)
(0,0,0)
(0,0,0)
(0,0,0)
(0,0,0)
(0,0,0)
(0,0,0)
(0,0,0)
(0,0,0)
(0,0,0)
(0,0,0)
(0,0,0)
(0,0,0)
(0,0,0)
(0,0,0)
(0,0,0)
(0,0,0)
(0,0,0)
(0,0,0)
(0,0,0)
(0,0,0)
(0,0,0)
(0,0,0)
(0,0,0)
(0,0,0)
(0,0,0)
(0,0,0)
(0,0,0)
(0,0,0)
(0,0,0)
(0,0,0)
(0,0,0)
(0,0,0)
(0,0,0)
(0,0,0)
(0,0,0)
(0,0,0)
(0,0,0)
(0,0,0)
(0,0,0)
(0,0,0)
(0,0,0)
(0,0,0)
(0,0,0)
(0,0,0)
(0,0,0)
(0,0,0)
(0,0,0)
(0,0,0)
(0,0,0)
(0,0,0)
(0,0,0)
(0,0,0)
(0,0,0)
(0,0,0)
(0,0,0)
(0,0,0)
(0,0,0)
(0,0,0)
(0,0,0)
(0,0,0)
(0,0,0)
(0,0,0)
(0,0,0)
(0,0,0)
(0,0,0)
(0,0,0)
(0,0,0)
(0,0,0)
(0,0,0)
(0,0,0)
(0,0,0)
(0,0,0)
(0,0,0)
(0,0,0)
(0,0,0)
(0,0,0)
(0,0,0)
(0,0,0)
(0,0,0)
(0,0,0)
(0,0,0)
(0,0,0)
(0,0,0)
(0,0,0)
(0,0,0)
(0,0,0)
(0,0,0)
(0,0,0)
(0,0,0)
(0,0,0)
(0,0,0)
(0,0,0)
(0,0,0)
(0,0,0)
(0,0,0)
(0,0,0)
(0,0,0)
(0,0,0)
(0,0,0)
(0,0,0)
(0,0,0)
(0,0,0)
(0,0,0)
(0,0,0)
(0,0,0)
(0,0,0)
(0,0,0)
(0,0,0)
(0,0,0)
(0,0,0)
(0,0,0)
(0,0,0)
(0,0,0)
(0,0,0)
(0,0,0)
(0,0,0)
(0,0,0)
(0,0,0)
(0,0,0)
(0,0,0)
(0,0,0)
(0,0,0)
(0,0,0)
(0,0,0)
(0,0,0)
(0,0,0)
(0,0,0)
(0,0,0)
(0,0,0)
(0,0,0)
(0,0,0)
(0,0,0)
(0,0,0)
(0,0,0)
(0,0,0)
(0,0,0)
(0,0,0)
(0,0,0)
(0,0,0)
(0,0,0)
(0,0,0)
(0,0,0)
(0,0,0)
(0,0,0)
(0,0,0)
(0,0,0)
(0,0,0)
(0,0,0)
(0,0,0)
(0,0,0)
(0,0,0)
(0,0,0)
(0,0,0)
(0,0,0)
(0,0,0)
(0,0,0)
(0,0,0)
(0,0,0)
(0,0,0)
(0,0,0)
(0,0,0)
(0,0,0)
(0,0,0)
(0,0,0)
(0,0,0)
(0,0,0)
(0,0,0)
(0,0,0)
(0,0,0)
(0,0,0)
(0,0,0)
(0,0,0)
(0,0,0)
(0,0,0)
(0,0,0)
(0,0,0)
(0,0,0)
(0,0,0)
(0,0,0)
(0,0,0)
(0,0,0)
(0,0,0)
(0,0,0)
(0,0,0)
(0,0,0)
(0,0,0)
(0,0,0)
(0,0,0)
(0,0,0)
(0,0,0)
(0,0,0)
(0,0,0)
(0,0,0)
(0,0,0)
(0,0,0)
(0,0,0)
(0,0,0)
(0,0,0)
(0,0,0)
(0,0,0)
(0,0,0)
(0,0,0)
(0,0,0)
(0,0,0)
(0,0,0)
(0,0,0)
(0,0,0)
(0,0,0)
(0,0,0)
(0,0,0)
(0,0,0)
(0,0,0)
(0,0,0)
(0,0,0)
(0,0,0)
(0,0,0)
(0,0,0)
(0,0,0)
(0,0,0)
(0,0,0)
(0,0,0)
(0,0,0)
(0,0,0)
(0,0,0)
(0,0,0)
(0,0,0)
(0,0,0)
(0,0,0)
(0,0,0)
(0,0,0)
(0,0,0)
(0,0,0)
(0,0,0)
(0,0,0)
(0,0,0)
(0,0,0)
(0,0,0)
(0,0,0)
(0,0,0)
(0,0,0)
(0,0,0)
(0,0,0)
(0,0,0)
(0,0,0)
(0,0,0)
(0,0,0)
(0,0,0)
(0,0,0)
(0,0,0)
(0,0,0)
(0,0,0)
(0,0,0)
(0,0,0)
(0,0,0)
(0,0,0)
(0,0,0)
(0,0,0)
(0,0,0)
(0,0,0)
(0,0,0)
(0,0,0)
(0,0,0)
(0,0,0)
(0,0,0)
(0,0,0)
(0,0,0)
(0,0,0)
(0,0,0)
(0,0,0)
(0,0,0)
(0,0,0)
(0,0,0)
(0,0,0)
(0,0,0)
(0,0,0)
(0,0,0)
(0,0,0)
(0,0,0)
(0,0,0)
(0,0,0)
(0,0,0)
(0,0,0)
(0,0,0)
(0,0,0)
(0,0,0)
(0,0,0)
(0,0,0)
(0,0,0)
(0,0,0)
(0,0,0)
(0,0,0)
(0,0,0)
(0,0,0)
(0,0,0)
(0,0,0)
(0,0,0)
(0,0,0)
(0,0,0)
(0,0,0)
(0,0,0)
(0,0,0)
(0,0,0)
(0,0,0)
(0,0,0)
(0,0,0)
(0,0,0)
(0,0,0)
(0,0,0)
(0,0,0)
(0,0,0)
(0,0,0)
(0,0,0)
(0,0,0)
(0,0,0)
(0,0,0)
(0,0,0)
(0,0,0)
(0,0,0)
(0,0,0)
(0,0,0)
(0,0,0)
(0,0,0)
(0,0,0)
(0,0,0)
(0,0,0)
(0,0,0)
(0,0,0)
(0,0,0)
(0,0,0)
(0,0,0)
(0,0,0)
(0,0,0)
(0,0,0)
(0,0,0)
(0,0,0)
(0,0,0)
(0,0,0)
(0,0,0)
(0,0,0)
(0,0,0)
(0,0,0)
(0,0,0)
(0,0,0)
(0,0,0)
(0,0,0)
(0,0,0)
(0,0,0)
(0,0,0)
(0,0,0)
(0,0,0)
(0,0,0)
(0,0,0)
(0,0,0)
(0,0,0)
(0,0,0)
(0,0,0)
(0,0,0)
(0,0,0)
(0,0,0)
(0,0,0)
(0,0,0)
(0,0,0)
(0,0,0)
(0,0,0)
(0,0,0)
(0,0,0)
(0,0,0)
(0,0,0)
(0,0,0)
(0,0,0)
(0,0,0)
(0,0,0)
(0,0,0)
(0,0,0)
(0,0,0)
(0,0,0)
(0,0,0)
(0,0,0)
(0,0,0)
(0,0,0)
(0,0,0)
(0,0,0)
(0,0,0)
(0,0,0)
(0,0,0)
(0,0,0)
(0,0,0)
(0,0,0)
(0,0,0)
(0,0,0)
(0,0,0)
(0,0,0)
(0,0,0)
(0,0,0)
(0,0,0)
(0,0,0)
(0,0,0)
(0,0,0)
(0,0,0)
(0,0,0)
(0,0,0)
(0,0,0)
(0,0,0)
(0,0,0)
(0,0,0)
(0,0,0)
(0,0,0)
(0,0,0)
(0,0,0)
(0,0,0)
(0,0,0)
(0,0,0)
(0,0,0)
(0,0,0)
(0,0,0)
(0,0,0)
(0,0,0)
(0,0,0)
(0,0,0)
(0,0,0)
(0,0,0)
(0,0,0)
(0,0,0)
(0,0,0)
(0,0,0)
(0,0,0)
(-124420.237130426,66228.6611643459,58191.5759660783)
(-131566.446811864,63454.4870512871,126303.535726655)
(-148073.613983856,57751.7677910809,216625.381919431)
(-179382.622989498,48845.2072795851,347162.79762935)
(-235870.123655137,36844.2523998841,546188.66888461)
(-337247.525750719,23045.9892538642,860390.205381458)
(-520834.424047218,10461.8860628478,1370762.74336585)
(-852642.637288998,2701.25830159121,2220704.1223533)
(-1406312.56604652,114.163411732828,3626902.52498805)
(-1959512.81643192,-160.151949169363,5586575.49336918)
(0,0,0)
(0,0,0)
(0,0,0)
(0,0,0)
(0,0,0)
(0,0,0)
(-131575.091487101,142333.341678655,55470.4109727902)
(-138820.873621425,137113.139147013,120632.632498494)
(-155615.364001878,126270.034116911,207729.730174538)
(-187636.504617151,109043.85650361,335167.585567671)
(-245673.3202308,85301.2223834184,532383.935814925)
(-349487.245267007,57067.5040900223,847849.666245773)
(-535095.338248733,30303.8815396007,1363103.00901775)
(-865634.486817537,13264.4908232021,2218174.2633136)
(-1414993.45591762,6544.86029806864,3626737.02234493)
(-1963566.4363069,3317.06232901987,5586826.24437359)
(0,0,0)
(0,0,0)
(0,0,0)
(0,0,0)
(0,0,0)
(0,0,0)
(-147972.768496111,239932.130939763,50373.9792350031)
(-155352.678636839,232932.870970873,109906.926047986)
(-172693.509295848,218255.17944868,190615.29001207)
(-206288.814410079,194480.949275979,311467.011649783)
(-268031.010055691,160637.839643146,504161.404445733)
(-378277.21392484,118336.781536166,821169.340924429)
(-570247.559020325,75454.117908119,1346266.66357625)
(-897985.959439347,45906.7430237367,2211610.37081504)
(-1435838.42071071,30295.4572220643,3623698.19460179)
(-1973005.68470073,16391.0510796203,5583629.89055198)
(0,0,0)
(0,0,0)
(0,0,0)
(0,0,0)
(0,0,0)
(0,0,0)
(-178533.844746506,374960.37308247,43505.6026038001)
(-186032.442008411,367155.71176591,95315.2038171753)
(-204053.526385958,350714.873499104,166909.036152703)
(-239956.694397945,323719.137840012,277627.541986607)
(-307817.184678418,284212.838473552,461869.727834626)
(-430414.228560608,232261.154965228,778359.582966174)
(-637597.096079863,174515.784182705,1316895.01277145)
(-960607.063025334,127285.132738908,2196123.68608154)
(-1474025.83937202,90475.5031706877,3609969.4795049)
(-1989660.75190952,48662.0917333956,5567359.19076078)
(0,0,0)
(0,0,0)
(0,0,0)
(0,0,0)
(0,0,0)
(0,0,0)
(-233235.729958787,572380.709026296,35815.3940149577)
(-240701.969108245,564805.919323544,78867.1555655657)
(-259097.252499804,548813.577188427,139865.704376048)
(-296970.564571437,522507.4159266,238047.990860896)
(-371155.9585936,483546.371458025,409870.416470026)
(-509065.93829979,430547.828403674,720649.681331346)
(-740212.424855373,365568.56816105,1269809.32220837)
(-1055996.43084346,293641.76421936,2159449.12157139)
(-1529529.75567294,211080.677406824,3568373.70300828)
(-2013732.38076218,111860.475656754,5518907.69984708)
(0,0,0)
(0,0,0)
(0,0,0)
(0,0,0)
(0,0,0)
(0,0,0)
(-332040.386326008,876111.904694827,28309.1906574804)
(-339143.656543716,869382.882772233,62875.8837525026)
(-356951.639275811,855144.531504923,113496.568711816)
(-394481.280161422,831487.461224677,198997.80357516)
(-469468.10610957,795205.916136037,356806.365006722)
(-610032.777497475,741728.345549359,655658.625358531)
(-841916.165352335,665118.348618193,1198025.01025374)
(-1143377.0683516,557916.630207384,2077127.21261731)
(-1589739.64233386,408517.644341805,3469429.88801627)
(-2044055.26032603,218060.488510786,5407285.1354881)
(0,0,0)
(0,0,0)
(0,0,0)
(0,0,0)
(0,0,0)
(0,0,0)
(-513571.445997544,1368015.78570666,21667.5649857077)
(-519837.238061828,1362225.65805843,48662.0277613527)
(-535822.473307965,1349843.32384348,89785.7087307712)
(-570114.861397083,1328707.01411339,162681.017239149)
(-639770.194522255,1294331.10403766,303326.023859779)
(-771856.816535258,1237820.36952794,579090.816416444)
(-989508.364688874,1142757.6004074,1090959.92931612)
(-1263662.59348142,984596.054763126,1927943.09824181)
(-1679524.65766837,736728.692887326,3279256.70736459)
(-2093598.81062918,401405.261734557,5189510.74477012)
(0,0,0)
(0,0,0)
(0,0,0)
(0,0,0)
(0,0,0)
(0,0,0)
(-845604.315456283,2197709.28077558,15910.8203873587)
(-850598.287079485,2192467.32218994,36267.4433353344)
(-863475.622078037,2180969.02378933,68617.365467526)
(-891350.801080206,2160361.57542351,128313.605237596)
(-948590.353655887,2124361.43712303,246873.625808106)
(-1058394.6503576,2058961.86255671,484126.783136935)
(-1240680.29168313,1934650.73830971,932913.936917747)
(-1462641.91644849,1699905.16395343,1680246.74417595)
(-1842450.64479227,1315186.79233052,2944239.28952502)
(-2188279.05886961,745470.450356708,4788453.15977241)
(0,0,0)
(0,0,0)
(0,0,0)
(0,0,0)
(0,0,0)
(0,0,0)
(-1401556.88713642,3588596.32374459,10669.8441673868)
(-1404958.91160606,3583353.12642037,24742.9515430398)
(-1413711.10886385,3571386.72825618,48036.355940005)
(-1432450.09394149,3548523.9301997,92324.0951052954)
(-1470262.61910436,3505475.15995603,181472.991376647)
(-1541329.90390694,3421909.97811546,359854.779724841)
(-1660670.03918383,3256984.43185225,698191.125366139)
(-1837953.62068988,2940477.87978175,1295572.03022771)
(-2142917.14584315,2378966.99402079,2374708.97438051)
(-2353379.24935745,1430363.21985165,4043195.45424304)
(0,0,0)
(0,0,0)
(0,0,0)
(0,0,0)
(0,0,0)
(0,0,0)
(-1957335.60888198,5540499.67344251,5432.25918408609)
(-1959044.99756312,5535059.54456162,12770.8386059558)
(-1963392.32133411,5522317.03875804,25232.8494382268)
(-1972592.3379957,5497063.29733129,49285.8203023892)
(-1990909.62014622,5447787.83534775,97882.7650569273)
(-2025146.58179109,5349985.89781072,194953.427152762)
(-2084874.41301719,5155118.00410629,381694.267915897)
(-2185496.94054131,4773571.43701504,734097.651223873)
(-2352852.27688564,4039613.28665629,1426303.63547397)
(-2369575.41348352,2613234.52383128,2613007.74497788)
(0,0,0)
(0,0,0)
(0,0,0)
(0,0,0)
(0,0,0)
(0,0,0)
(0,0,0)
(0,0,0)
(0,0,0)
(0,0,0)
(0,0,0)
(0,0,0)
(0,0,0)
(0,0,0)
(0,0,0)
(0,0,0)
(0,0,0)
(0,0,0)
(0,0,0)
(0,0,0)
(0,0,0)
(0,0,0)
(0,0,0)
(0,0,0)
(0,0,0)
(0,0,0)
(0,0,0)
(0,0,0)
(0,0,0)
(0,0,0)
(0,0,0)
(0,0,0)
(0,0,0)
(0,0,0)
(0,0,0)
(0,0,0)
(0,0,0)
(0,0,0)
(0,0,0)
(0,0,0)
(0,0,0)
(0,0,0)
(0,0,0)
(0,0,0)
(0,0,0)
(0,0,0)
(0,0,0)
(0,0,0)
(0,0,0)
(0,0,0)
(0,0,0)
(0,0,0)
(0,0,0)
(0,0,0)
(0,0,0)
(0,0,0)
(0,0,0)
(0,0,0)
(0,0,0)
(0,0,0)
(0,0,0)
(0,0,0)
(0,0,0)
(0,0,0)
(0,0,0)
(0,0,0)
(0,0,0)
(0,0,0)
(0,0,0)
(0,0,0)
(0,0,0)
(0,0,0)
(0,0,0)
(0,0,0)
(0,0,0)
(0,0,0)
(0,0,0)
(0,0,0)
(0,0,0)
(0,0,0)
(0,0,0)
(0,0,0)
(0,0,0)
(0,0,0)
(0,0,0)
(0,0,0)
(0,0,0)
(0,0,0)
(0,0,0)
(0,0,0)
(0,0,0)
(0,0,0)
(0,0,0)
(0,0,0)
(0,0,0)
(0,0,0)
(0,0,0)
(0,0,0)
(0,0,0)
(0,0,0)
(0,0,0)
(0,0,0)
(18377861.5893079,59047.9940558248,51005.2363754184)
(18365921.7403285,56220.4306512976,109631.675453467)
(18338453.3776898,50276.5238950345,185163.216754359)
(18286945.2166174,40632.4877035584,290537.94631349)
(18195258.9117762,27073.448717841,444670.519033881)
(18032224.0143975,10837.1635600467,676696.872195101)
(17733096.807564,-3764.60986566527,1038865.30731906)
(17141897.9923054,-10258.7719087886,1666918.50650312)
(15807822.6418748,-8532.07955524593,3073650.43500675)
(12184550.0878971,-4188.41842190017,7546111.00596922)
(0,0,0)
(0,0,0)
(0,0,0)
(0,0,0)
(0,0,0)
(0,0,0)
(18365648.0734475,125925.58252134,48234.3034695657)
(18353650.2883484,120596.444982041,103722.184038657)
(18325922.5910594,109250.021518252,175545.78822373)
(18273472.311254,90426.1719264292,276978.344999282)
(18179294.8189461,62982.7549180435,428435.956491791)
(18011685.2345974,28299.1193577591,662136.577699393)
(17707995.8146916,-4853.70203933719,1032469.57380245)
(17119274.2150729,-19090.9076068218,1668728.06447969)
(15793747.2900947,-14303.489330662,3078093.78511217)
(12178391.6694416,-6115.7726512508,7550398.0904626)
(0,0,0)
(0,0,0)
(0,0,0)
(0,0,0)
(0,0,0)
(0,0,0)
(18337924.9425644,209357.955668771,43004.9726616513)
(18325860.7345833,202261.132870297,92461.9284228662)
(18297579.4692453,186934.855437463,156839.172832162)
(18242881.0312625,160838.829441631,249591.72651405)
(18142189.1662746,120878.291395643,393811.070575751)
(17960863.161241,66208.4745034336,629096.39713382)
(17639827.3484287,8079.66559558999,1018423.17891951)
(17056715.9820364,-16728.9668929372,1673694.35359965)
(15757352.7019936,-7923.32412370825,3086458.12255795)
(12163301.1946167,-278.269890701576,7556648.7973496)
(0,0,0)
(0,0,0)
(0,0,0)
(0,0,0)
(0,0,0)
(0,0,0)
(18286999.3671644,320152.68209004,36007.1185374324)
(18274961.7610555,312400.039401824,77209.0658116361)
(18245998.8878308,295600.885623516,130825.6782784)
(18187738.4136325,266658.440946837,209646.015612407)
(18075012.5393302,220848.732801606,339180.907067544)
(17862636.3786736,153598.789564939,571075.041641567)
(17488238.0249614,71872.6062168182,993782.036848735)
(16914244.250203,31873.0298012779,1682663.78379575)
(15683825.4611931,34923.7978439845,3094300.41813242)
(12135078.6018737,24559.7504623775,7557058.10086582)
(0,0,0)
(0,0,0)
(0,0,0)
(0,0,0)
(0,0,0)
(0,0,0)
(18197416.654694,473466.58808131,28368.766225548)
(18185662.8461477,466280.265217384,60458.7820236482)
(18156524.3020216,450879.892049657,101893.277945802)
(18095176.1789515,424953.320129058,163786.712110207)
(17968685.4905514,385226.433133828,271902.619502676)
(17709736.8873368,329621.416792211,489412.223508428)
(17215597.1128631,263904.47186863,953905.877007734)
(16649955.0156581,206310.550085384,1685851.96709178)
(15568534.2422593,150883.539270645,3084163.28460232)
(12093084.1051988,81536.8802496075,7532704.7257237)
(0,0,0)
(0,0,0)
(0,0,0)
(0,0,0)
(0,0,0)
(0,0,0)
(18037948.8869366,694568.005849689,21244.3658386286)
(18026968.4705871,688662.30828369,45085.2525112002)
(17999183.6406233,676239.897792245,75925.0237390846)
(17938922.0221572,655826.443088316,123983.655330936)
(17810959.9329061,624881.424389358,216235.681929385)
(17544545.3835259,579908.35480801,423705.63975984)
(17044075.4864816,517536.583448871,896416.933215338)
(16503397.5850369,437671.131572224,1630616.75520951)
(15470238.5643525,318784.173711188,3015072.97095224)
(12044887.9300176,168568.243645165,7451433.47408261)
(0,0,0)
(0,0,0)
(0,0,0)
(0,0,0)
(0,0,0)
(0,0,0)
(17741895.0246272,1036027.97986888,15408.6122256974)
(17732368.213122,1031503.72607595,32696.8001192691)
(17707751.4135464,1022209.16040985,55488.7075170464)
(17653049.5263689,1007452.61879907,93033.2009098906)
(17533751.1957934,985475.09859341,171253.193259864)
(17278960.4496801,951264.389126377,361414.949595713)
(16793482.4464232,891565.769218009,816730.009584079)
(16305497.7597578,785598.382747507,1511977.46203922)
(15324622.3311943,573798.943523914,2865150.76023329)
(11962562.3747566,306737.032131684,7283155.84323074)
(0,0,0)
(0,0,0)
(0,0,0)
(0,0,0)
(0,0,0)
(0,0,0)
(17150072.208585,1641791.43669522,10895.0760020029)
(17142588.4748749,1638150.41677937,23396.6802138872)
(17122985.3721573,1630753.10661037,40726.7966476233)
(17078814.2798269,1619265.05491417,71084.3364950758)
(16980535.9421708,1602691.67465964,137076.521471624)
(16764393.4414105,1576060.60156349,301827.274136188)
(16339417.5792034,1514706.7819043,710923.447432957)
(16021206.9925165,1324608.72053883,1300399.25754618)
(15030970.5041984,1014727.60306323,2598384.50588575)
(11772089.7337869,580377.082421341,6976710.71980922)
(0,0,0)
(0,0,0)
(0,0,0)
(0,0,0)
(0,0,0)
(0,0,0)
(15812458.0820608,3032874.15739858,7237.36696906315)
(15807444.3459192,3029351.05637881,15968.5267140895)
(15794350.901449,3021746.55301467,29248.1268665674)
(15765470.8122873,3008427.13227735,54500.2001442016)
(15703964.1261477,2984899.03783349,110401.148587895)
(15578785.6570077,2938184.94488769,240496.301218685)
(15353142.2419193,2832867.50635995,520858.35252963)
(15036259.9703906,2592994.6545491,990593.884308559)
(14141456.4191463,2169055.48219905,2164227.49705293)
(11192830.4598137,1414173.73866574,6396556.18850688)
(0,0,0)
(0,0,0)
(0,0,0)
(0,0,0)
(0,0,0)
(0,0,0)
(12186204.5575804,7497954.11744513,3714.93036058357)
(12183719.0675449,7494238.52560549,8398.45289545906)
(12177291.6004903,7485803.82486719,15992.3160881651)
(12163419.3697875,7469775.33935411,30967.4580978931)
(12134823.0849738,7438827.37208529,63641.4755957953)
(12078568.2881282,7375241.87487231,135204.732561582)
(11974416.1417243,7240088.59894069,281028.142108973)
(11774997.5188428,6959131.56074681,566731.833396803)
(11193255.2725447,6392457.69785127,1409557.1251839)
(9101118.18014558,4982788.20244022,4982584.12464981)
(0,0,0)
(0,0,0)
(0,0,0)
(0,0,0)
(0,0,0)
(0,0,0)
(0,0,0)
(0,0,0)
(0,0,0)
(0,0,0)
(0,0,0)
(0,0,0)
(0,0,0)
(0,0,0)
(0,0,0)
(0,0,0)
(0,0,0)
(0,0,0)
(0,0,0)
(0,0,0)
(0,0,0)
(0,0,0)
(0,0,0)
(0,0,0)
(0,0,0)
(0,0,0)
(0,0,0)
(0,0,0)
(0,0,0)
(0,0,0)
(0,0,0)
(0,0,0)
(0,0,0)
(0,0,0)
(0,0,0)
(0,0,0)
(0,0,0)
(0,0,0)
(0,0,0)
(0,0,0)
(0,0,0)
(0,0,0)
(0,0,0)
(0,0,0)
(0,0,0)
(0,0,0)
(0,0,0)
(0,0,0)
(0,0,0)
(0,0,0)
(0,0,0)
(0,0,0)
(0,0,0)
(0,0,0)
(0,0,0)
(0,0,0)
(0,0,0)
(0,0,0)
(0,0,0)
(0,0,0)
(0,0,0)
(0,0,0)
(0,0,0)
(0,0,0)
(0,0,0)
(0,0,0)
(0,0,0)
(0,0,0)
(0,0,0)
(0,0,0)
(0,0,0)
(0,0,0)
(0,0,0)
(0,0,0)
(0,0,0)
(0,0,0)
(0,0,0)
(0,0,0)
(0,0,0)
(0,0,0)
(0,0,0)
(0,0,0)
(0,0,0)
(0,0,0)
(0,0,0)
(0,0,0)
(0,0,0)
(0,0,0)
(0,0,0)
(0,0,0)
(0,0,0)
(0,0,0)
(0,0,0)
(0,0,0)
(0,0,0)
(0,0,0)
(0,0,0)
(0,0,0)
(0,0,0)
(0,0,0)
(0,0,0)
(0,0,0)
(-320294.795379684,46838.963600496,38982.3642175207)
(-333484.197424248,44020.5995179034,82032.6455826514)
(-363303.61474644,37818.0508124111,133636.530336899)
(-417717.770064669,27179.5854991676,198784.874650212)
(-510865.72901655,11107.3929972808,281467.065576118)
(-666274.761897457,-9724.10423333985,377354.889234918)
(-920414.357974036,-28909.2112152498,447440.209118659)
(-1322685.6141543,-32925.964030468,332614.722739161)
(-1899549.35483505,-22613.6907425876,-549734.646678131)
(-2328644.98357775,-10336.5001289531,-4638538.13194377)
(0,0,0)
(0,0,0)
(0,0,0)
(0,0,0)
(0,0,0)
(0,0,0)
(-334279.238156154,98236.0709522446,36195.1473822237)
(-347255.852224472,92899.0565510712,75887.7740522661)
(-376774.935959594,80998.7261417659,123069.568872334)
(-431220.42147483,59865.0764133489,182741.753817406)
(-525765.74550828,25892.3782053955,260682.276194068)
(-685387.809933766,-22554.4718895766,358250.631511752)
(-945436.15631344,-73094.7038939395,443533.038325781)
(-1343784.05828067,-81685.3829734988,343015.673752725)
(-1910115.09345681,-50678.3455980172,-537392.344709749)
(-2332374.03689541,-21180.2007043993,-4628117.99466687)
(0,0,0)
(0,0,0)
(0,0,0)
(0,0,0)
(0,0,0)
(0,0,0)
(-365479.704487037,158388.615664942,30917.0454691466)
(-378055.88674004,151334.050986513,64063.6154874328)
(-407053.560924443,135303.621152772,102056.693776508)
(-461990.557546123,105618.43703627,148839.865092546)
(-561406.759772987,53649.7754981244,212343.336977807)
(-737446.105309724,-32084.0960095112,307847.170778877)
(-1029266.2472172,-143595.141884996,435106.147546199)
(-1417126.3630802,-159256.465008525,374184.517828035)
(-1942273.70843929,-81476.3897918877,-507726.084414743)
(-2342668.35492449,-28505.0964336523,-4606766.69601391)
(0,0,0)
(0,0,0)
(0,0,0)
(0,0,0)
(0,0,0)
(0,0,0)
(-421244.534830169,230358.575541814,23938.88524809)
(-433141.033457803,222918.702598339,48121.9712799259)
(-461313.589905407,205958.180504155,72444.8327951767)
(-517368.119173521,173965.850419292,96868.8953485125)
(-627893.969137083,114423.026809965,126667.095634243)
(-852190.257563118,614.999511505838,196459.579480221)
(-1289991.96435394,-200843.771653076,419603.141693988)
(-1657404.98607161,-232483.093158402,452143.94924894)
(-2022881.21110638,-80435.7778015963,-454525.047311399)
(-2364763.1638127,-17465.3548534124,-4578058.0800749)
(0,0,0)
(0,0,0)
(0,0,0)
(0,0,0)
(0,0,0)
(0,0,0)
(-514888.40223803,313735.257364952,16593.3182392794)
(-525788.277904284,307381.181171978,31246.9068480153)
(-552437.407388922,293366.189106438,40465.5507865494)
(-608548.564569918,268573.060855902,37248.0270017948)
(-732193.625918421,227399.720264832,12815.393147064)
(-1048639.44032673,164392.614455072,-4920.95100258163)
(-2083000.12020293,92388.250604048,388109.20293671)
(-2470866.90603,59770.5451112443,604342.429485492)
(-2181122.37462776,52589.1531321881,-391360.941430717)
(-2401022.2253602,33349.2258622011,-4560404.24845681)
(0,0,0)
(0,0,0)
(0,0,0)
(0,0,0)
(0,0,0)
(0,0,0)
(-669339.143475535,398410.468913725,10277.7619937507)
(-678915.3063772,393938.236382287,17269.4268780553)
(-702824.57023026,384686.478209232,15622.2917592372)
(-755041.130665966,369841.14849668,-4017.6999281042)
(-875275.993692226,347554.597141914,-50271.7070765052)
(-1191020.61474461,314246.383417626,-76894.534638175)
(-2175288.87191668,266924.327727306,355598.689767161)
(-2530661.34992528,239766.914216969,597326.198754048)
(-2255001.83619543,173188.872435934,-410368.176871441)
(-2437332.51431723,86303.8139722753,-4593437.37751618)
(0,0,0)
(0,0,0)
(0,0,0)
(0,0,0)
(0,0,0)
(0,0,0)
(-922046.956017291,444176.198880609,5841.19380796273)
(-929918.704464847,441690.506430047,8040.78447739803)
(-950030.62900274,437418.804919295,755.443446711305)
(-995546.052181518,433163.837373848,-26306.7237496208)
(-1105936.96947107,432194.763599398,-83593.7818123027)
(-1415246.67731123,436645.266445326,-124120.594718232)
(-2442197.32850016,437492.039367815,328656.411695061)
(-2770693.31807409,501286.76110049,530992.585773808)
(-2366722.95286796,280145.22819258,-496953.542790042)
(-2497334.45802333,116300.017736122,-4679387.97064373)
(0,0,0)
(0,0,0)
(0,0,0)
(0,0,0)
(0,0,0)
(0,0,0)
(-1325559.35755466,304137.167965334,3335.5401853073)
(-1331467.17182385,302987.422866348,3759.21357806088)
(-1346825.18273773,302131.825547926,-3478.30902514067)
(-1382517.30783093,305933.53001481,-27251.4708779314)
(-1473880.18055282,326149.300707215,-79124.9421316045)
(-1757732.24905588,390502.289631517,-123191.331721171)
(-2879769.23691199,528511.426139682,392641.04075276)
(-2346996.46178819,339696.065599829,310100.133688515)
(-2455830.33014079,125233.279563293,-660522.140212503)
(-2590189.38377106,1151.5463113598,-4795429.60809935)
(0,0,0)
(0,0,0)
(0,0,0)
(0,0,0)
(0,0,0)
(0,0,0)
(-1904411.84290212,-593476.634052108,2148.67011072144)
(-1908214.62371062,-594400.06765286,2860.07339002388)
(-1918049.66975188,-595286.188698295,343.601967514435)
(-1939996.18369869,-593549.550620974,-7041.37828032261)
(-1990347.89499569,-584116.898267232,-14798.2150320791)
(-2110777.59494017,-561910.998198822,14843.2678764589)
(-2373986.93547154,-545752.72439674,203901.538934006)
(-2460055.21915685,-668183.677288536,95761.4145001252)
(-2686359.58767203,-779111.012257195,-784413.343730679)
(-2728906.72333837,-677509.761035405,-4796349.91010141)
(0,0,0)
(0,0,0)
(0,0,0)
(0,0,0)
(0,0,0)
(0,0,0)
(-2332384.13977884,-4688421.51056912,1198.5170066873)
(-2334220.49262142,-4689568.56203457,1971.5146850214)
(-2338940.50251554,-4691522.98142512,2105.35354810548)
(-2349096.43960279,-4693615.98512178,2352.54056948264)
(-2370738.5984611,-4695910.94822182,7373.21708931625)
(-2416108.81777657,-4703244.89258184,31049.1605074281)
(-2499911.93759413,-4734277.09903166,81566.5575912314)
(-2593086.23333937,-4815840.40155963,-15028.0228252108)
(-2729767.3102248,-4800853.74636864,-682597.762813933)
(-2634352.72106473,-4118387.95017672,-4118583.72933189)
(0,0,0)
(0,0,0)
(0,0,0)
(0,0,0)
(0,0,0)
(0,0,0)
(0,0,0)
(0,0,0)
(0,0,0)
(0,0,0)
(0,0,0)
(0,0,0)
(0,0,0)
(0,0,0)
(0,0,0)
(0,0,0)
(0,0,0)
(0,0,0)
(0,0,0)
(0,0,0)
(0,0,0)
(0,0,0)
(0,0,0)
(0,0,0)
(0,0,0)
(0,0,0)
(0,0,0)
(0,0,0)
(0,0,0)
(0,0,0)
(0,0,0)
(0,0,0)
(0,0,0)
(0,0,0)
(0,0,0)
(0,0,0)
(0,0,0)
(0,0,0)
(0,0,0)
(0,0,0)
(0,0,0)
(0,0,0)
(0,0,0)
(0,0,0)
(0,0,0)
(0,0,0)
(0,0,0)
(0,0,0)
(0,0,0)
(0,0,0)
(0,0,0)
(0,0,0)
(0,0,0)
(0,0,0)
(0,0,0)
(0,0,0)
(0,0,0)
(0,0,0)
(0,0,0)
(0,0,0)
(0,0,0)
(0,0,0)
(0,0,0)
(0,0,0)
(0,0,0)
(0,0,0)
(0,0,0)
(0,0,0)
(0,0,0)
(0,0,0)
(0,0,0)
(0,0,0)
(0,0,0)
(0,0,0)
(0,0,0)
(0,0,0)
(0,0,0)
(0,0,0)
(0,0,0)
(0,0,0)
(0,0,0)
(0,0,0)
(0,0,0)
(0,0,0)
(0,0,0)
(0,0,0)
(0,0,0)
(0,0,0)
(0,0,0)
(0,0,0)
(0,0,0)
(0,0,0)
(0,0,0)
(0,0,0)
(0,0,0)
(0,0,0)
(0,0,0)
(0,0,0)
(0,0,0)
(0,0,0)
(0,0,0)
(0,0,0)
(-378882.897437766,32838.1164371033,25749.9856209786)
(-390075.91420661,30268.4542662259,52073.2481371183)
(-414709.785804962,24370.1384771641,79109.2807184775)
(-457798.699295976,13667.1774183675,105523.032531413)
(-527416.680725181,-3841.35796161281,125915.34220166)
(-634484.249648693,-28886.311988861,123011.141941762)
(-788334.12753042,-54018.5666142564,44949.4781124043)
(-979155.740960365,-54117.795072085,-244462.600009454)
(-1131806.27719453,-33222.8050315414,-978982.872618404)
(-983527.415524855,-14068.5129760185,-2310031.92769526)
(0,0,0)
(0,0,0)
(0,0,0)
(0,0,0)
(0,0,0)
(0,0,0)
(-391566.239018835,66940.8633697379,23184.253930044)
(-402141.256209446,62080.0236963954,46258.0884848497)
(-425416.797623249,50729.8144218921,68540.2742037811)
(-466192.84744304,29077.9483225082,88101.9292678465)
(-532628.416215352,-9808.79273727216,100932.034750582)
(-636608.07987337,-74686.5287125175,97952.5214138488)
(-789412.095423779,-157009.334748535,44919.2286584721)
(-974406.657383486,-155071.57346455,-223504.393846249)
(-1124229.52568263,-82830.6512790594,-959782.115372906)
(-978880.787644486,-31459.1270680411,-2295884.75053186)
(0,0,0)
(0,0,0)
(0,0,0)
(0,0,0)
(0,0,0)
(0,0,0)
(-419316.037424836,102439.654102762,18337.5422047793)
(-428704.780789581,96098.0158576217,34968.4440930902)
(-449290.696792468,80927.4194505113,47007.9749324953)
(-485350.935035874,50135.5049591103,49310.7957856481)
(-545123.295055716,-12928.3563192467,36146.8946503489)
(-644809.323914853,-146911.010021936,15734.5945648826)
(-813127.73594819,-404386.810418675,46973.55896601)
(-974491.993029629,-399589.99329348,-151142.391255638)
(-1105886.03194251,-162102.207248665,-908258.511782797)
(-967561.649517741,-50584.4355200783,-2264239.9087375)
(0,0,0)
(0,0,0)
(0,0,0)
(0,0,0)
(0,0,0)
(0,0,0)
(-467224.9735593,136413.360583112,12006.7322487883)
(-474890.839281818,130018.765265635,19835.7886647948)
(-491486.176214132,114679.859674089,16255.9347499452)
(-519923.180306706,82692.4901486264,-13745.9893063872)
(-566792.521498279,10017.4348455046,-97793.2281099388)
(-659287.702030089,-195963.762463882,-241643.031201022)
(-993960.814336004,-993958.125477968,51897.1338403265)
(-1045532.88673498,-1046041.18551269,86476.2267229071)
(-1063232.46982479,-238744.70637512,-796530.015432238)
(-944737.653130809,-53745.5917818552,-2213394.36985237)
(0,0,0)
(0,0,0)
(0,0,0)
(0,0,0)
(0,0,0)
(0,0,0)
(-543068.434886007,158954.036156317,5639.35707477022)
(-548692.605526394,154022.352365321,4540.09759719447)
(-560328.265381394,142829.176657631,-15718.3613938747)
(-577103.602371068,121979.861371954,-86450.6948160503)
(-589024.187489002,84188.2282711765,-303790.926671144)
(-530734.384592942,21880.669095187,-1039540.41396401)
(8.62284099133837e-05,2.3044305998633e-05,-5.61324334321397e-05)