/*--------------------------------*- C++ -*----------------------------------*\
| =========                 |                                                 |
| \\      /  F ield         | foam-extend: Open Source CFD                    |
|  \\    /   O peration     | Version:     4.0                                |
|   \\  /    A nd           | Web:         http://www.foam-extend.org         |
|    \\/     M anipulation  |                                                 |
\*---------------------------------------------------------------------------*/
FoamFile
{
    version 2.0;
    format ascii;
    class volVectorField;
    location "2701";
    object      H;
}
// * * * * * * * * * * * * * * * * * * * * * * * * * * * * * * * * * * * * * //

dimensions      [0 1 -1 0 0 0 0];

internalField   nonuniform List<vector>
4096
(
(0,0,0)
(0,0,0)
(0,0,0)
(0,0,0)
(0,0,0)
(0,0,0)
(0,0,0)
(0,0,0)
(0,0,0)
(0,0,0)
(0,0,0)
(0,0,0)
(0,0,0)
(0,0,0)
(0,0,0)
(0,0,0)
(0,0,0)
(0,0,0)
(0,0,0)
(0,0,0)
(0,0,0)
(0,0,0)
(0,0,0)
(0,0,0)
(0,0,0)
(0,0,0)
(0,0,0)
(0,0,0)
(0,0,0)
(0,0,0)
(0,0,0)
(0,0,0)
(0,0,0)
(0,0,0)
(0,0,0)
(0,0,0)
(0,0,0)
(0,0,0)
(0,0,0)
(0,0,0)
(0,0,0)
(0,0,0)
(0,0,0)
(0,0,0)
(0,0,0)
(0,0,0)
(0,0,0)
(0,0,0)
(0,0,0)
(0,0,0)
(0,0,0)
(0,0,0)
(0,0,0)
(0,0,0)
(0,0,0)
(0,0,0)
(0,0,0)
(0,0,0)
(0,0,0)
(0,0,0)
(0,0,0)
(0,0,0)
(0,0,0)
(0,0,0)
(0,0,0)
(0,0,0)
(0,0,0)
(0,0,0)
(0,0,0)
(0,0,0)
(0,0,0)
(0,0,0)
(0,0,0)
(0,0,0)
(0,0,0)
(0,0,0)
(0,0,0)
(0,0,0)
(0,0,0)
(0,0,0)
(0,0,0)
(0,0,0)
(0,0,0)
(0,0,0)
(0,0,0)
(0,0,0)
(0,0,0)
(0,0,0)
(0,0,0)
(0,0,0)
(0,0,0)
(0,0,0)
(0,0,0)
(0,0,0)
(0,0,0)
(0,0,0)
(0,0,0)
(0,0,0)
(0,0,0)
(0,0,0)
(0,0,0)
(0,0,0)
(0,0,0)
(0,0,0)
(0,0,0)
(0,0,0)
(0,0,0)
(0,0,0)
(0,0,0)
(0,0,0)
(0,0,0)
(0,0,0)
(0,0,0)
(0,0,0)
(0,0,0)
(0,0,0)
(0,0,0)
(0,0,0)
(0,0,0)
(0,0,0)
(0,0,0)
(0,0,0)
(0,0,0)
(0,0,0)
(0,0,0)
(0,0,0)
(0,0,0)
(0,0,0)
(0,0,0)
(0,0,0)
(0,0,0)
(0,0,0)
(0,0,0)
(0,0,0)
(0,0,0)
(0,0,0)
(0,0,0)
(0,0,0)
(0,0,0)
(0,0,0)
(0,0,0)
(0,0,0)
(0,0,0)
(0,0,0)
(0,0,0)
(0,0,0)
(0,0,0)
(0,0,0)
(0,0,0)
(0,0,0)
(0,0,0)
(0,0,0)
(0,0,0)
(0,0,0)
(0,0,0)
(0,0,0)
(0,0,0)
(0,0,0)
(0,0,0)
(0,0,0)
(0,0,0)
(0,0,0)
(0,0,0)
(0,0,0)
(0,0,0)
(0,0,0)
(0,0,0)
(0,0,0)
(0,0,0)
(0,0,0)
(0,0,0)
(0,0,0)
(0,0,0)
(0,0,0)
(0,0,0)
(0,0,0)
(0,0,0)
(0,0,0)
(0,0,0)
(0,0,0)
(0,0,0)
(0,0,0)
(0,0,0)
(0,0,0)
(0,0,0)
(0,0,0)
(0,0,0)
(0,0,0)
(0,0,0)
(0,0,0)
(0,0,0)
(0,0,0)
(0,0,0)
(0,0,0)
(0,0,0)
(0,0,0)
(0,0,0)
(0,0,0)
(0,0,0)
(0,0,0)
(0,0,0)
(0,0,0)
(0,0,0)
(0,0,0)
(0,0,0)
(0,0,0)
(0,0,0)
(0,0,0)
(0,0,0)
(0,0,0)
(0,0,0)
(0,0,0)
(0,0,0)
(0,0,0)
(0,0,0)
(0,0,0)
(0,0,0)
(0,0,0)
(0,0,0)
(0,0,0)
(0,0,0)
(0,0,0)
(0,0,0)
(0,0,0)
(0,0,0)
(0,0,0)
(0,0,0)
(0,0,0)
(0,0,0)
(0,0,0)
(0,0,0)
(0,0,0)
(0,0,0)
(0,0,0)
(0,0,0)
(0,0,0)
(0,0,0)
(0,0,0)
(0,0,0)
(0,0,0)
(0,0,0)
(0,0,0)
(0,0,0)
(0,0,0)
(0,0,0)
(0,0,0)
(0,0,0)
(0,0,0)
(0,0,0)
(0,0,0)
(0,0,0)
(0,0,0)
(0,0,0)
(0,0,0)
(0,0,0)
(0,0,0)
(0,0,0)
(0,0,0)
(0,0,0)
(0,0,0)
(0,0,0)
(0,0,0)
(0,0,0)
(0,0,0)
(0,0,0)
(0,0,0)
(0,0,0)
(0,0,0)
(0,0,0)
(0,0,0)
(0,0,0)
(0,0,0)
(0,0,0)
(0,0,0)
(0,0,0)
(0,0,0)
(0,0,0)
(0,0,0)
(0,0,0)
(0,0,0)
(0,0,0)
(0,0,0)
(0,0,0)
(0,0,0)
(0,0,0)
(0,0,0)
(0,0,0)
(0,0,0)
(0,0,0)
(0,0,0)
(0,0,0)
(0,0,0)
(0,0,0)
(0,0,0)
(0,0,0)
(0,0,0)
(0,0,0)
(0,0,0)
(0,0,0)
(0,0,0)
(0,0,0)
(0,0,0)
(0,0,0)
(0,0,0)
(0,0,0)
(0,0,0)
(0,0,0)
(0,0,0)
(0,0,0)
(0,0,0)
(0,0,0)
(0,0,0)
(0,0,0)
(0,0,0)
(0,0,0)
(0,0,0)
(0,0,0)
(0,0,0)
(0,0,0)
(0,0,0)
(0,0,0)
(0,0,0)
(0,0,0)
(0,0,0)
(0,0,0)
(0,0,0)
(0,0,0)
(0,0,0)
(0,0,0)
(0,0,0)
(0,0,0)
(0,0,0)
(0,0,0)
(0,0,0)
(0,0,0)
(0,0,0)
(0,0,0)
(0,0,0)
(0,0,0)
(0,0,0)
(0,0,0)
(0,0,0)
(0,0,0)
(0,0,0)
(0,0,0)
(0,0,0)
(0,0,0)
(0,0,0)
(0,0,0)
(0,0,0)
(0,0,0)
(0,0,0)
(0,0,0)
(0,0,0)
(0,0,0)
(0,0,0)
(0,0,0)
(0,0,0)
(0,0,0)
(0,0,0)
(0,0,0)
(0,0,0)
(0,0,0)
(0,0,0)
(0,0,0)
(0,0,0)
(0,0,0)
(0,0,0)
(0,0,0)
(0,0,0)
(0,0,0)
(0,0,0)
(0,0,0)
(0,0,0)
(0,0,0)
(0,0,0)
(0,0,0)
(0,0,0)
(0,0,0)
(0,0,0)
(0,0,0)
(0,0,0)
(0,0,0)
(0,0,0)
(0,0,0)
(0,0,0)
(0,0,0)
(0,0,0)
(0,0,0)
(0,0,0)
(0,0,0)
(0,0,0)
(0,0,0)
(0,0,0)
(0,0,0)
(0,0,0)
(0,0,0)
(0,0,0)
(0,0,0)
(0,0,0)
(0,0,0)
(0,0,0)
(0,0,0)
(0,0,0)
(0,0,0)
(0,0,0)
(0,0,0)
(0,0,0)
(0,0,0)
(0,0,0)
(0,0,0)
(0,0,0)
(0,0,0)
(0,0,0)
(0,0,0)
(0,0,0)
(0,0,0)
(0,0,0)
(0,0,0)
(0,0,0)
(0,0,0)
(0,0,0)
(0,0,0)
(0,0,0)
(0,0,0)
(0,0,0)
(0,0,0)
(0,0,0)
(0,0,0)
(0,0,0)
(0,0,0)
(0,0,0)
(0,0,0)
(0,0,0)
(0,0,0)
(0,0,0)
(0,0,0)
(0,0,0)
(0,0,0)
(0,0,0)
(0,0,0)
(0,0,0)
(0,0,0)
(0,0,0)
(0,0,0)
(0,0,0)
(0,0,0)
(0,0,0)
(0,0,0)
(0,0,0)
(0,0,0)
(0,0,0)
(0,0,0)
(0,0,0)
(0,0,0)
(0,0,0)
(0,0,0)
(0,0,0)
(0,0,0)
(0,0,0)
(0,0,0)
(0,0,0)
(0,0,0)
(0,0,0)
(0,0,0)
(0,0,0)
(0,0,0)
(0,0,0)
(0,0,0)
(0,0,0)
(0,0,0)
(0,0,0)
(0,0,0)
(0,0,0)
(0,0,0)
(0,0,0)
(0,0,0)
(0,0,0)
(0,0,0)
(0,0,0)
(0,0,0)
(0,0,0)
(0,0,0)
(0,0,0)
(0,0,0)
(0,0,0)
(0,0,0)
(0,0,0)
(0,0,0)
(0,0,0)
(0,0,0)
(0,0,0)
(0,0,0)
(0,0,0)
(0,0,0)
(0,0,0)
(0,0,0)
(0,0,0)
(0,0,0)
(0,0,0)
(0,0,0)
(0,0,0)
(0,0,0)
(0,0,0)
(0,0,0)
(0,0,0)
(0,0,0)
(0,0,0)
(0,0,0)
(0,0,0)
(0,0,0)
(0,0,0)
(0,0,0)
(0,0,0)
(0,0,0)
(0,0,0)
(0,0,0)
(0,0,0)
(0,0,0)
(0,0,0)
(0,0,0)
(0,0,0)
(0,0,0)
(0,0,0)
(0,0,0)
(0,0,0)
(0,0,0)
(0,0,0)
(0,0,0)
(0,0,0)
(0,0,0)
(0,0,0)
(0,0,0)
(0,0,0)
(0,0,0)
(0,0,0)
(0,0,0)
(0,0,0)
(0,0,0)
(0,0,0)
(0,0,0)
(0,0,0)
(0,0,0)
(0,0,0)
(0,0,0)
(0,0,0)
(0,0,0)
(0,0,0)
(0,0,0)
(0,0,0)
(0,0,0)
(0,0,0)
(0,0,0)
(0,0,0)
(0,0,0)
(0,0,0)
(0,0,0)
(0,0,0)
(0,0,0)
(0,0,0)
(0,0,0)
(0,0,0)
(0,0,0)
(0,0,0)
(0,0,0)
(0,0,0)
(0,0,0)
(0,0,0)
(0,0,0)
(0,0,0)
(0,0,0)
(0,0,0)
(0,0,0)
(0,0,0)
(0,0,0)
(0,0,0)
(0,0,0)
(0,0,0)
(0,0,0)
(0,0,0)
(0,0,0)
(0,0,0)
(0,0,0)
(0,0,0)
(0,0,0)
(0,0,0)
(0,0,0)
(0,0,0)
(0,0,0)
(0,0,0)
(0,0,0)
(0,0,0)
(0,0,0)
(0,0,0)
(0,0,0)
(0,0,0)
(0,0,0)
(0,0,0)
(0,0,0)
(0,0,0)
(0,0,0)
(0,0,0)
(0,0,0)
(0,0,0)
(0,0,0)
(0,0,0)
(0,0,0)
(0,0,0)
(0,0,0)
(0,0,0)
(0,0,0)
(0,0,0)
(0,0,0)
(0,0,0)
(0,0,0)
(0,0,0)
(0,0,0)
(0,0,0)
(0,0,0)
(0,0,0)
(0,0,0)
(0,0,0)
(0,0,0)
(0,0,0)
(0,0,0)
(0,0,0)
(0,0,0)
(0,0,0)
(0,0,0)
(0,0,0)
(0,0,0)
(0,0,0)
(0,0,0)
(0,0,0)
(0,0,0)
(0,0,0)
(0,0,0)
(0,0,0)
(0,0,0)
(0,0,0)
(0,0,0)
(0,0,0)
(0,0,0)
(0,0,0)
(0,0,0)
(0,0,0)
(0,0,0)
(0,0,0)
(0,0,0)
(0,0,0)
(0,0,0)
(0,0,0)
(0,0,0)
(0,0,0)
(0,0,0)
(0,0,0)
(0,0,0)
(0,0,0)
(0,0,0)
(0,0,0)
(0,0,0)
(0,0,0)
(0,0,0)
(0,0,0)
(0,0,0)
(0,0,0)
(0,0,0)
(0,0,0)
(0,0,0)
(0,0,0)
(0,0,0)
(0,0,0)
(0,0,0)
(0,0,0)
(0,0,0)
(0,0,0)
(0,0,0)
(0,0,0)
(0,0,0)
(0,0,0)
(0,0,0)
(0,0,0)
(0,0,0)
(0,0,0)
(0,0,0)
(0,0,0)
(0,0,0)
(0,0,0)
(0,0,0)
(0,0,0)
(0,0,0)
(0,0,0)
(0,0,0)
(0,0,0)
(0,0,0)
(0,0,0)
(0,0,0)
(0,0,0)
(0,0,0)
(0,0,0)
(0,0,0)
(0,0,0)
(0,0,0)
(0,0,0)
(0,0,0)
(0,0,0)
(0,0,0)
(0,0,0)
(0,0,0)
(0,0,0)
(0,0,0)
(0,0,0)
(0,0,0)
(0,0,0)
(0,0,0)
(0,0,0)
(0,0,0)
(0,0,0)
(0,0,0)
(0,0,0)
(0,0,0)
(0,0,0)
(0,0,0)
(0,0,0)
(0,0,0)
(0,0,0)
(0,0,0)
(0,0,0)
(0,0,0)
(0,0,0)
(0,0,0)
(0,0,0)
(0,0,0)
(0,0,0)
(0,0,0)
(0,0,0)
(0,0,0)
(0,0,0)
(0,0,0)
(0,0,0)
(0,0,0)
(0,0,0)
(0,0,0)
(0,0,0)
(0,0,0)
(0,0,0)
(0,0,0)
(0,0,0)
(0,0,0)
(0,0,0)
(0,0,0)
(0,0,0)
(0,0,0)
(0,0,0)
(0,0,0)
(0,0,0)
(0,0,0)
(0,0,0)
(0,0,0)
(0,0,0)
(0,0,0)
(0,0,0)
(0,0,0)
(0,0,0)
(0,0,0)
(0,0,0)
(0,0,0)
(0,0,0)
(0,0,0)
(0,0,0)
(0,0,0)
(0,0,0)
(0,0,0)
(0,0,0)
(0,0,0)
(0,0,0)
(0,0,0)
(0,0,0)
(0,0,0)
(0,0,0)
(0,0,0)
(0,0,0)
(0,0,0)
(0,0,0)
(0,0,0)
(0,0,0)
(0,0,0)
(0,0,0)
(0,0,0)
(0,0,0)
(0,0,0)
(0,0,0)
(0,0,0)
(0,0,0)
(0,0,0)
(0,0,0)
(0,0,0)
(0,0,0)
(0,0,0)
(0,0,0)
(0,0,0)
(0,0,0)
(0,0,0)
(0,0,0)
(0,0,0)
(0,0,0)
(0,0,0)
(0,0,0)
(0,0,0)
(0,0,0)
(0,0,0)
(0,0,0)
(0,0,0)
(0,0,0)
(0,0,0)
(0,0,0)
(0,0,0)
(0,0,0)
(0,0,0)
(1.5457042273471e-12,-8.46527296504219e-12,9.33894008712573e-12)
(2.1547873303228e-12,-1.68953378918813e-11,8.93733544029153e-12)
(2.77932041362428e-12,-2.85213044339225e-11,7.97000584283045e-12)
(2.83135377321681e-12,-4.56178380843979e-11,7.08962740511738e-12)
(1.70437644024451e-12,-7.03148684792061e-11,6.04370912457093e-12)
(-1.6235579012238e-13,-1.10127298165963e-10,4.81099922377273e-12)
(-2.25022612328502e-12,-1.7530341648699e-10,3.26888679743574e-12)
(-1.61569715988905e-12,-2.85564256208217e-10,1.97065669570733e-12)
(-2.08230318387223e-12,-4.68552674107164e-10,1.33802468922247e-12)
(-3.84265420498591e-12,-7.22643851445104e-10,8.92103977179398e-13)
(0,0,0)
(0,0,0)
(0,0,0)
(0,0,0)
(0,0,0)
(0,0,0)
(2.84436266376078e-12,-7.50423408693524e-12,1.76016509215472e-11)
(4.08103643511439e-12,-1.54495691241444e-11,1.75147389973867e-11)
(4.59490401949159e-12,-2.67431687996574e-11,1.66641759897181e-11)
(3.94075489399278e-12,-4.37048300293826e-11,1.54334108700173e-11)
(1.5541655182126e-12,-6.86064296655935e-11,1.32485472980337e-11)
(-2.88161586699467e-13,-1.08793515511535e-10,1.02563338977608e-11)
(-2.23566184523006e-12,-1.74858468558869e-10,7.15588079071096e-12)
(-2.14713589000782e-12,-2.85634004904835e-10,4.67306041547903e-12)
(-3.43544803812755e-12,-4.68742279181263e-10,3.06511939804459e-12)
(-5.1866189489261e-12,-7.22852071599315e-10,1.72194229845035e-12)
(0,0,0)
(0,0,0)
(0,0,0)
(0,0,0)
(0,0,0)
(0,0,0)
(3.18589620530917e-12,-6.59366415265108e-12,3.03464858778504e-11)
(4.8605688778224e-12,-1.38659533415488e-11,3.01871851154659e-11)
(5.07312309269666e-12,-2.4673859756056e-11,2.92846945404237e-11)
(3.87885003508101e-12,-4.09615246605363e-11,2.7388281284804e-11)
(1.21982946919441e-12,-6.55502041534527e-11,2.37975722004433e-11)
(-9.35348752246497e-13,-1.05938882546378e-10,1.88368693152487e-11)
(-2.53675788485861e-12,-1.73261806415932e-10,1.42276210516631e-11)
(-2.65020167383642e-12,-2.85186330716325e-10,1.06752431490229e-11)
(-3.75144899722852e-12,-4.68871935091431e-10,7.51289453522086e-12)
(-4.72266704126836e-12,-7.23104687389498e-10,3.8490548965567e-12)
(0,0,0)
(0,0,0)
(0,0,0)
(0,0,0)
(0,0,0)
(0,0,0)
(3.73111108408017e-12,-5.80620145831636e-12,4.82262286324547e-11)
(5.3577253563594e-12,-1.17438196989686e-11,4.76247574441555e-11)
(5.44231529933906e-12,-2.14209360997328e-11,4.62532671225219e-11)
(4.75190347411438e-12,-3.63524543454543e-11,4.3735665303596e-11)
(2.40628605520226e-12,-6.00137711529477e-11,3.97476032467372e-11)
(-8.7283578422188e-13,-1.00873279233744e-10,3.45083791460476e-11)
(-1.98452436593376e-12,-1.69942225257615e-10,2.86047830172268e-11)
(-1.76880161061136e-12,-2.83696454921955e-10,2.27428395374798e-11)
(-3.24998444383452e-12,-4.67410946786848e-10,1.62916433977659e-11)
(-4.21056035355366e-12,-7.21352718817106e-10,8.25540174749007e-12)
(0,0,0)
(0,0,0)
(0,0,0)
(0,0,0)
(0,0,0)
(0,0,0)
(4.14201079478245e-12,-4.56436643456982e-12,7.42466600513365e-11)
(5.00293224992347e-12,-9.01937134564213e-12,7.33338793496919e-11)
(3.98716053691387e-12,-1.7193190417971e-11,7.17720032760292e-11)
(2.30746070549254e-12,-3.04539228600983e-11,6.90582370617281e-11)
(-6.61132366647466e-14,-5.26648724796136e-11,6.52301487667422e-11)
(-2.59058033369589e-12,-9.32185063890875e-11,6.04223418044824e-11)
(-2.62790393258585e-12,-1.63450269031812e-10,5.40045654814022e-11)
(-2.31163889977611e-12,-2.7873009022877e-10,4.40427177023706e-11)
(-3.74365684676273e-12,-4.61750596915592e-10,3.12961178786898e-11)
(-4.96195622585017e-12,-7.15080911734334e-10,1.61392122044813e-11)
(0,0,0)
(0,0,0)
(0,0,0)
(0,0,0)
(0,0,0)
(0,0,0)
(3.45510583745835e-12,-2.91039384686271e-12,1.13963811170853e-10)
(3.82144859891006e-12,-6.30619295809063e-12,1.13295998081962e-10)
(2.80900392458952e-12,-1.33560775109083e-11,1.12142666345474e-10)
(9.04853647373624e-13,-2.51430811805317e-11,1.09606912033655e-10)
(-1.56767981955029e-12,-4.53132290169325e-11,1.05540127363524e-10)
(-4.16066020884304e-12,-8.44582153976135e-11,1.00018930213575e-10)
(-5.42792286612918e-12,-1.55058814040699e-10,9.1361137373475e-11)
(-5.36388575181516e-12,-2.68646612561367e-10,7.67651519891443e-11)
(-6.18484242639553e-12,-4.49444829889348e-10,5.60111156914795e-11)
(-7.01880407613762e-12,-7.01556783374664e-10,2.98681983657853e-11)
(0,0,0)
(0,0,0)
(0,0,0)
(0,0,0)
(0,0,0)
(0,0,0)
(2.4074962274775e-12,-1.86684289080147e-12,1.78296073334647e-10)
(2.34297946299557e-12,-4.65399264500152e-12,1.78156558380738e-10)
(1.26383092703675e-12,-1.00633772793102e-11,1.7718032629024e-10)
(-3.39975394787645e-13,-1.97343869086784e-11,1.74810496191675e-10)
(-2.27654782833985e-12,-3.74079561121179e-11,1.70490235226205e-10)
(-4.93152913777449e-12,-7.38781095590032e-11,1.64036530290261e-10)
(-6.84376630961015e-12,-1.42208026978121e-10,1.51429278725193e-10)
(-7.20150778000618e-12,-2.50641888071564e-10,1.30513680511952e-10)
(-8.28055518091265e-12,-4.25727939208413e-10,9.77590017715404e-11)
(-9.32765734998003e-12,-6.73655030021248e-10,5.33573168653495e-11)
(0,0,0)
(0,0,0)
(0,0,0)
(0,0,0)
(0,0,0)
(0,0,0)
(-1.18606217770787e-13,-1.29610418088222e-12,2.8807365279169e-10)
(-7.54344464754811e-13,-3.41225976954328e-12,2.87800878931013e-10)
(-2.23982446523248e-12,-7.36276540357954e-12,2.86486307822332e-10)
(-4.01859804242153e-12,-1.49811255569034e-11,2.836701758095e-10)
(-6.32086481630894e-12,-3.06215587912706e-11,2.78905662291899e-10)
(-8.70304338867193e-12,-6.30414816690868e-11,2.70489059945324e-10)
(-9.2638503320414e-12,-1.22530918678393e-10,2.5340472514114e-10)
(-9.01227450627153e-12,-2.19180867858402e-10,2.22228359508309e-10)
(-9.38144706239173e-12,-3.82730371450673e-10,1.71868548897989e-10)
(-1.02364105946186e-11,-6.21596985000616e-10,9.74037487368022e-11)
(0,0,0)
(0,0,0)
(0,0,0)
(0,0,0)
(0,0,0)
(0,0,0)
(-3.42150977425704e-12,-6.15533912478305e-13,4.71886523775553e-10)
(-4.58146456827191e-12,-1.77258056105747e-12,4.70930428799287e-10)
(-6.00603786987758e-12,-4.59695436084181e-12,4.69094290504514e-10)
(-7.05387634229749e-12,-1.05935384584011e-11,4.65480852999297e-10)
(-9.58237430501049e-12,-2.29833192255282e-11,4.59620929666013e-10)
(-1.11165993617061e-11,-4.75286466343484e-11,4.47806399525305e-10)
(-1.05497943091603e-11,-9.2224562616237e-11,4.2498459580897e-10)
(-1.05727275209949e-11,-1.69441120470809e-10,3.83187043917826e-10)
(-1.05813653021138e-11,-3.0927797201089e-10,3.0988858376631e-10)
(-1.02670088525924e-11,-5.25392231184041e-10,1.86362907547037e-10)
(0,0,0)
(0,0,0)
(0,0,0)
(0,0,0)
(0,0,0)
(0,0,0)
(-4.22339775612215e-12,-2.00396174196382e-13,7.26596940061639e-10)
(-6.58892170314146e-12,-5.11935399014503e-13,7.25048047903631e-10)
(-7.65320445305681e-12,-1.95412770915186e-12,7.2289163401543e-10)
(-7.61942214891608e-12,-5.50647104583302e-12,7.18967424569637e-10)
(-9.98877585353247e-12,-1.24759367612995e-11,7.12448668318834e-10)
(-1.12781340059461e-11,-2.59888025659253e-11,6.98699586725713e-10)
(-1.04354529713978e-11,-5.07636178282701e-11,6.71750708964412e-10)
(-1.0657617740884e-11,-9.61843817495149e-11,6.21266671327739e-10)
(-9.6095536891498e-12,-1.85991606153015e-10,5.25534794325538e-10)
(-8.04751652029891e-12,-3.39735328728855e-10,3.40123580072165e-10)
(0,0,0)
(0,0,0)
(0,0,0)
(0,0,0)
(0,0,0)
(0,0,0)
(0,0,0)
(0,0,0)
(0,0,0)
(0,0,0)
(0,0,0)
(0,0,0)
(0,0,0)
(0,0,0)
(0,0,0)
(0,0,0)
(0,0,0)
(0,0,0)
(0,0,0)
(0,0,0)
(0,0,0)
(0,0,0)
(0,0,0)
(0,0,0)
(0,0,0)
(0,0,0)
(0,0,0)
(0,0,0)
(0,0,0)
(0,0,0)
(0,0,0)
(0,0,0)
(0,0,0)
(0,0,0)
(0,0,0)
(0,0,0)
(0,0,0)
(0,0,0)
(0,0,0)
(0,0,0)
(0,0,0)
(0,0,0)
(0,0,0)
(0,0,0)
(0,0,0)
(0,0,0)
(0,0,0)
(0,0,0)
(0,0,0)
(0,0,0)
(0,0,0)
(0,0,0)
(0,0,0)
(0,0,0)
(0,0,0)
(0,0,0)
(0,0,0)
(0,0,0)
(0,0,0)
(0,0,0)
(0,0,0)
(0,0,0)
(0,0,0)
(0,0,0)
(0,0,0)
(0,0,0)
(0,0,0)
(0,0,0)
(0,0,0)
(0,0,0)
(0,0,0)
(0,0,0)
(0,0,0)
(0,0,0)
(0,0,0)
(0,0,0)
(0,0,0)
(0,0,0)
(0,0,0)
(0,0,0)
(0,0,0)
(0,0,0)
(0,0,0)
(0,0,0)
(0,0,0)
(0,0,0)
(0,0,0)
(0,0,0)
(0,0,0)
(0,0,0)
(0,0,0)
(0,0,0)
(0,0,0)
(0,0,0)
(0,0,0)
(0,0,0)
(0,0,0)
(0,0,0)
(0,0,0)
(0,0,0)
(0,0,0)
(0,0,0)
(9.86269996073965e-13,-1.57181503512919e-11,1.80715595106874e-11)
(1.67634816004914e-12,-3.17231452355419e-11,1.67618300455868e-11)
(1.88156321706789e-12,-5.26600411272751e-11,1.47963939021147e-11)
(1.96426399873126e-12,-8.29578692695647e-11,1.26489393367086e-11)
(1.22864752737897e-12,-1.27765008952518e-10,9.84599678972604e-12)
(4.59739818268758e-14,-1.97536957294691e-10,6.56172311599156e-12)
(-1.3969439495649e-12,-3.09065696612315e-10,3.26152636744385e-12)
(-9.13316456933651e-13,-5.00269403897075e-10,1.48241656420681e-12)
(-1.44677739810252e-12,-8.65269394424684e-10,1.03378091945797e-12)
(-2.74233007411847e-12,-1.69912331374391e-09,8.99922358940351e-13)
(0,0,0)
(0,0,0)
(0,0,0)
(0,0,0)
(0,0,0)
(0,0,0)
(2.0207046536373e-12,-1.38672864754595e-11,3.46625275547236e-11)
(3.34798366019534e-12,-2.9014657229796e-11,3.34797051346105e-11)
(3.75636009558126e-12,-4.93842450249933e-11,3.11881574236023e-11)
(3.38231309713059e-12,-7.91263539458892e-11,2.75412093753652e-11)
(1.49015340635874e-12,-1.23866962969145e-10,2.2058103274236e-11)
(-4.23414448196651e-14,-1.94516159405203e-10,1.51897084995659e-11)
(-1.34950361310099e-12,-3.08390644078349e-10,8.50672238063346e-12)
(-9.868690607271e-13,-5.00991996521292e-10,4.7401660111748e-12)
(-1.96261502799033e-12,-8.66683563597282e-10,3.3762437656104e-12)
(-3.21206086022419e-12,-1.70041349378311e-09,2.32329084891987e-12)
(0,0,0)
(0,0,0)
(0,0,0)
(0,0,0)
(0,0,0)
(0,0,0)
(2.55773427335944e-12,-1.1780449344868e-11,5.77027710984768e-11)
(3.64092581028816e-12,-2.54120594512611e-11,5.68054728494197e-11)
(3.71661269201354e-12,-4.43294204384338e-11,5.43074334266987e-11)
(2.86048880435687e-12,-7.24849836841865e-11,4.90392740454581e-11)
(6.44099353830896e-13,-1.16383964631673e-10,4.04756957352449e-11)
(-1.39170380124731e-12,-1.87904936321715e-10,2.9562412153354e-11)
(-2.30396114052467e-12,-3.05524141468401e-10,1.89954804962914e-11)
(-9.77728854541592e-13,-5.01510152113869e-10,1.35345014362994e-11)
(-1.54859766324242e-12,-8.68456534242188e-10,1.03287585874452e-11)
(-2.62558071722283e-12,-1.70189622907661e-09,5.95272015526382e-12)
(0,0,0)
(0,0,0)
(0,0,0)
(0,0,0)
(0,0,0)
(0,0,0)
(3.09074724863254e-12,-9.72048480686705e-12,8.8865979470133e-11)
(4.00476732466625e-12,-2.10161293636337e-11,8.78548456390217e-11)
(3.7321714364972e-12,-3.73749738234763e-11,8.49428711503129e-11)
(2.84143404562383e-12,-6.24968978634419e-11,7.89838764792557e-11)
(2.96611482558018e-13,-1.03930513184357e-10,6.96507188788345e-11)
(-2.62401250004415e-12,-1.7593024455199e-10,5.70913142661629e-11)
(-2.61453711197829e-12,-2.99251611839698e-10,4.29477290289782e-11)
(-2.83970164102509e-13,-5.01228904212171e-10,3.39928470794497e-11)
(-8.74092664015892e-13,-8.6829081063543e-10,2.54866286126321e-11)
(-2.22696568824473e-12,-1.70069853636577e-09,1.38365604563643e-11)
(0,0,0)
(0,0,0)
(0,0,0)
(0,0,0)
(0,0,0)
(0,0,0)
(3.40081890872006e-12,-7.39411592115586e-12,1.3442735074842e-10)
(3.85162993603133e-12,-1.61279081190164e-11,1.33493794166533e-10)
(2.86381384414767e-12,-2.93965527533066e-11,1.30660514679122e-10)
(8.24707320904938e-13,-5.04918840157057e-11,1.25026912656166e-10)
(-2.60994973706374e-12,-8.73276093016694e-11,1.17098721391011e-10)
(-4.93309500213923e-12,-1.56731910921892e-10,1.07038740993589e-10)
(-1.05751114464685e-12,-2.84472475280925e-10,9.70387565005623e-11)
(3.51483256605082e-13,-4.96107492615333e-10,7.67061042195891e-11)
(-8.92518198967481e-13,-8.62014064184675e-10,5.44729337329293e-11)
(-2.34687238172991e-12,-1.69226238138015e-09,2.85225198402587e-11)
(0,0,0)
(0,0,0)
(0,0,0)
(0,0,0)
(0,0,0)
(0,0,0)
(3.07936797028922e-12,-4.7978789141705e-12,2.03686254527088e-10)
(3.32258002230549e-12,-1.10994609475085e-11,2.03158311755516e-10)
(2.05205800480608e-12,-2.16685282119558e-11,2.0076636540773e-10)
(-4.37055954340872e-13,-3.92150138887017e-11,1.95831749860218e-10)
(-3.95175557440162e-12,-7.10604662674344e-11,1.89059528239396e-10)
(-6.08297320738249e-12,-1.37653491343514e-10,1.7986836817449e-10)
(-3.68272454435799e-12,-2.71296855930914e-10,1.66489592862204e-10)
(-2.61457394396264e-12,-4.81316738188263e-10,1.38736467749157e-10)
(-3.75881578168409e-12,-8.42266915300782e-10,1.00388452576766e-10)
(-5.05235906337056e-12,-1.66902328285102e-09,5.30998577427431e-11)
(0,0,0)
(0,0,0)
(0,0,0)
(0,0,0)
(0,0,0)
(0,0,0)
(1.97627247146593e-12,-2.95689935581952e-12,3.12827568286384e-10)
(2.07747867803695e-12,-7.17302681842764e-12,3.12873290006082e-10)
(9.33049149876435e-13,-1.50663734271809e-11,3.11302504403831e-10)
(-7.72975781101734e-13,-2.93401212086663e-11,3.07850325053955e-10)
(-2.60924021322404e-12,-5.61359971310923e-11,3.02607464447956e-10)
(-3.16090546259679e-12,-1.16210148055309e-10,2.93902265027429e-10)
(-5.60527639610635e-12,-2.49540489387321e-10,2.69893283042518e-10)
(-5.90784925286778e-12,-4.49928803123527e-10,2.3596577780469e-10)
(-6.87643803259913e-12,-8.00231518868454e-10,1.74785362059548e-10)
(-8.02838550494363e-12,-1.61997034457315e-09,9.43600511920481e-11)
(0,0,0)
(0,0,0)
(0,0,0)
(0,0,0)
(0,0,0)
(0,0,0)
(-5.26402625497198e-13,-1.95831437348632e-12,5.0165380255709e-10)
(-1.07945256455797e-12,-4.79128768815435e-12,5.01706786697544e-10)
(-2.18950349513471e-12,-1.0841603515682e-11,5.00207108736007e-10)
(-3.6416716233242e-12,-2.28420452832748e-11,4.96793933327699e-10)
(-5.54250203549887e-12,-4.79109410979533e-11,4.91201136092339e-10)
(-7.13154361919944e-12,-1.0386137146401e-10,4.80197538626878e-10)
(-8.39384076133735e-12,-2.17266753717225e-10,4.53075726497468e-10)
(-8.39221128366268e-12,-3.9102969765554e-10,3.97272597357426e-10)
(-8.36904634090281e-12,-7.22533667694091e-10,3.06041475341633e-10)
(-9.03741567491974e-12,-1.52824369731896e-09,1.74151432473661e-10)
(0,0,0)
(0,0,0)
(0,0,0)
(0,0,0)
(0,0,0)
(0,0,0)
(-2.88055253627321e-12,-1.28440546116118e-12,8.66556470542961e-10)
(-4.00597143554152e-12,-2.88861718258273e-12,8.65816611231753e-10)
(-5.03542701634769e-12,-7.28046696337008e-12,8.63613800988725e-10)
(-6.28102042157357e-12,-1.68084280669495e-11,8.58991510286876e-10)
(-8.27522662851943e-12,-3.73447972540229e-11,8.51172131003668e-10)
(-9.83463971381534e-12,-8.02620183257795e-11,8.33908905061453e-10)
(-1.02131872059729e-11,-1.61795856368102e-10,7.96439975230923e-10)
(-1.05310060907738e-11,-3.00033795640949e-10,7.22890741780607e-10)
(-1.03420549407241e-11,-5.91916067696167e-10,5.93592333978941e-10)
(-9.56100376078279e-12,-1.3559854069716e-09,3.70711824280474e-10)
(0,0,0)
(0,0,0)
(0,0,0)
(0,0,0)
(0,0,0)
(0,0,0)
(-2.87490177231065e-12,-7.82539676523838e-13,1.70012381952617e-09)
(-4.94444321395444e-12,-1.33625553637084e-12,1.69870602805681e-09)
(-5.6831227164191e-12,-3.69468803754599e-12,1.69594689871896e-09)
(-6.60713694394558e-12,-9.35720381746719e-12,1.69045959629136e-09)
(-8.71563102171844e-12,-2.08302755888859e-11,1.68053334310129e-09)
(-1.03180588105791e-11,-4.41757257552164e-11,1.65901095657668e-09)
(-1.07150331630207e-11,-8.82920202965494e-11,1.61408474010837e-09)
(-1.11101224881653e-11,-1.70686588023672e-10,1.52621464651071e-09)
(-1.01899455887958e-11,-3.69682144296398e-10,1.35549968480425e-09)
(-7.65926517687403e-12,-9.85984361240563e-10,9.85661044301169e-10)
(0,0,0)
(0,0,0)
(0,0,0)
(0,0,0)
(0,0,0)
(0,0,0)
(0,0,0)
(0,0,0)
(0,0,0)
(0,0,0)
(0,0,0)
(0,0,0)
(0,0,0)
(0,0,0)
(0,0,0)
(0,0,0)
(0,0,0)
(0,0,0)
(0,0,0)
(0,0,0)
(0,0,0)
(0,0,0)
(0,0,0)
(0,0,0)
(0,0,0)
(0,0,0)
(0,0,0)
(0,0,0)
(0,0,0)
(0,0,0)
(0,0,0)
(0,0,0)
(0,0,0)
(0,0,0)
(0,0,0)
(0,0,0)
(0,0,0)
(0,0,0)
(0,0,0)
(0,0,0)
(0,0,0)
(0,0,0)
(0,0,0)
(0,0,0)
(0,0,0)
(0,0,0)
(0,0,0)
(0,0,0)
(0,0,0)
(0,0,0)
(0,0,0)
(0,0,0)
(0,0,0)
(0,0,0)
(0,0,0)
(0,0,0)
(0,0,0)
(0,0,0)
(0,0,0)
(0,0,0)
(0,0,0)
(0,0,0)
(0,0,0)
(0,0,0)
(0,0,0)
(0,0,0)
(0,0,0)
(0,0,0)
(0,0,0)
(0,0,0)
(0,0,0)
(0,0,0)
(0,0,0)
(0,0,0)
(0,0,0)
(0,0,0)
(0,0,0)
(0,0,0)
(0,0,0)
(0,0,0)
(0,0,0)
(0,0,0)
(0,0,0)
(0,0,0)
(0,0,0)
(0,0,0)
(0,0,0)
(0,0,0)
(0,0,0)
(0,0,0)
(0,0,0)
(0,0,0)
(0,0,0)
(0,0,0)
(0,0,0)
(0,0,0)
(0,0,0)
(0,0,0)
(0,0,0)
(0,0,0)
(0,0,0)
(0,0,0)
(4.45135585340351e-13,-2.23993591867371e-11,2.48220435240172e-11)
(9.33296297076052e-13,-4.45002875565528e-11,2.27913034053173e-11)
(7.532216811909e-13,-7.16321042582096e-11,1.98556889390328e-11)
(9.35691221698178e-13,-1.09602139704798e-10,1.61781928257999e-11)
(6.14875217767276e-13,-1.65146587365395e-10,1.12245171597779e-11)
(3.25372841230425e-13,-2.46981491759939e-10,5.18659075632442e-12)
(-2.92886680880188e-13,-3.66567087003039e-10,-1.90419038179697e-13)
(2.57911811752544e-13,-5.4251246022683e-10,-1.88453132126409e-12)
(1.01250335639298e-13,-7.93065963853257e-10,-1.32811335446298e-12)
(-5.52227676746422e-13,-1.09636060791256e-09,-3.41221785780389e-13)
(0,0,0)
(0,0,0)
(0,0,0)
(0,0,0)
(0,0,0)
(0,0,0)
(1.11668994313802e-12,-1.9981253873328e-11,4.83494191475068e-11)
(2.03693359271615e-12,-4.1047049623348e-11,4.59836451884936e-11)
(2.34848355523604e-12,-6.74706199119343e-11,4.16828973125979e-11)
(2.22404893716192e-12,-1.04264052917658e-10,3.49354790457508e-11)
(8.75549843917433e-13,-1.58811492054116e-10,2.51415629546194e-11)
(2.94215905474592e-14,-2.42041424900747e-10,1.26278373998197e-11)
(-4.49449854226957e-13,-3.66160857015755e-10,4.41708529381772e-13)
(8.95208778451594e-13,-5.44798414579603e-10,-2.89179444786721e-12)
(8.63308533816854e-13,-7.9634895065676e-10,-1.48273332824767e-12)
(5.93965282476792e-13,-1.09963953970984e-09,1.60555585163273e-14)
(0,0,0)
(0,0,0)
(0,0,0)
(0,0,0)
(0,0,0)
(0,0,0)
(1.39506798263664e-12,-1.67995960988214e-11,7.84398457735589e-11)
(1.74303514625065e-12,-3.53510272146091e-11,7.65822984396796e-11)
(2.03032545906528e-12,-5.92873122464681e-11,7.1739051376005e-11)
(1.43598129328993e-12,-9.35369689867536e-11,6.23419967722635e-11)
(-8.9606851207009e-13,-1.46138606687728e-10,4.72989048522183e-11)
(-2.79946391359093e-12,-2.30861143356523e-10,2.6125353284003e-11)
(-3.11551170884858e-12,-3.64711576723286e-10,2.41638233919925e-12)
(1.94676609187262e-12,-5.49851042234538e-10,-5.89221790104276e-13)
(2.6617171635429e-12,-8.0221227785855e-10,2.61752998103919e-12)
(2.12944672652995e-12,-1.10459211424217e-09,2.78383580357716e-12)
(0,0,0)
(0,0,0)
(0,0,0)
(0,0,0)
(0,0,0)
(0,0,0)
(1.77551219344745e-12,-1.32637186326147e-11,1.17272517891965e-10)
(2.0285205698495e-12,-2.82627879247919e-11,1.15697249537598e-10)
(1.71274503672516e-12,-4.78474773761436e-11,1.10728941002874e-10)
(1.69577797248012e-13,-7.69393054306413e-11,1.00565851911945e-10)
(-3.74688778736181e-12,-1.24229007335792e-10,8.32361410396762e-11)
(-7.67876089229566e-12,-2.07428672714837e-10,5.56666924764213e-11)
(-8.43879172086642e-12,-3.59982202872432e-10,1.78387428263433e-11)
(3.10083670571121e-12,-5.59512610901602e-10,1.72351175549751e-11)
(4.49922904214366e-12,-8.09235414757299e-10,1.8608720079782e-11)
(3.17343978147194e-12,-1.10817317844347e-09,1.19095528772071e-11)
(0,0,0)
(0,0,0)
(0,0,0)
(0,0,0)
(0,0,0)
(0,0,0)
(1.73813848272374e-12,-9.60354054354943e-12,1.72565601147273e-10)
(1.65646225314079e-12,-2.08693599162385e-11,1.71398477874854e-10)
(7.69391324366345e-13,-3.54953235767156e-11,1.67122295650114e-10)
(-2.52397154089402e-12,-5.7009262185899e-11,1.58147663164461e-10)
(-8.81711237233893e-12,-9.30025965193733e-11,1.43959525704955e-10)
(-1.40115300885843e-11,-1.61390768149598e-10,1.26003192456233e-10)
(6.09952178553434e-12,-3.19941648038533e-10,1.31132325689612e-10)
(7.79389931581251e-12,-5.70143161826056e-10,8.77916640273353e-11)
(5.31074681180235e-12,-8.1200541909334e-10,6.11345251686972e-11)
(2.93654892903003e-12,-1.10362440140168e-09,3.24863069214879e-11)
(0,0,0)
(0,0,0)
(0,0,0)
(0,0,0)
(0,0,0)
(0,0,0)
(1.76633118386993e-12,-6.07652888893163e-12,2.54195097823269e-10)
(1.78809224044278e-12,-1.3848020861749e-11,2.53605599405345e-10)
(3.84518767844414e-13,-2.38461052864895e-11,2.50190788928806e-10)
(-3.53972701211832e-12,-3.82777481246444e-11,2.43198228074261e-10)
(-9.68506464694225e-12,-6.38478665513879e-11,2.33407582844207e-10)
(-1.41475411833197e-11,-1.25960917586181e-10,2.209454089701e-10)
(2.31403402548123e-12,-3.19789023416834e-10,2.20973008214639e-10)
(4.34550616302797e-12,-5.63179466362015e-10,1.74699942579179e-10)
(1.49438262063519e-12,-7.93966869149484e-10,1.22666949784161e-10)
(-1.00543959919796e-12,-1.07835911474955e-09,6.35761708783417e-11)
(0,0,0)
(0,0,0)
(0,0,0)
(0,0,0)
(0,0,0)
(0,0,0)
(9.31965770651911e-13,-3.39082961843113e-12,3.70348371510935e-10)
(1.26652514867131e-12,-7.96458354816348e-12,3.7023745897957e-10)
(1.60458588635804e-13,-1.41397636325402e-11,3.68548894510647e-10)
(-2.02819110079657e-12,-2.31691366634861e-11,3.65832222815663e-10)
(-2.12909682563294e-12,-3.74629681070844e-11,3.64636421987363e-10)
(8.49929993130816e-12,-7.69552795727176e-11,3.67137360619084e-10)
(-3.95150682853763e-12,-2.98480601963774e-10,3.18068214572397e-10)
(-3.62653897637669e-12,-5.28259804540853e-10,3.04368892039239e-10)
(-4.1489783393034e-12,-7.43597492497257e-10,2.12586487377417e-10)
(-5.39498156665527e-12,-1.02033859252313e-09,1.09552110507026e-10)
(0,0,0)
(0,0,0)
(0,0,0)
(0,0,0)
(0,0,0)
(0,0,0)
(-1.25329567777324e-12,-1.95469212305336e-12,5.41568320720609e-10)
(-1.48244510822728e-12,-4.50536692512857e-12,5.41735143333138e-10)
(-2.33746464034824e-12,-9.14803334490255e-12,5.40705756488784e-10)
(-4.08249160306791e-12,-1.81291398128095e-11,5.39059866404524e-10)
(-5.10504841447352e-12,-3.89772997724615e-11,5.38370407908735e-10)
(-3.6090846276613e-12,-9.88115592998309e-11,5.38779658651579e-10)
(-8.06160897062814e-12,-2.72495199322482e-10,5.22109575032758e-10)
(-8.15699128358212e-12,-4.37751090628044e-10,4.44948217167415e-10)
(-7.09660347065351e-12,-6.43540941062978e-10,3.24752340732733e-10)
(-7.14427354781509e-12,-9.13692443317193e-10,1.75335296508892e-10)
(0,0,0)
(0,0,0)
(0,0,0)
(0,0,0)
(0,0,0)
(0,0,0)
(-2.64255901000972e-12,-1.49713637043039e-12,7.90522248425212e-10)
(-3.35552283914948e-12,-2.77275294343906e-12,7.90015964478914e-10)
(-3.99891523905263e-12,-6.44485712900448e-12,7.88064292062609e-10)
(-5.91286538826747e-12,-1.50556241058686e-11,7.84633339953372e-10)
(-7.52652235124974e-12,-3.62079744202923e-11,7.79240750441841e-10)
(-8.45200245379724e-12,-8.63900040078807e-11,7.6646245681106e-10)
(-1.01677898266244e-11,-1.91188863364332e-10,7.30494873167588e-10)
(-1.05798059078164e-11,-3.16496845031631e-10,6.4109030889179e-10)
(-9.69546864120512e-12,-4.9465680954133e-10,4.95891708123596e-10)
(-8.85022521171564e-12,-7.39471246566886e-10,2.84470759885025e-10)
(0,0,0)
(0,0,0)
(0,0,0)
(0,0,0)
(0,0,0)
(0,0,0)
(-2.23964998054845e-12,-1.0094259389417e-12,1.09355132608681e-09)
(-3.52156941260141e-12,-1.42248911660252e-12,1.09245924941633e-09)
(-3.89050832607167e-12,-3.59737524051943e-12,1.089913826951e-09)
(-6.03808757110985e-12,-9.26250069920738e-12,1.0853209988231e-09)
(-8.02352008578014e-12,-2.19244216119226e-11,1.07598863981727e-09)
(-9.56756809863305e-12,-4.91348620264848e-11,1.05473810030772e-09)