/*--------------------------------*- C++ -*----------------------------------*\
| =========                 |                                                 |
| \\      /  F ield         | foam-extend: Open Source CFD                    |
|  \\    /   O peration     | Version:     4.0                                |
|   \\  /    A nd           | Web:         http://www.foam-extend.org         |
|    \\/     M anipulation  |                                                 |
\*---------------------------------------------------------------------------*/
FoamFile
{
    version 2.0;
    format ascii;
    class volVectorField;
    location "455";
    object      E;
}
// * * * * * * * * * * * * * * * * * * * * * * * * * * * * * * * * * * * * * //

dimensions      [0 1 -1 0 0 0 0];

internalField   nonuniform List<vector>
4096
(
(0,0,0)
(0,0,0)
(0,0,0)
(0,0,0)
(0,0,0)
(0,0,0)
(0,0,0)
(0,0,0)
(0,0,0)
(0,0,0)
(0,0,0)
(0,0,0)
(0,0,0)
(0,0,0)
(0,0,0)
(0,0,0)
(0,0,0)
(0,0,0)
(0,0,0)
(0,0,0)
(0,0,0)
(0,0,0)
(0,0,0)
(0,0,0)
(0,0,0)
(0,0,0)
(0,0,0)
(0,0,0)
(0,0,0)
(0,0,0)
(0,0,0)
(0,0,0)
(0,0,0)
(0,0,0)
(0,0,0)
(0,0,0)
(0,0,0)
(0,0,0)
(0,0,0)
(0,0,0)
(0,0,0)
(0,0,0)
(0,0,0)
(0,0,0)
(0,0,0)
(0,0,0)
(0,0,0)
(0,0,0)
(0,0,0)
(0,0,0)
(0,0,0)
(0,0,0)
(0,0,0)
(0,0,0)
(0,0,0)
(0,0,0)
(0,0,0)
(0,0,0)
(0,0,0)
(0,0,0)
(0,0,0)
(0,0,0)
(0,0,0)
(0,0,0)
(0,0,0)
(0,0,0)
(0,0,0)
(0,0,0)
(0,0,0)
(0,0,0)
(0,0,0)
(0,0,0)
(0,0,0)
(0,0,0)
(0,0,0)
(0,0,0)
(0,0,0)
(0,0,0)
(0,0,0)
(0,0,0)
(0,0,0)
(0,0,0)
(0,0,0)
(0,0,0)
(0,0,0)
(0,0,0)
(0,0,0)
(0,0,0)
(0,0,0)
(0,0,0)
(0,0,0)
(0,0,0)
(0,0,0)
(0,0,0)
(0,0,0)
(0,0,0)
(0,0,0)
(0,0,0)
(0,0,0)
(0,0,0)
(0,0,0)
(0,0,0)
(0,0,0)
(0,0,0)
(0,0,0)
(0,0,0)
(0,0,0)
(0,0,0)
(0,0,0)
(0,0,0)
(0,0,0)
(0,0,0)
(0,0,0)
(0,0,0)
(0,0,0)
(0,0,0)
(0,0,0)
(0,0,0)
(0,0,0)
(0,0,0)
(0,0,0)
(0,0,0)
(0,0,0)
(0,0,0)
(0,0,0)
(0,0,0)
(0,0,0)
(0,0,0)
(0,0,0)
(0,0,0)
(0,0,0)
(0,0,0)
(0,0,0)
(0,0,0)
(0,0,0)
(0,0,0)
(0,0,0)
(0,0,0)
(0,0,0)
(0,0,0)
(0,0,0)
(0,0,0)
(0,0,0)
(0,0,0)
(0,0,0)
(0,0,0)
(0,0,0)
(0,0,0)
(0,0,0)
(0,0,0)
(0,0,0)
(0,0,0)
(0,0,0)
(0,0,0)
(0,0,0)
(0,0,0)
(0,0,0)
(0,0,0)
(0,0,0)
(0,0,0)
(0,0,0)
(0,0,0)
(0,0,0)
(0,0,0)
(0,0,0)
(0,0,0)
(0,0,0)
(0,0,0)
(0,0,0)
(0,0,0)
(0,0,0)
(0,0,0)
(0,0,0)
(0,0,0)
(0,0,0)
(0,0,0)
(0,0,0)
(0,0,0)
(0,0,0)
(0,0,0)
(0,0,0)
(0,0,0)
(0,0,0)
(0,0,0)
(0,0,0)
(0,0,0)
(0,0,0)
(0,0,0)
(0,0,0)
(0,0,0)
(0,0,0)
(0,0,0)
(0,0,0)
(0,0,0)
(0,0,0)
(0,0,0)
(0,0,0)
(0,0,0)
(0,0,0)
(0,0,0)
(0,0,0)
(0,0,0)
(0,0,0)
(0,0,0)
(0,0,0)
(0,0,0)
(0,0,0)
(0,0,0)
(0,0,0)
(0,0,0)
(0,0,0)
(0,0,0)
(0,0,0)
(0,0,0)
(0,0,0)
(0,0,0)
(0,0,0)
(0,0,0)
(0,0,0)
(0,0,0)
(0,0,0)
(0,0,0)
(0,0,0)
(0,0,0)
(0,0,0)
(0,0,0)
(0,0,0)
(0,0,0)
(0,0,0)
(0,0,0)
(0,0,0)
(0,0,0)
(0,0,0)
(0,0,0)
(0,0,0)
(0,0,0)
(0,0,0)
(0,0,0)
(0,0,0)
(0,0,0)
(0,0,0)
(0,0,0)
(0,0,0)
(0,0,0)
(0,0,0)
(0,0,0)
(0,0,0)
(0,0,0)
(0,0,0)
(0,0,0)
(0,0,0)
(0,0,0)
(0,0,0)
(0,0,0)
(0,0,0)
(0,0,0)
(0,0,0)
(0,0,0)
(0,0,0)
(0,0,0)
(0,0,0)
(0,0,0)
(0,0,0)
(0,0,0)
(0,0,0)
(0,0,0)
(0,0,0)
(0,0,0)
(0,0,0)
(0,0,0)
(0,0,0)
(0,0,0)
(0,0,0)
(0,0,0)
(0,0,0)
(0,0,0)
(0,0,0)
(0,0,0)
(0,0,0)
(0,0,0)
(0,0,0)
(0,0,0)
(0,0,0)
(0,0,0)
(0,0,0)
(0,0,0)
(0,0,0)
(0,0,0)
(0,0,0)
(0,0,0)
(0,0,0)
(0,0,0)
(0,0,0)
(0,0,0)
(0,0,0)
(0,0,0)
(0,0,0)
(0,0,0)
(0,0,0)
(0,0,0)
(0,0,0)
(0,0,0)
(0,0,0)
(0,0,0)
(0,0,0)
(0,0,0)
(0,0,0)
(0,0,0)
(0,0,0)
(0,0,0)
(0,0,0)
(0,0,0)
(0,0,0)
(0,0,0)
(0,0,0)
(0,0,0)
(0,0,0)
(0,0,0)
(0,0,0)
(0,0,0)
(0,0,0)
(0,0,0)
(0,0,0)
(0,0,0)
(0,0,0)
(0,0,0)
(0,0,0)
(0,0,0)
(0,0,0)
(0,0,0)
(0,0,0)
(0,0,0)
(0,0,0)
(0,0,0)
(0,0,0)
(0,0,0)
(0,0,0)
(0,0,0)
(0,0,0)
(0,0,0)
(0,0,0)
(0,0,0)
(0,0,0)
(0,0,0)
(0,0,0)
(0,0,0)
(0,0,0)
(0,0,0)
(0,0,0)
(0,0,0)
(0,0,0)
(0,0,0)
(0,0,0)
(0,0,0)
(0,0,0)
(0,0,0)
(0,0,0)
(0,0,0)
(0,0,0)
(0,0,0)
(0,0,0)
(0,0,0)
(0,0,0)
(0,0,0)
(0,0,0)
(0,0,0)
(0,0,0)
(0,0,0)
(0,0,0)
(0,0,0)
(0,0,0)
(0,0,0)
(0,0,0)
(0,0,0)
(0,0,0)
(0,0,0)
(0,0,0)
(0,0,0)
(0,0,0)
(0,0,0)
(0,0,0)
(0,0,0)
(0,0,0)
(0,0,0)
(0,0,0)
(0,0,0)
(0,0,0)
(0,0,0)
(0,0,0)
(0,0,0)
(0,0,0)
(0,0,0)
(0,0,0)
(0,0,0)
(0,0,0)
(0,0,0)
(0,0,0)
(0,0,0)
(0,0,0)
(0,0,0)
(0,0,0)
(0,0,0)
(0,0,0)
(0,0,0)
(0,0,0)
(0,0,0)
(0,0,0)
(0,0,0)
(0,0,0)
(0,0,0)
(0,0,0)
(0,0,0)
(0,0,0)
(0,0,0)
(0,0,0)
(0,0,0)
(0,0,0)
(0,0,0)
(0,0,0)
(0,0,0)
(0,0,0)
(0,0,0)
(0,0,0)
(0,0,0)
(0,0,0)
(0,0,0)
(0,0,0)
(0,0,0)
(0,0,0)
(0,0,0)
(0,0,0)
(0,0,0)
(0,0,0)
(0,0,0)
(0,0,0)
(0,0,0)
(0,0,0)
(0,0,0)
(0,0,0)
(0,0,0)
(0,0,0)
(0,0,0)
(0,0,0)
(0,0,0)
(0,0,0)
(0,0,0)
(0,0,0)
(0,0,0)
(0,0,0)
(0,0,0)
(0,0,0)
(0,0,0)
(0,0,0)
(0,0,0)
(0,0,0)
(0,0,0)
(0,0,0)
(0,0,0)
(0,0,0)
(0,0,0)
(0,0,0)
(0,0,0)
(0,0,0)
(0,0,0)
(0,0,0)
(0,0,0)
(0,0,0)
(0,0,0)
(0,0,0)
(0,0,0)
(0,0,0)
(0,0,0)
(0,0,0)
(0,0,0)
(0,0,0)
(0,0,0)
(0,0,0)
(0,0,0)
(0,0,0)
(0,0,0)
(0,0,0)
(0,0,0)
(0,0,0)
(0,0,0)
(0,0,0)
(0,0,0)
(0,0,0)
(0,0,0)
(0,0,0)
(0,0,0)
(0,0,0)
(0,0,0)
(0,0,0)
(0,0,0)
(0,0,0)
(0,0,0)
(0,0,0)
(0,0,0)
(0,0,0)
(0,0,0)
(0,0,0)
(0,0,0)
(0,0,0)
(0,0,0)
(0,0,0)
(0,0,0)
(0,0,0)
(0,0,0)
(0,0,0)
(0,0,0)
(0,0,0)
(0,0,0)
(0,0,0)
(0,0,0)
(0,0,0)
(0,0,0)
(0,0,0)
(0,0,0)
(0,0,0)
(0,0,0)
(0,0,0)
(0,0,0)
(0,0,0)
(0,0,0)
(0,0,0)
(0,0,0)
(0,0,0)
(0,0,0)
(0,0,0)
(0,0,0)
(0,0,0)
(0,0,0)
(0,0,0)
(0,0,0)
(0,0,0)
(0,0,0)
(0,0,0)
(0,0,0)
(0,0,0)
(0,0,0)
(0,0,0)
(0,0,0)
(0,0,0)
(0,0,0)
(0,0,0)
(0,0,0)
(0,0,0)
(0,0,0)
(0,0,0)
(0,0,0)
(0,0,0)
(0,0,0)
(0,0,0)
(0,0,0)
(0,0,0)
(0,0,0)
(0,0,0)
(0,0,0)
(0,0,0)
(0,0,0)
(0,0,0)
(0,0,0)
(0,0,0)
(0,0,0)
(0,0,0)
(0,0,0)
(0,0,0)
(0,0,0)
(0,0,0)
(0,0,0)
(0,0,0)
(0,0,0)
(0,0,0)
(0,0,0)
(0,0,0)
(0,0,0)
(0,0,0)
(0,0,0)
(0,0,0)
(0,0,0)
(0,0,0)
(0,0,0)
(0,0,0)
(0,0,0)
(0,0,0)
(0,0,0)
(0,0,0)
(0,0,0)
(0,0,0)
(0,0,0)
(0,0,0)
(0,0,0)
(0,0,0)
(0,0,0)
(0,0,0)
(0,0,0)
(0,0,0)
(0,0,0)
(0,0,0)
(0,0,0)
(0,0,0)
(0,0,0)
(0,0,0)
(0,0,0)
(0,0,0)
(0,0,0)
(0,0,0)
(0,0,0)
(0,0,0)
(0,0,0)
(0,0,0)
(0,0,0)
(0,0,0)
(0,0,0)
(0,0,0)
(0,0,0)
(0,0,0)
(0,0,0)
(0,0,0)
(0,0,0)
(0,0,0)
(0,0,0)
(0,0,0)
(0,0,0)
(0,0,0)
(0,0,0)
(0,0,0)
(0,0,0)
(0,0,0)
(0,0,0)
(0,0,0)
(0,0,0)
(0,0,0)
(0,0,0)
(0,0,0)
(0,0,0)
(0,0,0)
(0,0,0)
(0,0,0)
(0,0,0)
(0,0,0)
(0,0,0)
(0,0,0)
(0,0,0)
(0,0,0)
(0,0,0)
(0,0,0)
(0,0,0)
(0,0,0)
(0,0,0)
(0,0,0)
(0,0,0)
(0,0,0)
(0,0,0)
(0,0,0)
(0,0,0)
(0,0,0)
(0,0,0)
(0,0,0)
(0,0,0)
(0,0,0)
(0,0,0)
(0,0,0)
(0,0,0)
(0,0,0)
(0,0,0)
(0,0,0)
(0,0,0)
(0,0,0)
(0,0,0)
(0,0,0)
(0,0,0)
(0,0,0)
(0,0,0)
(0,0,0)
(0,0,0)
(0,0,0)
(0,0,0)
(0,0,0)
(0,0,0)
(0,0,0)
(0,0,0)
(0,0,0)
(0,0,0)
(0,0,0)
(0,0,0)
(0,0,0)
(0,0,0)
(0,0,0)
(0,0,0)
(0,0,0)
(0,0,0)
(0,0,0)
(0,0,0)
(0,0,0)
(0,0,0)
(0,0,0)
(0,0,0)
(0,0,0)
(0,0,0)
(0,0,0)
(0,0,0)
(0,0,0)
(0,0,0)
(0,0,0)
(0,0,0)
(0,0,0)
(0,0,0)
(0,0,0)
(0,0,0)
(0,0,0)
(0,0,0)
(0,0,0)
(0,0,0)
(0,0,0)
(0,0,0)
(0,0,0)
(0,0,0)
(0,0,0)
(0,0,0)
(0,0,0)
(0,0,0)
(0,0,0)
(0,0,0)
(0,0,0)
(0,0,0)
(0,0,0)
(0,0,0)
(0,0,0)
(0,0,0)
(0,0,0)
(0,0,0)
(0,0,0)
(0,0,0)
(0,0,0)
(0,0,0)
(0,0,0)
(0,0,0)
(0,0,0)
(0,0,0)
(0,0,0)
(0,0,0)
(0,0,0)
(0,0,0)
(0,0,0)
(0,0,0)
(0,0,0)
(0,0,0)
(0,0,0)
(0,0,0)
(0,0,0)
(0,0,0)
(0,0,0)
(0,0,0)
(0,0,0)
(0,0,0)
(0,0,0)
(0,0,0)
(0,0,0)
(0,0,0)
(0,0,0)
(0,0,0)
(0,0,0)
(0,0,0)
(0,0,0)
(0,0,0)
(0,0,0)
(0,0,0)
(0,0,0)
(0,0,0)
(0,0,0)
(0,0,0)
(0,0,0)
(0,0,0)
(0,0,0)
(0,0,0)
(0,0,0)
(0,0,0)
(0,0,0)
(0,0,0)
(0,0,0)
(0,0,0)
(0,0,0)
(0,0,0)
(0,0,0)
(0,0,0)
(0,0,0)
(0,0,0)
(0,0,0)
(0,0,0)
(0,0,0)
(0,0,0)
(0,0,0)
(0,0,0)
(0,0,0)
(0,0,0)
(0,0,0)
(0,0,0)
(0,0,0)
(0,0,0)
(0,0,0)
(0,0,0)
(0,0,0)
(0,0,0)
(0,0,0)
(0,0,0)
(0,0,0)
(0,0,0)
(0,0,0)
(0,0,0)
(0,0,0)
(0,0,0)
(0,0,0)
(0,0,0)
(0,0,0)
(0,0,0)
(0,0,0)
(0,0,0)
(0,0,0)
(-212796.312089326,113206.699262433,99589.6128268928)
(-225073.678811003,108550.565268234,216112.726369662)
(-253477.424124183,98876.2643679243,370713.886125922)
(-307040.408771146,83624.2087581113,594130.086138956)
(-403669.374056971,63036.7162895387,934762.743906393)
(-577153.749026511,39347.582797055,1472568.91013584)
(-891280.063642657,17809.0172466784,2346039.95653184)
(-1458984.47258958,4578.76475670658,3800445.66436471)
(-2406286.79113365,156.042166184616,6206576.41333219)
(-3352635.19345116,-251.795898412979,9559463.40268175)
(0,0,0)
(0,0,0)
(0,0,0)
(0,0,0)
(0,0,0)
(0,0,0)
(-225048.931260744,243308.121977179,94947.5085459985)
(-237462.695797502,234536.928690237,206423.840921498)
(-266306.588016414,216111.816190182,355494.877115653)
(-321116.632472208,186656.616727575,573579.101618399)
(-420413.348072119,145930.146128083,911099.019851973)
(-598075.225586323,97489.2268273522,1451032.601408)
(-915681.708759636,51645.343435394,2332877.98397891)
(-1481232.25465911,22553.5762616511,3796135.42713306)
(-2421132.26973609,11080.8303970406,6206342.90863833)
(-3359571.26651694,5671.08323345615,9559991.29602335)
(0,0,0)
(0,0,0)
(0,0,0)
(0,0,0)
(0,0,0)
(0,0,0)
(-253116.820970039,410236.455541721,86188.4874054964)
(-265733.959650746,398472.411373917,187986.964372563)
(-295483.720890589,373502.791141995,326079.71031134)
(-353026.738211512,332838.113597922,532924.951652507)
(-458663.752070272,274796.105313239,862722.744537624)
(-647341.50063326,202277.80832011,1405275.66367813)
(-975869.360834709,128799.616053612,2303990.75189462)
(-1536644.19433999,78281.9534916106,3784906.56900464)
(-2456812.10199178,51585.0670862815,6201214.4343072)
(-3375726.25562999,27951.2068214656,9554660.56634917)
(0,0,0)
(0,0,0)
(0,0,0)
(0,0,0)
(0,0,0)
(0,0,0)
(-305405.225925134,641230.305029003,74411.3764378512)
(-318233.310840365,628132.888662238,162984.209989897)
(-349118.189228876,600133.854561687,285471.335799077)
(-410628.437692916,553934.240033216,475003.647056698)
(-526759.199963656,486204.998813775,790353.953519819)
(-736604.847199284,397183.850880081,1332052.75815913)
(-1091211.45569763,298261.309079604,2253802.52083077)
(-1643920.12490394,217459.104629498,3758545.49459681)
(-2522264.09676011,154479.410024769,6177915.24841843)
(-3404291.82300083,83105.7608890623,9527052.51735167)
(0,0,0)
(0,0,0)
(0,0,0)
(0,0,0)
(0,0,0)
(0,0,0)
(-399168.633499608,979149.278755479,61249.6597731324)
(-411939.062354838,966406.323577913,134915.287212294)
(-443413.747379094,939149.024960188,239313.864192889)
(-508251.009924185,894096.073415804,407403.040734486)
(-635212.771467798,827321.792898901,701499.018117161)
(-871258.931008681,736529.843692978,1233411.95631294)
(-1266882.06989775,625220.505478821,2173334.82981147)
(-1807269.17919471,502154.006450968,3695909.10718472)
(-2617392.76379725,360911.400404797,6106869.88060196)
(-3445587.8205571,191286.597580804,9444276.86446732)
(0,0,0)
(0,0,0)
(0,0,0)
(0,0,0)
(0,0,0)
(0,0,0)
(-568410.226221304,1499134.78646275,48424.7185140325)
(-580536.783331244,1487768.18394137,107599.641481815)
(-610967.047638951,1463443.10673744,194272.60734351)
(-675162.780521357,1422838.00780532,340693.453475348)
(-803474.901116504,1360659.60885136,610830.538639396)
(-1044004.05101167,1269062.03740701,1122302.39593704)
(-1440853.65477913,1137885.75656459,2050490.7996304)
(-1956762.3976579,954451.376319824,3554955.82741943)
(-2720456.58213753,698813.104475999,5937510.70548577)
(-3497516.98689778,373046.611803801,9253267.67816054)
(0,0,0)
(0,0,0)
(0,0,0)
(0,0,0)
(0,0,0)
(0,0,0)
(-878978.64003867,2341100.55021901,37012.8762824134)
(-889721.491035568,2331253.10832711,83249.4429322371)
(-917062.16674172,2310040.29662168,153714.419789725)
(-975710.232111646,2273707.05369654,278555.606010153)
(-1094880.73468201,2214788.1572446,519307.792298928)
(-1320890.52643916,2118027.23684603,991233.119299068)
(-1693349.65420661,1955300.963803,1867167.56626727)
(-2162484.0352422,1684603.1993535,3299499.77847579)
(-2873971.15306653,1260403.61765299,5611880.41836532)
(-3582191.39923119,686748.299012979,8880370.13038736)
(0,0,0)
(0,0,0)
(0,0,0)
(0,0,0)
(0,0,0)
(0,0,0)
(-1446980.24198194,3760943.17002598,27137.6221749645)
(-1455565.46315033,3751962.04287399,61994.1507784193)
(-1477608.44872443,3732214.37651911,117428.519605419)
(-1525331.89338756,3696844.56148844,219622.905201072)
(-1623271.24997004,3635161.75999829,422520.552417415)
(-1811166.26896728,3523169.18467253,828544.873558193)
(-2123091.20430638,3310395.57070759,1596541.47095997)
(-2502855.06585615,2908555.14058404,2875444.59558559)
(-3152587.3754102,2250108.01507183,5038327.57357694)
(-3744060.77137723,1275397.82451149,8193738.81945563)
(0,0,0)
(0,0,0)
(0,0,0)
(0,0,0)
(0,0,0)
(0,0,0)
(-2398080.31820681,6140839.53662158,18183.9516112101)
(-2403940.35284784,6131834.54694528,42251.8003877744)
(-2418933.65921773,6111269.3112661,82130.5248585122)
(-2451067.70133115,6072080.24888884,157962.538789257)
(-2515769.08090977,5998357.53295807,310535.846739257)
(-2637364.2072337,5855248.36110509,615820.877540384)
(-2841554.02742604,5572959.03732469,1194811.43834932)
(-3144868.56580709,5031167.49258718,2217067.65215326)
(-3666520.73216666,4070135.72108596,4063560.67830579)
(-4026435.76242554,2447141.63208549,6918252.63315734)
(0,0,0)
(0,0,0)
(0,0,0)
(0,0,0)
(0,0,0)
(0,0,0)
(-3348886.62209515,9480469.85604023,9256.30267648849)
(-3351810.61121284,9471119.34236382,21782.1184707703)
(-3359265.36280253,9449222.71733636,43094.0752030312)
(-3375067.9040923,9405953.92803667,84288.3001475169)
(-3406396.54589576,9321598.74991931,167443.629082036)
(-3464946.71226318,9154113.45218349,333525.250266804)
(-3567133.14410628,8820553.43947284,653063.992224934)
(-3739280.14460747,8167419.17036235,1256092.45905722)
(-4025521.72487199,6911225.97791033,2440523.92710484)
(-4054056.42883365,4470769.0603614,4470952.92766259)
(0,0,0)
(0,0,0)
(0,0,0)
(0,0,0)
(0,0,0)
(0,0,0)
(0,0,0)
(0,0,0)
(0,0,0)
(0,0,0)
(0,0,0)
(0,0,0)
(0,0,0)
(0,0,0)
(0,0,0)
(0,0,0)
(0,0,0)
(0,0,0)
(0,0,0)
(0,0,0)
(0,0,0)
(0,0,0)
(0,0,0)
(0,0,0)
(0,0,0)
(0,0,0)
(0,0,0)
(0,0,0)
(0,0,0)
(0,0,0)
(0,0,0)
(0,0,0)
(0,0,0)
(0,0,0)
(0,0,0)
(0,0,0)
(0,0,0)
(0,0,0)
(0,0,0)
(0,0,0)
(0,0,0)
(0,0,0)
(0,0,0)
(0,0,0)
(0,0,0)
(0,0,0)
(0,0,0)
(0,0,0)
(0,0,0)
(0,0,0)
(0,0,0)
(0,0,0)
(0,0,0)
(0,0,0)
(0,0,0)
(0,0,0)
(0,0,0)
(0,0,0)
(0,0,0)
(0,0,0)
(0,0,0)
(0,0,0)
(0,0,0)
(0,0,0)
(0,0,0)
(0,0,0)
(0,0,0)
(0,0,0)
(0,0,0)
(0,0,0)
(0,0,0)
(0,0,0)
(0,0,0)
(0,0,0)
(0,0,0)
(0,0,0)
(0,0,0)
(0,0,0)
(0,0,0)
(0,0,0)
(0,0,0)
(0,0,0)
(0,0,0)
(0,0,0)
(0,0,0)
(0,0,0)
(0,0,0)
(0,0,0)
(0,0,0)
(0,0,0)
(0,0,0)
(0,0,0)
(0,0,0)
(0,0,0)
(0,0,0)
(0,0,0)
(0,0,0)
(0,0,0)
(0,0,0)
(0,0,0)
(0,0,0)
(0,0,0)
(31441326.4538143,100941.436627888,87290.139177869)
(31420743.3199143,96172.0426461937,187655.439515836)
(31373519.7382788,86036.0359821028,316976.582840137)
(31285435.50912,69513.1611011486,497341.845557256)
(31128621.4767346,46236.9139339603,761168.422541165)
(30849649.3821621,18395.173994999,1158324.4590669)
(30337837.4673215,-6594.71341845144,1778155.98323057)
(29326283.2052914,-17671.9530975981,2852914.60015663)
(27043776.568418,-14682.7000909811,5259888.28240528)
(20845110.4180438,-7183.09472769743,12911680.1073474)
(0,0,0)
(0,0,0)
(0,0,0)
(0,0,0)
(0,0,0)
(0,0,0)
(31420453.86669,215232.161752875,82560.8186336872)
(31399807.0542161,206253.657162125,177563.795813625)
(31352171.5646836,186914.732660778,300561.288144314)
(31262440.4431629,154715.207437206,474156.507882571)
(31101336.6660923,107632.524406298,733365.22495527)
(30814512.4984889,48180.3427606073,1133346.67382381)
(30294832.4707907,-8575.25957417668,1767167.38213861)
(29287475.4059087,-32891.0250422666,2856033.13522483)
(27019655.5399307,-24628.1441775113,5267545.11135389)
(20834561.1775429,-10503.7226933332,12919087.636969)
(0,0,0)
(0,0,0)
(0,0,0)
(0,0,0)
(0,0,0)
(0,0,0)
(31372993.2777964,357899.226466219,73577.1782295993)
(31352305.8871986,345923.578945175,158221.751306592)
(31303760.729119,319801.88285196,268444.492815163)
(31210133.618565,275162.16479865,427191.52038665)
(31037860.1717274,206650.326428353,674004.136276339)
(30727518.9667579,112991.115039444,1076687.23831571)
(30178079.9886182,13465.7578105201,1743051.21318753)
(29180325.6103278,-28973.7825274282,2864518.50771433)
(26957355.524691,-13833.8602600041,5281910.93882341)
(20808733.098819,-578.891476730108,12929881.0948672)
(0,0,0)
(0,0,0)
(0,0,0)
(0,0,0)
(0,0,0)
(0,0,0)
(31285825.9937542,547418.786594997,61603.5619012662)
(31265187.0456618,534363.907501406,132097.218552289)
(31215500.1857565,505744.198464941,223890.86966329)
(31115749.360937,456217.28650671,358812.291034689)
(30922869.7825694,377693.028106855,580494.948532518)
(30559350.1752229,262494.969368407,977390.413490738)
(29918505.1935931,122570.873003114,1700922.99071685)
(28936287.0563176,54110.04373433,2879986.32494292)
(26831348.5306247,59395.7116637964,5295498.46734375)
(20760326.118865,41859.9632364811,12930796.0124741)
(0,0,0)
(0,0,0)
(0,0,0)
(0,0,0)
(0,0,0)
(0,0,0)
(31132283.7609831,809808.740323329,48511.9934983637)
(31112137.7576228,797692.465177891,103460.957553598)
(31062231.6642253,771458.465525646,174455.620597969)
(30957265.8888827,727069.738673336,280440.611333898)
(30740834.8130935,658977.135401478,465463.26118739)
(30297591.5558633,563718.710613154,837743.374780074)
(29451766.3631087,451209.531760356,1632810.62472588)
(28483731.5274372,352656.163972551,2885618.13956511)
(26633784.3028989,257880.600188945,5278310.52605313)
(20688294.295064,139372.115796685,12889270.5995813)
(0,0,0)
(0,0,0)
(0,0,0)
(0,0,0)
(0,0,0)
(0,0,0)
(30859090.7010681,1188321.00385655,36341.150886835)
(30840325.1269914,1178331.46484119,77194.5826102739)
(30792818.6244326,1157139.96138365,130081.756390141)
(30689790.5371001,1122136.67058501,212415.848566423)
(30470855.944471,1069098.56251735,370317.917572463)
(30014906.8070855,992044.730871629,725435.380926189)
(29158325.6546115,885311.842782783,1534508.10222251)
(28232960.1819087,748681.786537681,2791114.24180021)
(26465534.6732629,545276.316392538,5160081.6119056)
(20605763.4243861,288349.092035972,12750178.5660918)
(0,0,0)
(0,0,0)
(0,0,0)
(0,0,0)
(0,0,0)
(0,0,0)
(30352509.1625913,1772862.40989433,26325.1330417177)
(30336175.1549846,1765151.45728539,55962.8362867236)
(30294078.5163499,1749244.54705138,95071.9092367667)
(30200562.9150661,1723899.26026285,159390.514090567)
(29996440.8092935,1686218.34452164,293303.529820166)
(29560431.7497793,1627604.58998986,618775.73619292)
(28729652.3386917,1525456.81859867,1397983.10918815)
(27894558.6877542,1344123.97334021,2587852.54109872)
(26216519.9171743,981684.867284526,4903307.26167536)
(20465017.0776014,524793.789203878,12462008.4293843)
(0,0,0)
(0,0,0)
(0,0,0)
(0,0,0)
(0,0,0)
(0,0,0)
(29340106.1918146,2809537.48752324,18592.8302840667)
(29327214.434323,2803290.54641763,40028.185387888)
(29293673.0435435,2790590.50798905,69755.0738916766)
(29218105.3148285,2770866.53154311,121704.936104799)
(29049924.7846929,2742431.84696487,234649.740708017)
(28680052.758665,2696764.87871336,516624.766061653)
(27952893.8556952,2591747.89780928,1216702.96855884)
(27408400.116732,2266387.78398569,2225538.31703457)
(25714378.2124814,1736061.71838585,4446550.21975103)
(20139329.0074173,992943.508113623,11937365.0637562)
(0,0,0)
(0,0,0)
(0,0,0)
(0,0,0)
(0,0,0)
(0,0,0)
(27051799.0611442,5189666.89843612,12345.5514455389)
(27043115.151205,5183598.48482624,27336.4506935219)
(27020699.7114973,5170555.14368209,50092.7859948513)
(26971231.9703542,5147717.43376073,93296.5538012645)
(26865978.5136349,5107370.60608619,188964.541844694)
(26651795.1893083,5027308.09337085,411616.272354546)
(26265742.1633532,4847026.39812243,891395.922971569)
(25723559.5609161,4436455.98008253,1695253.94186101)
(24192822.9926012,3710916.90188022,3703409.3753081)
(19148483.7550245,2419402.37867867,10944385.3290024)
(0,0,0)
(0,0,0)
(0,0,0)
(0,0,0)
(0,0,0)
(0,0,0)
(20847998.2403724,12828817.359963,6319.01771495758)
(20843705.8605055,12822397.9562401,14357.4162922077)
(20832716.6827961,12807927.7092766,27357.1468084226)
(20808939.676547,12780443.7609669,52977.5806724183)
(20760007.7169662,12727414.7451194,108883.520486643)
(20663773.1714712,12618509.514763,231316.557069511)
(20485585.3732473,12387137.8267153,480840.952832453)
(20144409.2227554,11906215.927803,969745.979458507)
(19149241.8697478,10936399.1546207,2411854.47380763)
(15570089.0101722,8524621.94069184,8524843.81449793)
(0,0,0)
(0,0,0)
(0,0,0)
(0,0,0)
(0,0,0)
(0,0,0)
(0,0,0)
(0,0,0)
(0,0,0)
(0,0,0)
(0,0,0)
(0,0,0)
(0,0,0)
(0,0,0)
(0,0,0)
(0,0,0)
(0,0,0)
(0,0,0)
(0,0,0)
(0,0,0)
(0,0,0)
(0,0,0)
(0,0,0)
(0,0,0)
(0,0,0)
(0,0,0)
(0,0,0)
(0,0,0)
(0,0,0)
(0,0,0)
(0,0,0)
(0,0,0)
(0,0,0)
(0,0,0)
(0,0,0)
(0,0,0)
(0,0,0)
(0,0,0)
(0,0,0)
(0,0,0)
(0,0,0)
(0,0,0)
(0,0,0)
(0,0,0)
(0,0,0)
(0,0,0)
(0,0,0)
(0,0,0)
(0,0,0)
(0,0,0)
(0,0,0)
(0,0,0)
(0,0,0)
(0,0,0)
(0,0,0)
(0,0,0)
(0,0,0)
(0,0,0)
(0,0,0)
(0,0,0)
(0,0,0)
(0,0,0)
(0,0,0)
(0,0,0)
(0,0,0)
(0,0,0)
(0,0,0)
(0,0,0)
(0,0,0)
(0,0,0)
(0,0,0)
(0,0,0)
(0,0,0)
(0,0,0)
(0,0,0)
(0,0,0)
(0,0,0)
(0,0,0)
(0,0,0)
(0,0,0)
(0,0,0)
(0,0,0)
(0,0,0)
(0,0,0)
(0,0,0)
(0,0,0)
(0,0,0)
(0,0,0)
(0,0,0)
(0,0,0)
(0,0,0)
(0,0,0)
(0,0,0)
(0,0,0)
(0,0,0)
(0,0,0)
(0,0,0)
(0,0,0)
(0,0,0)
(0,0,0)
(0,0,0)
(0,0,0)
(-547762.45239951,79959.2881458964,66775.2763585304)
(-570480.043641713,75152.9000162349,140491.398188845)
(-621777.236066994,64596.4545922809,228837.57623297)
(-714935.767341317,46417.9052520891,340436.605732783)
(-874245.852972487,18848.9345999116,482100.659130522)
(-1140114.16436728,-16810.5679817065,646320.431932253)
(-1574961.22137116,-49616.3015957092,766381.080511237)
(-2263278.91721511,-56479.8970409379,570068.758349257)
(-3250240.99708854,-38815.4004113217,-939452.617442222)
(-3984191.81670295,-17748.1091939234,-7934756.61521089)
(0,0,0)
(0,0,0)
(0,0,0)
(0,0,0)
(0,0,0)
(0,0,0)
(-571697.601302306,167728.929186416,62027.4852423688)
(-594027.067019621,158664.747865777,129995.416919075)
(-644763.291771355,138400.243049209,210772.143207724)
(-737984.213787243,102295.009436207,312965.354264327)
(-899729.400956016,44056.7075057138,446469.306697387)
(-1172838.85113735,-38874.2655978596,613530.012230425)
(-1617889.15035019,-125349.631930859,759630.621997065)
(-2299553.7639753,-140067.316941089,587892.870071851)
(-3268423.58552286,-86971.3576186767,-918226.388976545)
(-3990614.82179545,-36363.5189574519,-7916789.32158403)
(0,0,0)
(0,0,0)
(0,0,0)
(0,0,0)
(0,0,0)
(0,0,0)
(-625210.389256536,270607.085590749,52971.1689392231)
(-646767.280391133,258616.660153907,109738.082531437)
(-696538.397933096,231318.263061925,174764.847861473)
(-790596.886260047,180570.670661544,254865.349751738)
(-960717.344252587,91512.5717795482,363632.659748472)
(-1261974.15325392,-55258.5164432101,527155.688896268)
(-1761474.93213496,-246110.954048227,745117.590057377)
(-2425206.79475404,-272980.488388991,641208.824877685)
(-3323543.27110146,-139830.136799315,-867387.941858567)
(-4008281.27601787,-48968.2872203622,-7880123.14046817)
(0,0,0)
(0,0,0)
(0,0,0)
(0,0,0)
(0,0,0)
(0,0,0)
(-720736.59191946,393788.31063953,41027.0189154988)
(-741148.107117779,381170.906006195,82453.5841333721)
(-789459.817308922,352284.472560129,124093.035991234)
(-885414.655512297,297548.034821927,165925.346570772)
(-1074528.22444433,195509.145225121,216972.438429537)
(-1458400.71041551,644.062010584022,336466.40390479)
(-2207836.98499284,-344171.380250383,718514.666983451)
(-2836778.14178183,-398418.516802293,774663.55178682)
(-3461806.28111021,-138141.414085012,-776224.700902026)
(-4046255.94442635,-30137.2669010887,-7830827.99963934)
(0,0,0)
(0,0,0)
(0,0,0)
(0,0,0)
(0,0,0)
(0,0,0)
(-881234.558685178,536535.214748113,28417.0738502944)
(-899954.699914074,525745.407256826,53580.6884271808)
(-945561.145718462,501864.026490548,69439.6027310525)
(-1041523.76708953,459416.327903678,64006.6239120914)
(-1253066.92460791,388853.99913094,22209.1659982683)
(-1794703.44100903,280948.218411472,-8154.33523968882)
(-3565264.04983074,157755.960857227,664594.394882639)
(-4229621.78445663,101888.933648641,1035285.91461618)
(-3733161.03350714,89635.7466434021,-667900.251415536)
(-4108557.00712627,56841.3654878107,-7800381.92332357)
(0,0,0)
(0,0,0)
(0,0,0)
(0,0,0)
(0,0,0)
(0,0,0)
(-1145872.59942322,681506.750540258,17637.4229897117)
(-1162253.91335788,673894.961956364,29712.5669300776)
(-1203102.43120931,658130.336051576,27012.9713015344)
(-1292330.02941666,632699.559247784,-6504.0352352223)
(-1498015.86906621,594500.449361527,-85633.0136380197)
(-2038393.31791438,537456.07980351,-131195.091739544)
(-3723067.53021932,456580.271488898,609019.440750226)
(-4332067.52454101,410234.771170827,1023346.96796831)
(-3859646.5862677,296204.793735386,-700395.161302465)
(-4170775.11913523,147566.228356602,-7856935.82235932)
(0,0,0)
(0,0,0)
(0,0,0)
(0,0,0)
(0,0,0)
(0,0,0)
(-1578402.75570638,760013.155828805,10051.1712996636)
(-1591874.75839184,755738.623150525,13903.0817725658)
(-1626214.11381623,748432.933532777,1538.77274809719)
(-1703987.66481262,741139.799697857,-44705.2295326425)
(-1892866.53810325,739425.080529209,-142676.85501297)
(-2422128.36726593,747015.921180141,-212030.921053807)
(-4179483.56611991,748559.558749454,562771.354787841)
(-4742119.6533622,857821.676904273,909508.4484613)
(-4050649.32768399,479382.957952492,-848854.812606977)
(-4273338.79280203,199001.282753324,-8004288.3383097)
(0,0,0)
(0,0,0)
(0,0,0)
(0,0,0)
(0,0,0)
(0,0,0)
(-2268635.72300607,520633.012946751,5767.71599320571)
(-2278794.15062255,518610.46626105,6550.11611885472)
(-2305007.00131845,517087.030120537,-5778.2773163383)
(-2366031.12572516,523579.655932794,-46436.0347070612)
(-2522381.6705469,558096.86249974,-135155.703147187)
(-3008059.37608254,668145.888018102,-210527.876947012)
(-4927785.14365783,904276.34328862,672079.996157483)
(-4016506.3865699,581246.927888589,531206.906765691)
(-4202526.30945853,214242.544840558,-1129102.49989183)
(-4431942.38151189,1936.8158615729,-8203120.98578029)
(0,0,0)
(0,0,0)
(0,0,0)
(0,0,0)
(0,0,0)
(0,0,0)
(-3258728.64227907,-1014913.61935605,3719.99401664592)
(-3265323.53868924,-1016577.62316699,4992.43162948066)
(-3282121.51083154,-1018161.05817343,707.400542869487)
(-3319678.8510819,-1015233.05754446,-11923.4062531396)
(-3405820.42394201,-999220.249495347,-25161.6983905535)
(-3611828.90450818,-961340.534807175,25594.4765418453)
(-4062071.30772783,-933760.836106312,349090.785308388)
(-4209440.54476474,-1143266.78637018,164250.263538534)
(-4596502.46574385,-1333121.50302151,-1341414.57196367)
(-4669031.13612361,-1159255.87019507,-8205061.33646827)
(0,0,0)
(0,0,0)
(0,0,0)
(0,0,0)
(0,0,0)
(0,0,0)
(-3990694.7300635,-8020619.65511147,2044.66448190983)
(-3993881.92694403,-8022694.79449506,3395.28155006779)
(-4001919.88091564,-8026119.12180004,3635.56717906429)
(-4019298.1061644,-8029781.79728075,4067.74791730392)
(-4056322.73137582,-8033845.12035154,12668.7254061986)
(-4133926.9834301,-8046495.92176824,53169.9255592131)
(-4277272.15492544,-8099692.59767731,139604.873593559)
(-4436676.78834059,-8239345.44321006,-25584.8001799803)
(-4670447.01537881,-8213777.10729338,-1167594.65249085)
(-4507093.92036494,-7046106.9131304,-7045915.0207277)
(0,0,0)
(0,0,0)
(0,0,0)
(0,0,0)
(0,0,0)
(0,0,0)
(0,0,0)
(0,0,0)
(0,0,0)
(0,0,0)
(0,0,0)
(0,0,0)
(0,0,0)
(0,0,0)
(0,0,0)
(0,0,0)
(0,0,0)
(0,0,0)
(0,0,0)
(0,0,0)
(0,0,0)
(0,0,0)
(0,0,0)
(0,0,0)
(0,0,0)
(0,0,0)
(0,0,0)
(0,0,0)
(0,0,0)
(0,0,0)
(0,0,0)
(0,0,0)
(0,0,0)
(0,0,0)
(0,0,0)
(0,0,0)
(0,0,0)
(0,0,0)
(0,0,0)
(0,0,0)
(0,0,0)
(0,0,0)
(0,0,0)
(0,0,0)
(0,0,0)
(0,0,0)
(0,0,0)
(0,0,0)
(0,0,0)
(0,0,0)
(0,0,0)
(0,0,0)
(0,0,0)
(0,0,0)
(0,0,0)
(0,0,0)
(0,0,0)
(0,0,0)
(0,0,0)
(0,0,0)
(0,0,0)
(0,0,0)
(0,0,0)
(0,0,0)
(0,0,0)
(0,0,0)
(0,0,0)
(0,0,0)
(0,0,0)
(0,0,0)
(0,0,0)
(0,0,0)
(0,0,0)
(0,0,0)
(0,0,0)
(0,0,0)
(0,0,0)
(0,0,0)
(0,0,0)
(0,0,0)
(0,0,0)
(0,0,0)
(0,0,0)
(0,0,0)
(0,0,0)
(0,0,0)
(0,0,0)
(0,0,0)
(0,0,0)
(0,0,0)
(0,0,0)
(0,0,0)
(0,0,0)
(0,0,0)
(0,0,0)
(0,0,0)
(0,0,0)
(0,0,0)
(0,0,0)
(0,0,0)
(0,0,0)
(0,0,0)
(-647923.759010428,55982.7625373286,44178.544073589)
(-667207.884743067,51552.0053103509,89354.3798645918)
(-709640.753894361,41504.6446521466,135713.253039814)
(-783490.238611522,23258.9612700805,181008.763039939)
(-902558.862967739,-6706.56483882004,216028.337874011)
(-1085678.98529989,-49569.256538758,211162.415345386)
(-1348965.81254177,-92562.4384329123,77729.4449489082)
(-1675447.84284726,-92766.3835081139,-417335.245910837)
(-1936547.88924929,-57016.362676237,-1674011.99107385)
(-1682734.24720974,-24179.2168602471,-3951290.34370681)
(0,0,0)
(0,0,0)
(0,0,0)
(0,0,0)
(0,0,0)
(0,0,0)
(-669747.707691788,114227.51629561,39805.3526312007)
(-687929.872566303,105891.583758428,79368.5797298042)
(-727953.477473671,86531.2375891452,117532.172495121)
(-797846.367908852,49548.2113898324,151105.076496978)
(-911498.670470756,-17032.2970058904,173200.078178787)
(-1089360.88319154,-128072.402102997,168225.255797219)
(-1350921.3581213,-268967.67820442,77662.7033398325)
(-1667487.90202068,-265757.206452514,-381412.335670388)
(-1923704.72380024,-142143.223473573,-1641004.33659567)
(-1674850.42385132,-54064.5025888129,-3926883.44881125)
(0,0,0)
(0,0,0)
(0,0,0)
(0,0,0)
(0,0,0)
(0,0,0)
(-717479.496604941,175003.346327342,31493.2773166724)
(-733558.331698411,164136.297031128,60039.6153512485)
(-768865.392037717,138251.769153537,80646.0778914769)
(-830647.282437375,85591.1151941152,84653.5702645243)
(-932939.310754263,-22412.6282737585,62255.868034066)
(-1103477.68447882,-251758.252044563,27445.249200537)
(-1391607.82920174,-692464.96063753,81075.4287004247)
(-1667811.60463718,-684509.874446419,-257567.093422533)
(-1892490.66901149,-278069.889004543,-1552693.02998154)
(-1655582.01583866,-86918.9634803925,-3872537.82926917)
(0,0,0)
(0,0,0)
(0,0,0)
(0,0,0)
(0,0,0)
(0,0,0)
(-799629.971484001,233223.304761188,20673.4211306942)
(-812765.736124424,222263.579188296,34163.7679801713)
(-841176.720234345,196054.294262217,28078.1457969147)
(-889844.129803188,141305.744560124,-23207.0092782029)
(-970030.254512853,16855.4149634654,-166973.022446899)
(-1128283.42390437,-335727.6298724,-413120.931130208)
(-1701168.1828636,-1701528.10075986,89273.4068628917)
(-1790011.66383562,-1791180.46467545,149177.519145712)
(-1820007.68754813,-409431.467168556,-1361259.49625236)
(-1616731.86671385,-92390.4885130081,-3785312.04893225)
(0,0,0)
(0,0,0)
(0,0,0)
(0,0,0)
(0,0,0)
(0,0,0)
(-929587.577047694,271838.836207041,9737.48691666168)
(-939275.697735304,263354.495986713,7967.56793947329)
(-959137.371749455,244201.49858958,-26603.4103568968)
(-987756.977736537,208484.588109443,-147549.043259209)
(-1008079.26653585,143783.495002807,-519464.781370612)
(-908290.166816683,37170.991424099,-1778776.67685947)
(-3.17959693656157e-05,-1.06360155955604e-05,2.22840450222745e-05)