/*--------------------------------*- C++ -*----------------------------------*\
| =========                 |                                                 |
| \\      /  F ield         | foam-extend: Open Source CFD                    |
|  \\    /   O peration     | Version:     4.0                                |
|   \\  /    A nd           | Web:         http://www.foam-extend.org         |
|    \\/     M anipulation  |                                                 |
\*---------------------------------------------------------------------------*/
FoamFile
{
    version 2.0;
    format ascii;
    class volVectorField;
    location "2257";
    object      E;
}
// * * * * * * * * * * * * * * * * * * * * * * * * * * * * * * * * * * * * * //

dimensions      [0 1 -1 0 0 0 0];

internalField   nonuniform List<vector>
4096
(
(0,0,0)
(0,0,0)
(0,0,0)
(0,0,0)
(0,0,0)
(0,0,0)
(0,0,0)
(0,0,0)
(0,0,0)
(0,0,0)
(0,0,0)
(0,0,0)
(0,0,0)
(0,0,0)
(0,0,0)
(0,0,0)
(0,0,0)
(0,0,0)
(0,0,0)
(0,0,0)
(0,0,0)
(0,0,0)
(0,0,0)
(0,0,0)
(0,0,0)
(0,0,0)
(0,0,0)
(0,0,0)
(0,0,0)
(0,0,0)
(0,0,0)
(0,0,0)
(0,0,0)
(0,0,0)
(0,0,0)
(0,0,0)
(0,0,0)
(0,0,0)
(0,0,0)
(0,0,0)
(0,0,0)
(0,0,0)
(0,0,0)
(0,0,0)
(0,0,0)
(0,0,0)
(0,0,0)
(0,0,0)
(0,0,0)
(0,0,0)
(0,0,0)
(0,0,0)
(0,0,0)
(0,0,0)
(0,0,0)
(0,0,0)
(0,0,0)
(0,0,0)
(0,0,0)
(0,0,0)
(0,0,0)
(0,0,0)
(0,0,0)
(0,0,0)
(0,0,0)
(0,0,0)
(0,0,0)
(0,0,0)
(0,0,0)
(0,0,0)
(0,0,0)
(0,0,0)
(0,0,0)
(0,0,0)
(0,0,0)
(0,0,0)
(0,0,0)
(0,0,0)
(0,0,0)
(0,0,0)
(0,0,0)
(0,0,0)
(0,0,0)
(0,0,0)
(0,0,0)
(0,0,0)
(0,0,0)
(0,0,0)
(0,0,0)
(0,0,0)
(0,0,0)
(0,0,0)
(0,0,0)
(0,0,0)
(0,0,0)
(0,0,0)
(0,0,0)
(0,0,0)
(0,0,0)
(0,0,0)
(0,0,0)
(0,0,0)
(0,0,0)
(0,0,0)
(0,0,0)
(0,0,0)
(0,0,0)
(0,0,0)
(0,0,0)
(0,0,0)
(0,0,0)
(0,0,0)
(0,0,0)
(0,0,0)
(0,0,0)
(0,0,0)
(0,0,0)
(0,0,0)
(0,0,0)
(0,0,0)
(0,0,0)
(0,0,0)
(0,0,0)
(0,0,0)
(0,0,0)
(0,0,0)
(0,0,0)
(0,0,0)
(0,0,0)
(0,0,0)
(0,0,0)
(0,0,0)
(0,0,0)
(0,0,0)
(0,0,0)
(0,0,0)
(0,0,0)
(0,0,0)
(0,0,0)
(0,0,0)
(0,0,0)
(0,0,0)
(0,0,0)
(0,0,0)
(0,0,0)
(0,0,0)
(0,0,0)
(0,0,0)
(0,0,0)
(0,0,0)
(0,0,0)
(0,0,0)
(0,0,0)
(0,0,0)
(0,0,0)
(0,0,0)
(0,0,0)
(0,0,0)
(0,0,0)
(0,0,0)
(0,0,0)
(0,0,0)
(0,0,0)
(0,0,0)
(0,0,0)
(0,0,0)
(0,0,0)
(0,0,0)
(0,0,0)
(0,0,0)
(0,0,0)
(0,0,0)
(0,0,0)
(0,0,0)
(0,0,0)
(0,0,0)
(0,0,0)
(0,0,0)
(0,0,0)
(0,0,0)
(0,0,0)
(0,0,0)
(0,0,0)
(0,0,0)
(0,0,0)
(0,0,0)
(0,0,0)
(0,0,0)
(0,0,0)
(0,0,0)
(0,0,0)
(0,0,0)
(0,0,0)
(0,0,0)
(0,0,0)
(0,0,0)
(0,0,0)
(0,0,0)
(0,0,0)
(0,0,0)
(0,0,0)
(0,0,0)
(0,0,0)
(0,0,0)
(0,0,0)
(0,0,0)
(0,0,0)
(0,0,0)
(0,0,0)
(0,0,0)
(0,0,0)
(0,0,0)
(0,0,0)
(0,0,0)
(0,0,0)
(0,0,0)
(0,0,0)
(0,0,0)
(0,0,0)
(0,0,0)
(0,0,0)
(0,0,0)
(0,0,0)
(0,0,0)
(0,0,0)
(0,0,0)
(0,0,0)
(0,0,0)
(0,0,0)
(0,0,0)
(0,0,0)
(0,0,0)
(0,0,0)
(0,0,0)
(0,0,0)
(0,0,0)
(0,0,0)
(0,0,0)
(0,0,0)
(0,0,0)
(0,0,0)
(0,0,0)
(0,0,0)
(0,0,0)
(0,0,0)
(0,0,0)
(0,0,0)
(0,0,0)
(0,0,0)
(0,0,0)
(0,0,0)
(0,0,0)
(0,0,0)
(0,0,0)
(0,0,0)
(0,0,0)
(0,0,0)
(0,0,0)
(0,0,0)
(0,0,0)
(0,0,0)
(0,0,0)
(0,0,0)
(0,0,0)
(0,0,0)
(0,0,0)
(0,0,0)
(0,0,0)
(0,0,0)
(0,0,0)
(0,0,0)
(0,0,0)
(0,0,0)
(0,0,0)
(0,0,0)
(0,0,0)
(0,0,0)
(0,0,0)
(0,0,0)
(0,0,0)
(0,0,0)
(0,0,0)
(0,0,0)
(0,0,0)
(0,0,0)
(0,0,0)
(0,0,0)
(0,0,0)
(0,0,0)
(0,0,0)
(0,0,0)
(0,0,0)
(0,0,0)
(0,0,0)
(0,0,0)
(0,0,0)
(0,0,0)
(0,0,0)
(0,0,0)
(0,0,0)
(0,0,0)
(0,0,0)
(0,0,0)
(0,0,0)
(0,0,0)
(0,0,0)
(0,0,0)
(0,0,0)
(0,0,0)
(0,0,0)
(0,0,0)
(0,0,0)
(0,0,0)
(0,0,0)
(0,0,0)
(0,0,0)
(0,0,0)
(0,0,0)
(0,0,0)
(0,0,0)
(0,0,0)
(0,0,0)
(0,0,0)
(0,0,0)
(0,0,0)
(0,0,0)
(0,0,0)
(0,0,0)
(0,0,0)
(0,0,0)
(0,0,0)
(0,0,0)
(0,0,0)
(0,0,0)
(0,0,0)
(0,0,0)
(0,0,0)
(0,0,0)
(0,0,0)
(0,0,0)
(0,0,0)
(0,0,0)
(0,0,0)
(0,0,0)
(0,0,0)
(0,0,0)
(0,0,0)
(0,0,0)
(0,0,0)
(0,0,0)
(0,0,0)
(0,0,0)
(0,0,0)
(0,0,0)
(0,0,0)
(0,0,0)
(0,0,0)
(0,0,0)
(0,0,0)
(0,0,0)
(0,0,0)
(0,0,0)
(0,0,0)
(0,0,0)
(0,0,0)
(0,0,0)
(0,0,0)
(0,0,0)
(0,0,0)
(0,0,0)
(0,0,0)
(0,0,0)
(0,0,0)
(0,0,0)
(0,0,0)
(0,0,0)
(0,0,0)
(0,0,0)
(0,0,0)
(0,0,0)
(0,0,0)
(0,0,0)
(0,0,0)
(0,0,0)
(0,0,0)
(0,0,0)
(0,0,0)
(0,0,0)
(0,0,0)
(0,0,0)
(0,0,0)
(0,0,0)
(0,0,0)
(0,0,0)
(0,0,0)
(0,0,0)
(0,0,0)
(0,0,0)
(0,0,0)
(0,0,0)
(0,0,0)
(0,0,0)
(0,0,0)
(0,0,0)
(0,0,0)
(0,0,0)
(0,0,0)
(0,0,0)
(0,0,0)
(0,0,0)
(0,0,0)
(0,0,0)
(0,0,0)
(0,0,0)
(0,0,0)
(0,0,0)
(0,0,0)
(0,0,0)
(0,0,0)
(0,0,0)
(0,0,0)
(0,0,0)
(0,0,0)
(0,0,0)
(0,0,0)
(0,0,0)
(0,0,0)
(0,0,0)
(0,0,0)
(0,0,0)
(0,0,0)
(0,0,0)
(0,0,0)
(0,0,0)
(0,0,0)
(0,0,0)
(0,0,0)
(0,0,0)
(0,0,0)
(0,0,0)
(0,0,0)
(0,0,0)
(0,0,0)
(0,0,0)
(0,0,0)
(0,0,0)
(0,0,0)
(0,0,0)
(0,0,0)
(0,0,0)
(0,0,0)
(0,0,0)
(0,0,0)
(0,0,0)
(0,0,0)
(0,0,0)
(0,0,0)
(0,0,0)
(0,0,0)
(0,0,0)
(0,0,0)
(0,0,0)
(0,0,0)
(0,0,0)
(0,0,0)
(0,0,0)
(0,0,0)
(0,0,0)
(0,0,0)
(0,0,0)
(0,0,0)
(0,0,0)
(0,0,0)
(0,0,0)
(0,0,0)
(0,0,0)
(0,0,0)
(0,0,0)
(0,0,0)
(0,0,0)
(0,0,0)
(0,0,0)
(0,0,0)
(0,0,0)
(0,0,0)
(0,0,0)
(0,0,0)
(0,0,0)
(0,0,0)
(0,0,0)
(0,0,0)
(0,0,0)
(0,0,0)
(0,0,0)
(0,0,0)
(0,0,0)
(0,0,0)
(0,0,0)
(0,0,0)
(0,0,0)
(0,0,0)
(0,0,0)
(0,0,0)
(0,0,0)
(0,0,0)
(0,0,0)
(0,0,0)
(0,0,0)
(0,0,0)
(0,0,0)
(0,0,0)
(0,0,0)
(0,0,0)
(0,0,0)
(0,0,0)
(0,0,0)
(0,0,0)
(0,0,0)
(0,0,0)
(0,0,0)
(0,0,0)
(0,0,0)
(0,0,0)
(0,0,0)
(0,0,0)
(0,0,0)
(0,0,0)
(0,0,0)
(0,0,0)
(0,0,0)
(0,0,0)
(0,0,0)
(0,0,0)
(0,0,0)
(0,0,0)
(0,0,0)
(0,0,0)
(0,0,0)
(0,0,0)
(0,0,0)
(0,0,0)
(0,0,0)
(0,0,0)
(0,0,0)
(0,0,0)
(0,0,0)
(0,0,0)
(0,0,0)
(0,0,0)
(0,0,0)
(0,0,0)
(0,0,0)
(0,0,0)
(0,0,0)
(0,0,0)
(0,0,0)
(0,0,0)
(0,0,0)
(0,0,0)
(0,0,0)
(0,0,0)
(0,0,0)
(0,0,0)
(0,0,0)
(0,0,0)
(0,0,0)
(0,0,0)
(0,0,0)
(0,0,0)
(0,0,0)
(0,0,0)
(0,0,0)
(0,0,0)
(0,0,0)
(0,0,0)
(0,0,0)
(0,0,0)
(0,0,0)
(0,0,0)
(0,0,0)
(0,0,0)
(0,0,0)
(0,0,0)
(0,0,0)
(0,0,0)
(0,0,0)
(0,0,0)
(0,0,0)
(0,0,0)
(0,0,0)
(0,0,0)
(0,0,0)
(0,0,0)
(0,0,0)
(0,0,0)
(0,0,0)
(0,0,0)
(0,0,0)
(0,0,0)
(0,0,0)
(0,0,0)
(0,0,0)
(0,0,0)
(0,0,0)
(0,0,0)
(0,0,0)
(0,0,0)
(0,0,0)
(0,0,0)
(0,0,0)
(0,0,0)
(0,0,0)
(0,0,0)
(0,0,0)
(0,0,0)
(0,0,0)
(0,0,0)
(0,0,0)
(0,0,0)
(0,0,0)
(0,0,0)
(0,0,0)
(0,0,0)
(0,0,0)
(0,0,0)
(0,0,0)
(0,0,0)
(0,0,0)
(0,0,0)
(0,0,0)
(0,0,0)
(0,0,0)
(0,0,0)
(0,0,0)
(0,0,0)
(0,0,0)
(0,0,0)
(0,0,0)
(0,0,0)
(0,0,0)
(0,0,0)
(0,0,0)
(0,0,0)
(0,0,0)
(0,0,0)
(0,0,0)
(0,0,0)
(0,0,0)
(0,0,0)
(0,0,0)
(0,0,0)
(0,0,0)
(0,0,0)
(0,0,0)
(0,0,0)
(0,0,0)
(0,0,0)
(0,0,0)
(0,0,0)
(0,0,0)
(0,0,0)
(0,0,0)
(0,0,0)
(0,0,0)
(0,0,0)
(0,0,0)
(0,0,0)
(0,0,0)
(0,0,0)
(0,0,0)
(0,0,0)
(0,0,0)
(0,0,0)
(0,0,0)
(0,0,0)
(0,0,0)
(0,0,0)
(0,0,0)
(0,0,0)
(0,0,0)
(0,0,0)
(0,0,0)
(0,0,0)
(0,0,0)
(0,0,0)
(0,0,0)
(0,0,0)
(0,0,0)
(0,0,0)
(0,0,0)
(0,0,0)
(0,0,0)
(0,0,0)
(0,0,0)
(0,0,0)
(0,0,0)
(0,0,0)
(0,0,0)
(0,0,0)
(0,0,0)
(0,0,0)
(0,0,0)
(0,0,0)
(0,0,0)
(0,0,0)
(0,0,0)
(0,0,0)
(0,0,0)
(0,0,0)
(0,0,0)
(0,0,0)
(0,0,0)
(0,0,0)
(0,0,0)
(0,0,0)
(0,0,0)
(0,0,0)
(0,0,0)
(0,0,0)
(0,0,0)
(0,0,0)
(0,0,0)
(0,0,0)
(0,0,0)
(0,0,0)
(0,0,0)
(0,0,0)
(0,0,0)
(0,0,0)
(0,0,0)
(0,0,0)
(0,0,0)
(0,0,0)
(0,0,0)
(0,0,0)
(0,0,0)
(0,0,0)
(0,0,0)
(0,0,0)
(0,0,0)
(0,0,0)
(0,0,0)
(0,0,0)
(0,0,0)
(0,0,0)
(0,0,0)
(0,0,0)
(0,0,0)
(0,0,0)
(0,0,0)
(0,0,0)
(0,0,0)
(0,0,0)
(0,0,0)
(0,0,0)
(0,0,0)
(0,0,0)
(0,0,0)
(0,0,0)
(0,0,0)
(0,0,0)
(0,0,0)
(0,0,0)
(0,0,0)
(0,0,0)
(0,0,0)
(0,0,0)
(0,0,0)
(0,0,0)
(0,0,0)
(0,0,0)
(0,0,0)
(0,0,0)
(0,0,0)
(0,0,0)
(0,0,0)
(0,0,0)
(0,0,0)
(0,0,0)
(0,0,0)
(0,0,0)
(0,0,0)
(0,0,0)
(0,0,0)
(0,0,0)
(0,0,0)
(0,0,0)
(0,0,0)
(0,0,0)
(0,0,0)
(0,0,0)
(0,0,0)
(0,0,0)
(0,0,0)
(0,0,0)
(0,0,0)
(0,0,0)
(0,0,0)
(0,0,0)
(0,0,0)
(0,0,0)
(0,0,0)
(0,0,0)
(0,0,0)
(0,0,0)
(0,0,0)
(0,0,0)
(0,0,0)
(0,0,0)
(0,0,0)
(0,0,0)
(0,0,0)
(0,0,0)
(0,0,0)
(0,0,0)
(0,0,0)
(0,0,0)
(0,0,0)
(0,0,0)
(-59185.125491058,31185.7517141884,27999.373776868)
(-62578.6924290671,29904.2829196886,60673.7832862466)
(-70473.9775422727,27209.5941620705,103938.166666449)
(-85478.5748481349,23019.4976735257,166397.243841064)
(-112564.216036764,17354.8438830595,261606.615994778)
(-161165.863358763,10804.4758025757,411968.003550957)
(-249133.052573098,4826.58771799485,656274.468406085)
(-408078.037909217,1195.56431533833,1063156.942)
(-673274.580735878,40.8372277195911,1736390.68550813)
(-938236.003572405,-33.5339390846322,2674660.22301965)
(0,0,0)
(0,0,0)
(0,0,0)
(0,0,0)
(0,0,0)
(0,0,0)
(-62592.5556483265,67094.8583026998,26683.4490598134)
(-66033.5323950222,64709.3545541085,57911.9098204207)
(-74085.7682604091,59645.7505267775,99561.5217161188)
(-89457.4644978577,51533.7077040805,160504.776183428)
(-117286.936218569,40263.2842480964,254883.27203695)
(-167049.880012179,26830.6792134996,405906.948638204)
(-255982.630671345,14130.0020424725,652586.164985071)
(-414319.936269196,6154.03630983818,1061947.62925969)
(-677432.069495484,3095.14281498467,1736325.39316796)
(-940159.317175299,1634.87121184538,2674816.30519226)
(0,0,0)
(0,0,0)
(0,0,0)
(0,0,0)
(0,0,0)
(0,0,0)
(-70428.2537704926,113362.963329224,24160.1487439677)
(-73937.3250994802,110164.014134075,52642.8142634844)
(-82259.1451959514,103323.854894126,91223.8550920922)
(-98399.4646246781,92110.0342535024,149046.993167351)
(-127999.17999526,76026.8027372619,241282.654673433)
(-180857.269148747,55924.8306843519,393045.772351328)
(-272857.392095524,35586.5915224667,644446.574966872)
(-429857.345306866,21694.2767754509,1058763.6798081)
(-687427.189681169,14422.8518504604,1734863.16045382)
(-944673.494317201,7864.65622474877,2673306.86975818)
(0,0,0)
(0,0,0)
(0,0,0)
(0,0,0)
(0,0,0)
(0,0,0)
(-85105.1378117859,177667.316985532,20800.7841554794)
(-88661.1408421845,174085.925895075,45540.0132366659)
(-97293.6282242256,166391.474813007,79766.0215420036)
(-114542.60111027,153655.581227007,132763.075678761)
(-147075.071856399,134890.392839985,220974.557432443)
(-205831.695649093,110235.676582067,372495.407183825)
(-305097.874320693,82848.9368648625,630330.936162117)
(-459821.759816055,60517.4523581645,1051329.52039539)
(-705706.990523674,43132.1957614484,1728327.16700804)
(-952652.943380152,23266.47309828,2665578.2935148)
(0,0,0)
(0,0,0)
(0,0,0)
(0,0,0)
(0,0,0)
(0,0,0)
(-111415.721688768,271967.035974447,17116.0026998494)
(-114954.734903885,268476.153701998,37680.509796808)
(-123744.408439461,260973.643948866,66842.7491004119)
(-141893.755421009,248542.743540182,113849.342208245)
(-177428.835345251,230061.051212008,196107.519181474)
(-243475.26807226,204938.609731456,344879.854104323)
(-354167.122700167,174113.659898803,607782.25377055)
(-505427.882074404,139994.065596078,1033733.52260705)
(-732257.243058686,100740.880796716,1708382.08063055)
(-964167.167024635,53411.3751710185,2642404.34558243)
(0,0,0)
(0,0,0)
(0,0,0)
(0,0,0)
(0,0,0)
(0,0,0)
(-158794.663054916,417220.395384182,13541.303645183)
(-162162.165443304,414099.216387349,30080.4064031324)
(-170671.729909201,407406.509052997,54319.2712082035)
(-188628.074024585,396221.882271185,95268.2065017839)
(-224513.353196427,379057.470446962,170785.140463262)
(-291765.470988945,353686.356397902,313802.86478578)
(-402751.651030016,317285.789961999,573382.385752612)
(-547159.288927283,266305.382097398,994230.358178575)
(-761027.991300932,195057.367467888,1660941.86280841)
(-978675.96938395,104108.538989469,2588920.66837374)
(0,0,0)
(0,0,0)
(0,0,0)
(0,0,0)
(0,0,0)
(0,0,0)
(-245702.451617069,652568.602867795,10354.2441334546)
(-248686.391166219,649851.504516319,23288.3471707135)
(-256333.943515687,644022.228108847,43006.5716305553)
(-272745.207808965,634046.131264811,77927.5304458978)
(-306059.979807764,617803.113125615,145241.867575005)
(-369213.266351282,590954.191238697,277187.299085487)
(-473316.036089019,545690.506631527,522098.618504989)
(-604648.440601258,470290.723678521,922761.717525129)
(-803934.63530158,351928.896671337,1569824.82362321)
(-1002359.01229791,191756.157914619,2484536.21699608)
(0,0,0)
(0,0,0)
(0,0,0)
(0,0,0)
(0,0,0)
(0,0,0)
(-404663.649983019,1049650.44371607,7581.80913474152)
(-407068.905682333,1047160.28826695,17341.931066449)
(-413252.479930322,1041753.23864853,32863.4004571055)
(-426607.553977333,1032052.66000388,61464.4256953534)
(-453962.477207785,1015026.26472272,118203.751306031)
(-506441.053215036,983894.75037989,231704.245379856)
(-593576.743244581,924570.194363601,446401.300892344)
(-699946.690802248,812476.826029737,804161.889343395)
(-881952.541805523,628659.50073938,1409383.82708087)
(-1047693.21039024,356395.464121232,2292437.73126444)
(0,0,0)
(0,0,0)
(0,0,0)
(0,0,0)
(0,0,0)
(0,0,0)
(-670870.606543125,1715419.10019186,5101.95006730912)
(-672542.223461045,1712938.45379605,11866.0079992767)
(-676764.911757346,1707348.1510943,23036.0073108029)
(-685751.754252065,1696595.10050379,44245.3210629439)
(-703806.268872252,1676177.60399319,86900.2506647266)
(-737763.34121213,1636316.68735394,172241.654902808)
(-794819.939128547,1557535.2161386,334096.572256368)
(-879768.099715655,1406254.42385804,620087.074143727)
(-1025861.73962881,1137811.0280715,1136797.28644034)
(-1126746.7033218,684243.551159682,1935695.9027237)
(0,0,0)
(0,0,0)
(0,0,0)
(0,0,0)
(0,0,0)
(0,0,0)
(-937059.819812234,2649886.5726207,2592.34738341284)
(-937923.090031519,2647344.55301457,6109.33819641515)
(-940026.413788737,2641423.8904804,12060.0125990828)
(-944437.968337083,2629507.44648489,23585.6349551018)
(-953173.426373364,2606097.72006028,46838.9452614042)
(-969522.473970191,2559409.75750855,93268.3490769777)
(-998087.812423004,2466287.44464749,182603.932991082)
(-1046297.55478723,2283847.29389181,351308.617744491)
(-1126453.62062206,1932824.06888575,682749.197552262)
(-1134521.51797828,1250522.19933668,1250992.06735357)
(0,0,0)
(0,0,0)
(0,0,0)
(0,0,0)
(0,0,0)
(0,0,0)
(0,0,0)
(0,0,0)
(0,0,0)
(0,0,0)
(0,0,0)
(0,0,0)
(0,0,0)
(0,0,0)
(0,0,0)
(0,0,0)
(0,0,0)
(0,0,0)
(0,0,0)
(0,0,0)
(0,0,0)
(0,0,0)
(0,0,0)
(0,0,0)
(0,0,0)
(0,0,0)
(0,0,0)
(0,0,0)
(0,0,0)
(0,0,0)
(0,0,0)
(0,0,0)
(0,0,0)
(0,0,0)
(0,0,0)
(0,0,0)
(0,0,0)
(0,0,0)
(0,0,0)
(0,0,0)
(0,0,0)
(0,0,0)
(0,0,0)
(0,0,0)
(0,0,0)
(0,0,0)
(0,0,0)
(0,0,0)
(0,0,0)
(0,0,0)
(0,0,0)
(0,0,0)
(0,0,0)
(0,0,0)
(0,0,0)
(0,0,0)
(0,0,0)
(0,0,0)
(0,0,0)
(0,0,0)
(0,0,0)
(0,0,0)
(0,0,0)
(0,0,0)
(0,0,0)
(0,0,0)
(0,0,0)
(0,0,0)
(0,0,0)
(0,0,0)
(0,0,0)
(0,0,0)
(0,0,0)
(0,0,0)
(0,0,0)
(0,0,0)
(0,0,0)
(0,0,0)
(0,0,0)
(0,0,0)
(0,0,0)
(0,0,0)
(0,0,0)
(0,0,0)
(0,0,0)
(0,0,0)
(0,0,0)
(0,0,0)
(0,0,0)
(0,0,0)
(0,0,0)
(0,0,0)
(0,0,0)
(0,0,0)
(0,0,0)
(0,0,0)
(0,0,0)
(0,0,0)
(0,0,0)
(0,0,0)
(0,0,0)
(0,0,0)
(8800804.77100348,27776.17928717,24570.6589353449)
(8795095.5516635,26495.1123313942,52738.0372284922)
(8781953.95550332,23713.9243164356,88932.9145834494)
(8757290.40578233,19155.770540202,139344.898129812)
(8713331.79726339,12718.5562484342,213067.063298286)
(8635158.35471716,4982.48232833286,324097.097610956)
(8491813.20879905,-1967.06514420652,497454.636099978)
(8208614.13820058,-5006.0425260932,798105.237233337)
(7569656.69166222,-4102.61533823138,1471613.31489056)
(5834595.33831455,-1984.08034635866,3613102.788067)
(0,0,0)
(0,0,0)
(0,0,0)
(0,0,0)
(0,0,0)
(0,0,0)
(8794987.15904476,59316.6975249279,23216.5017862331)
(8789273.31495126,56899.6411210163,49841.8603674328)
(8775982.27872388,51598.8795943348,84225.592822263)
(8750827.79172741,42702.0147206024,132730.827133621)
(8705651.90756186,29642.5055783987,205204.768740307)
(8625277.25041558,13125.2612206519,317071.594137344)
(8479744.76179773,-2634.38400854105,494348.255249719)
(8197714.76412921,-9307.62856345608,798951.875605753)
(7562885.43816299,-6889.97291139189,1473758.46023729)
(5831655.76772747,-2904.97757580616,3615201.00728096)
(0,0,0)
(0,0,0)
(0,0,0)
(0,0,0)
(0,0,0)
(0,0,0)
(8781700.89700893,98882.5731618899,20641.708300602)
(8775984.64886791,95612.7638665716,44343.3463047099)
(8762425.01365249,88435.53065278,75159.2711149778)
(8736172.67788558,76105.3696262136,119520.508416224)
(8687868.06522506,57090.8452621764,188541.658229193)
(8600907.4495528,31066.338570182,301172.596895193)
(8447050.02834536,3422.69741344849,487544.829749429)
(8167691.24171798,-8257.39860621431,801282.747484521)
(7545435.03270396,-3890.38259617703,1477757.66950118)
(5824437.28534071,-135.611518355496,3618214.25850293)
(0,0,0)
(0,0,0)
(0,0,0)
(0,0,0)
(0,0,0)
(0,0,0)
(8757234.30198487,151635.296612163,17244.5714701292)
(8751532.79666566,148046.962245333,36953.1703006133)
(8737665.34632413,140155.990416664,62610.4707054202)
(8709705.70406499,126475.220502396,100329.04937106)
(8655657.00750042,104683.696815868,162340.853177667)
(8553862.47263021,72690.5398230693,273359.218362595)
(8374490.26874684,33826.5068474636,475704.000578146)
(8099494.4711251,14909.5527704787,805557.552977362)
(7510212.54299486,16542.0602105502,1481542.31136905)
(5810904.19448446,11717.555980627,3618468.74072264)
(0,0,0)
(0,0,0)
(0,0,0)
(0,0,0)
(0,0,0)
(0,0,0)
(8714190.27374795,224803.809959148,13562.2259333372)
(8708610.42057868,221459.750941833,28921.0164712947)
(8694682.53937555,214225.156945205,48761.6368448739)
(8665296.85691639,201969.655990781,78413.3237361121)
(8604709.82431534,183120.078000109,130175.017608411)
(8480696.90929261,156736.634444065,234293.480339649)
(8244123.68633314,125563.389825716,456602.523045173)
(7973128.09582287,98269.2973165799,807023.535318931)
(7455057.44604323,71959.874707542,1476627.76643697)
(5790813.32405824,38911.9311292701,3606789.63492252)
(0,0,0)
(0,0,0)
(0,0,0)
(0,0,0)
(0,0,0)
(0,0,0)
(8637768.3318192,330417.59417204,10159.9556300144)
(8632543.24604786,327666.242386761,21584.7874110297)
(8619246.48211718,321834.902694992,36393.5643519005)
(8590413.41975676,312205.934207745,59452.527070766)
(8529176.66888542,297605.167392278,103614.150313844)
(8401705.20591887,276314.422187961,202902.420379168)
(8162246.40029133,246743.959501382,429060.534099247)
(7903213.46974965,208820.419101935,780473.388353913)
(7408149.62843704,152146.922795708,1443445.45524485)
(5767777.08988304,80446.9554454601,3567794.10637868)
(0,0,0)
(0,0,0)
(0,0,0)
(0,0,0)
(0,0,0)
(0,0,0)
(8496039.13240769,493654.911548781,7357.83331556472)
(8491465.85103003,491541.074807115,15667.4934160644)
(8479665.14339126,487192.182458184,26647.8614631152)
(8453498.35891993,480270.932979994,44676.03067903)
(8396448.09713835,469967.524556187,82142.3312861094)
(8274656.40127035,453793.065360411,173130.755209024)
(8042582.5111602,425463.567345526,390849.334832657)
(7808778.67987701,375011.054122708,723568.314050735)
(7338602.88562553,273943.280288464,1371571.17034774)
(5728432.03551148,146457.382245739,3487106.43045526)
(0,0,0)
(0,0,0)
(0,0,0)
(0,0,0)
(0,0,0)
(0,0,0)
(8212662.14148302,783477.459354748,5188.39544510136)
(8209029.261246,781756.198989969,11211.8390509908)
(8199610.67321358,778311.847437391,19565.7556449511)
(8178457.76960558,772978.348529142,34129.7512299829)
(8131487.9572957,765239.42348919,65744.1525104199)
(8028261.55245214,752611.563390339,144559.783530499)
(7825309.14521177,723388.128825276,340086.068311418)
(7672529.73433213,632721.58772086,622235.844295834)
(7197972.49141468,484788.814862737,1243802.01121836)
(5637240.07740319,277354.351088707,3340308.48929903)
(0,0,0)
(0,0,0)
(0,0,0)
(0,0,0)
(0,0,0)
(0,0,0)
(7572115.08020049,1449344.12769745,3484.379630809)
(7569644.61933725,1447683.14351407,7707.32702554712)
(7563336.44004347,1444169.94632948,14084.6110497151)
(7549494.34296452,1437977.76116228,26175.8359170278)
(7520116.16971075,1426881.22315919,52948.3323810684)
(7460349.5847398,1404604.3729976,115179.33153893)
(7352570.58648142,1354331.69007391,249181.97939746)
(7200638.57829147,1239811.00941771,474022.614410606)
(6771968.54137984,1037294.59017289,1036023.29280888)
(5359882.10413022,676493.277093423,3062592.29406917)
(0,0,0)
(0,0,0)
(0,0,0)
(0,0,0)
(0,0,0)
(0,0,0)
(5835609.89227923,3587209.89675812,1801.25356484442)
(5834353.23854885,3585481.92748435,4062.87573119188)
(5831246.6334879,3581622.49129183,7674.01820929047)
(5824604.12696978,3574107.7526314,14838.6661504866)
(5810959.51686117,3559435.87618471,30487.8046075697)
(5784096.5351114,3529098.02747207,64711.8757686281)
(5734318.75281641,3464538.89271676,134434.842603458)
(5638773.66786944,3330324.01048122,271187.353600432)
(5360132.90116685,3059475.04089915,674757.115802336)
(4358241.89058333,2385176.51233306,2385647.20671803)
(0,0,0)
(0,0,0)
(0,0,0)
(0,0,0)
(0,0,0)
(0,0,0)
(0,0,0)
(0,0,0)
(0,0,0)
(0,0,0)
(0,0,0)
(0,0,0)
(0,0,0)
(0,0,0)
(0,0,0)
(0,0,0)
(0,0,0)
(0,0,0)
(0,0,0)
(0,0,0)
(0,0,0)
(0,0,0)
(0,0,0)
(0,0,0)
(0,0,0)
(0,0,0)
(0,0,0)
(0,0,0)
(0,0,0)
(0,0,0)
(0,0,0)
(0,0,0)
(0,0,0)
(0,0,0)
(0,0,0)
(0,0,0)
(0,0,0)
(0,0,0)
(0,0,0)
(0,0,0)
(0,0,0)
(0,0,0)
(0,0,0)
(0,0,0)
(0,0,0)
(0,0,0)
(0,0,0)
(0,0,0)
(0,0,0)
(0,0,0)
(0,0,0)
(0,0,0)
(0,0,0)
(0,0,0)
(0,0,0)
(0,0,0)
(0,0,0)
(0,0,0)
(0,0,0)
(0,0,0)
(0,0,0)
(0,0,0)
(0,0,0)
(0,0,0)
(0,0,0)
(0,0,0)
(0,0,0)
(0,0,0)
(0,0,0)
(0,0,0)
(0,0,0)
(0,0,0)
(0,0,0)
(0,0,0)
(0,0,0)
(0,0,0)
(0,0,0)
(0,0,0)
(0,0,0)
(0,0,0)
(0,0,0)
(0,0,0)
(0,0,0)
(0,0,0)
(0,0,0)
(0,0,0)
(0,0,0)
(0,0,0)
(0,0,0)
(0,0,0)
(0,0,0)
(0,0,0)
(0,0,0)
(0,0,0)
(0,0,0)
(0,0,0)
(0,0,0)
(0,0,0)
(0,0,0)
(0,0,0)
(0,0,0)
(0,0,0)
(-152335.195273489,22010.8843807052,18792.3471792119)
(-158645.039094054,20702.6015603278,39493.6016593251)
(-172940.541765097,17799.8278404504,64251.5363703074)
(-199020.59590559,12757.3763149834,95468.4270262147)
(-243674.818137813,5097.04426310494,135041.263447256)
(-318219.016242272,-4843.20828749462,180925.107977245)
(-440098.711832949,-13985.4590843095,214485.752976556)
(-632905.618248618,-15858.8529071653,159527.627615866)
(-909297.298577934,-10877.134817746,-262977.982043349)
(-1114903.92115358,-4975.76787999129,-2220839.68941213)
(0,0,0)
(0,0,0)
(0,0,0)
(0,0,0)
(0,0,0)
(0,0,0)
(-158996.062172537,46232.1092172177,17425.2616637069)
(-165177.66225947,43751.7511064192,36490.35461124)
(-179332.318923729,38152.8712162708,59115.1741660081)
(-205457.987793591,28131.2348157019,87690.3604692618)
(-250838.560545163,11934.5532310908,125006.584891226)
(-327432.687986381,-11169.5018822997,171706.082170881)
(-452160.682752502,-35259.4884769253,212548.821396633)
(-643116.157770929,-39278.1950791717,164462.350751683)
(-914437.044050194,-24369.1715141779,-257059.865055581)
(-1116718.66767851,-10184.7180980778,-2215813.21414851)
(0,0,0)
(0,0,0)
(0,0,0)
(0,0,0)
(0,0,0)
(0,0,0)
(-173974.601406256,74719.2777460771,14851.595169342)
(-179929.651990468,71404.5429493663,30776.3694677171)
(-193832.949048617,63857.0025932142,48993.4660747218)
(-220217.090117122,49789.0295126239,71388.7046633909)
(-267965.612129546,25018.8048278243,101801.39570419)
(-352437.930432637,-15873.6990844992,147514.238174745)
(-492395.548750524,-69071.964155524,208435.556232125)
(-678360.116690527,-76441.4347983668,179313.419642631)
(-929926.63774285,-39145.0212479239,-242885.794893776)
(-1121680.58608363,-13691.8234538831,-2205597.55283072)
(0,0,0)
(0,0,0)
(0,0,0)
(0,0,0)
(0,0,0)
(0,0,0)
(-200830.679074046,108942.45619218,11505.0678957543)
(-206461.751581663,105445.150779259,23122.273596097)
(-219930.321761141,97458.632051293,34779.5775062436)
(-246833.916157579,82291.4008890135,46480.091635337)
(-299864.91286878,53916.2982537571,60767.7838614951)
(-407404.536029509,-355.174919393824,94179.5336390052)
(-617194.391850195,-96479.0901932982,200934.585556718)
(-793445.059178404,-111453.069349545,216549.015694362)
(-968634.204262911,-38651.4190361959,-217434.573976594)
(-1132319.12682403,-8405.4390463403,-2191834.37179279)
(0,0,0)
(0,0,0)
(0,0,0)
(0,0,0)
(0,0,0)
(0,0,0)
(-245805.184662915,148640.631207618,7960.54867838001)
(-250992.118887691,145630.487233786,15041.0169731964)
(-263701.747183161,139042.054260151,19505.1466059128)
(-290572.990194242,127310.94898419,18018.7109043447)
(-349815.538578626,107763.579939396,6360.05739554648)
(-501353.075960578,77844.480338518,-2126.34732627849)
(-996324.184986995,43721.9175820739,185783.781501373)
(-1182436.43736104,28338.7565671212,289219.754051527)
(-1044435.37760107,25008.0556896676,-187283.631747025)
(-1149692.76808802,15884.3042802446,-2183404.01764428)
(0,0,0)
(0,0,0)
(0,0,0)
(0,0,0)
(0,0,0)
(0,0,0)
(-319789.160279736,188904.616254757,4956.77233477999)
(-324364.53393939,186774.61550508,8383.68933363582)
(-335802.35318928,182433.222751579,7704.6214316247)
(-360779.306210213,175458.544731929,-1586.98306631401)
(-418329.427670972,165013.758494379,-23667.7997819947)
(-569387.894708145,149346.75208123,-36413.7056147229)
(-1040065.88886056,127081.485038704,170202.281363437)
(-1210625.30001924,114379.822493425,285663.250489012)
(-1079505.64329541,82585.8736054163,-196596.030411398)
(-1166999.32502292,41131.3792856926,-2199403.42522783)
(0,0,0)
(0,0,0)
(0,0,0)
(0,0,0)
(0,0,0)
(0,0,0)
(-440758.896786755,210509.246797375,2856.66393475003)
(-444575.953035031,209332.402720381,4003.94606741396)
(-454226.837676416,207359.795210449,632.619959012592)
(-475987.939066992,205446.820143299,-12206.0921824951)
(-528781.08148122,205205.038065209,-39504.9278508452)
(-676551.729734648,207564.605383483,-58851.3848650872)
(-1167002.55659907,208285.890365881,157192.542850031)
(-1324406.01034291,238827.760203289,253592.560642995)
(-1132621.48387731,133374.734508785,-238308.665474417)
(-1195605.1002261,55323.6938696309,-2240800.57903799)
(0,0,0)
(0,0,0)
(0,0,0)
(0,0,0)
(0,0,0)
(0,0,0)
(-634025.850037476,143212.855776599,1647.6478241697)
(-636918.133388834,142659.008756495,1931.70170580954)
(-644305.011495768,142313.619463221,-1443.17255468514)
(-661399.239181745,144258.775760325,-12734.8541014799)
(-705046.430447191,154074.021511181,-37406.1845214901)
(-840427.007264772,184872.18245601,-58361.9365942652)
(-1375316.61918182,250799.71800433,187413.265443857)
(-1122333.2598292,160943.816126802,147823.468964666)
(-1175317.3710522,58854.3562722421,-316703.025048861)
(-1240029.5059648,23.1833309663022,-2296469.66585922)
(0,0,0)
(0,0,0)
(0,0,0)
(0,0,0)
(0,0,0)
(0,0,0)
(-911345.999922196,-286743.490493327,1080.69167548406)
(-913225.493105937,-287206.998987438,1480.07714546843)
(-917976.932763604,-287564.65051452,334.985213226787)
(-928504.847113109,-286606.147372138,-3137.63629371566)
(-952518.604657029,-282003.657612791,-6761.91751900179)
(-1009852.51986544,-271426.433120974,7402.06794613708)
(-1135144.10886651,-263702.927295556,97282.6738768295)
(-1177031.4847484,-321839.502274088,45399.3206004463)
(-1285822.70139255,-374355.208145858,-375936.606926126)
(-1306458.13179159,-325027.697073055,-2296882.22531736)
(0,0,0)
(0,0,0)
(0,0,0)
(0,0,0)
(0,0,0)
(0,0,0)
(-1116492.09387556,-2247584.60717497,606.368119398495)
(-1117425.63482085,-2248169.47759334,1010.98537788926)
(-1119714.04593148,-2249009.47306279,1079.75262848588)
(-1124581.95759813,-2249912.53669853,1235.4918055879)
(-1134880.00454383,-2250940.85716315,3675.47804387519)
(-1156483.30830125,-2254458.47473904,14950.6283574871)
(-1196427.01056353,-2269245.277561,38902.0072858466)
(-1241192.74132946,-2307880.85448261,-7426.96602390931)
(-1306811.06228369,-2300116.34967677,-327058.595759562)
(-1261262.85998247,-1972646.95135646,-1972271.32562739)
(0,0,0)
(0,0,0)
(0,0,0)
(0,0,0)
(0,0,0)
(0,0,0)
(0,0,0)
(0,0,0)
(0,0,0)
(0,0,0)
(0,0,0)
(0,0,0)
(0,0,0)
(0,0,0)
(0,0,0)
(0,0,0)
(0,0,0)
(0,0,0)
(0,0,0)
(0,0,0)
(0,0,0)
(0,0,0)
(0,0,0)
(0,0,0)
(0,0,0)
(0,0,0)
(0,0,0)
(0,0,0)
(0,0,0)
(0,0,0)
(0,0,0)
(0,0,0)
(0,0,0)
(0,0,0)
(0,0,0)
(0,0,0)
(0,0,0)
(0,0,0)
(0,0,0)
(0,0,0)
(0,0,0)
(0,0,0)
(0,0,0)
(0,0,0)
(0,0,0)
(0,0,0)
(0,0,0)
(0,0,0)
(0,0,0)
(0,0,0)
(0,0,0)
(0,0,0)
(0,0,0)
(0,0,0)
(0,0,0)
(0,0,0)
(0,0,0)
(0,0,0)
(0,0,0)
(0,0,0)
(0,0,0)
(0,0,0)
(0,0,0)
(0,0,0)
(0,0,0)
(0,0,0)
(0,0,0)
(0,0,0)
(0,0,0)
(0,0,0)
(0,0,0)
(0,0,0)
(0,0,0)
(0,0,0)
(0,0,0)
(0,0,0)
(0,0,0)
(0,0,0)
(0,0,0)
(0,0,0)
(0,0,0)
(0,0,0)
(0,0,0)
(0,0,0)
(0,0,0)
(0,0,0)
(0,0,0)
(0,0,0)
(0,0,0)
(0,0,0)
(0,0,0)
(0,0,0)
(0,0,0)
(0,0,0)
(0,0,0)
(0,0,0)
(0,0,0)
(0,0,0)
(0,0,0)
(0,0,0)
(0,0,0)
(0,0,0)
(-180125.971555745,15362.9247187356,12427.8515635214)
(-185506.747518703,14141.6893584857,25147.8706296892)
(-197343.957188167,11369.3856743298,38181.9003784304)
(-218049.846861467,6315.81264779318,50895.3386865112)
(-251473.517653461,-2019.4470611523,60713.4852633128)
(-302885.193434605,-13993.7725123392,59373.4349679871)
(-376776.696000173,-26005.4957475882,22056.914882801)
(-468384.050244841,-26030.1928876499,-116434.460233333)
(-541654.027096052,-15996.2882717553,-468081.443443435)
(-470794.698714184,-6797.8122025634,-1105392.85368025)
(0,0,0)
(0,0,0)
(0,0,0)
(0,0,0)
(0,0,0)
(0,0,0)
(-186205.263678125,31397.3047050687,11174.8215192533)
(-191266.164448512,29092.1774361433,22312.8356306383)
(-202438.995391917,23721.5858032084,33067.3119699519)
(-222039.478313693,13475.3571326634,42489.2580051801)
(-253987.073810903,-5051.64109609838,48669.9653058693)
(-303963.454651076,-36075.1167422474,47282.07620048)
(-377409.336152144,-75442.9130286018,21968.1468811424)
(-466259.310953719,-74486.9322348721,-106431.960588843)
(-538136.083123963,-39854.0543425715,-458875.15544425)
(-468627.278568606,-15169.6274488852,-1098594.72930788)
(0,0,0)
(0,0,0)
(0,0,0)
(0,0,0)
(0,0,0)
(0,0,0)
(-199576.637228591,48165.1010641083,8834.23946329901)
(-204039.150912476,45142.6196073693,16893.2962140769)
(-213913.338436787,37969.1974888292,22726.0739166248)
(-231266.987568818,23377.8211615035,23873.5073394842)
(-260064.971869872,-6695.6356397185,17616.861623428)
(-308022.822637265,-70736.6803177249,7863.31740352092)
(-388961.263157763,-193851.255805306,22837.3745874659)
(-466592.674291902,-191548.829565013,-71868.1704810292)
(-529569.65394286,-77869.1032226644,-434210.105400911)
(-463293.900502049,-24348.485105516,-1083417.93332586)
(0,0,0)
(0,0,0)
(0,0,0)
(0,0,0)
(0,0,0)
(0,0,0)
(-222722.708789439,64238.694408195,5818.43637131301)
(-226343.994704724,61192.8401380152,9650.45896373346)
(-234261.466734049,53946.3159737571,8004.48545171649)
(-247941.425735105,38770.8773650537,-6281.06117430925)
(-270539.878330143,4141.39055230734,-46443.1219049701)
(-315083.269518527,-94207.0493743843,-115294.019359294)
(-475768.977929965,-475599.388294615,25028.6992097781)
(-501214.947104402,-500490.007204577,41739.7647753449)
(-509562.560669791,-114506.335395655,-380694.646644788)
(-452520.324425438,-25836.2863013092,-1059005.64784761)
(0,0,0)
(0,0,0)
(0,0,0)
(0,0,0)
(0,0,0)
(0,0,0)
(-259154.433167772,74829.1731948922,2758.76971815787)
(-261835.17697002,72460.2096601988,2334.45827830234)
(-267354.80932376,67187.2738795287,-7253.43748686939)
(-275395.058684666,57326.3821663982,-40986.8737977859)
(-281212.964909607,39423.6636826899,-144871.72059719)
(-253555.686074408,9907.64987368053,-496783.809731432)
(-7.69546548093958e-05,-2.02431985945967e-05,4.9897676489491e-05)