/*--------------------------------*- C++ -*----------------------------------*\
| =========                 |                                                 |
| \\      /  F ield         | foam-extend: Open Source CFD                    |
|  \\    /   O peration     | Version:     4.0                                |
|   \\  /    A nd           | Web:         http://www.foam-extend.org         |
|    \\/     M anipulation  |                                                 |
\*---------------------------------------------------------------------------*/
FoamFile
{
    version 2.0;
    format ascii;
    class volVectorField;
    location "518";
    object      H;
}
// * * * * * * * * * * * * * * * * * * * * * * * * * * * * * * * * * * * * * //

dimensions      [0 1 -1 0 0 0 0];

internalField   nonuniform List<vector>
4096
(
(0,0,0)
(0,0,0)
(0,0,0)
(0,0,0)
(0,0,0)
(0,0,0)
(0,0,0)
(0,0,0)
(0,0,0)
(0,0,0)
(0,0,0)
(0,0,0)
(0,0,0)
(0,0,0)
(0,0,0)
(0,0,0)
(0,0,0)
(0,0,0)
(0,0,0)
(0,0,0)
(0,0,0)
(0,0,0)
(0,0,0)
(0,0,0)
(0,0,0)
(0,0,0)
(0,0,0)
(0,0,0)
(0,0,0)
(0,0,0)
(0,0,0)
(0,0,0)
(0,0,0)
(0,0,0)
(0,0,0)
(0,0,0)
(0,0,0)
(0,0,0)
(0,0,0)
(0,0,0)
(0,0,0)
(0,0,0)
(0,0,0)
(0,0,0)
(0,0,0)
(0,0,0)
(0,0,0)
(0,0,0)
(0,0,0)
(0,0,0)
(0,0,0)
(0,0,0)
(0,0,0)
(0,0,0)
(0,0,0)
(0,0,0)
(0,0,0)
(0,0,0)
(0,0,0)
(0,0,0)
(0,0,0)
(0,0,0)
(0,0,0)
(0,0,0)
(0,0,0)
(0,0,0)
(0,0,0)
(0,0,0)
(0,0,0)
(0,0,0)
(0,0,0)
(0,0,0)
(0,0,0)
(0,0,0)
(0,0,0)
(0,0,0)
(0,0,0)
(0,0,0)
(0,0,0)
(0,0,0)
(0,0,0)
(0,0,0)
(0,0,0)
(0,0,0)
(0,0,0)
(0,0,0)
(0,0,0)
(0,0,0)
(0,0,0)
(0,0,0)
(0,0,0)
(0,0,0)
(0,0,0)
(0,0,0)
(0,0,0)
(0,0,0)
(0,0,0)
(0,0,0)
(0,0,0)
(0,0,0)
(0,0,0)
(0,0,0)
(0,0,0)
(0,0,0)
(0,0,0)
(0,0,0)
(0,0,0)
(0,0,0)
(0,0,0)
(0,0,0)
(0,0,0)
(0,0,0)
(0,0,0)
(0,0,0)
(0,0,0)
(0,0,0)
(0,0,0)
(0,0,0)
(0,0,0)
(0,0,0)
(0,0,0)
(0,0,0)
(0,0,0)
(0,0,0)
(0,0,0)
(0,0,0)
(0,0,0)
(0,0,0)
(0,0,0)
(0,0,0)
(0,0,0)
(0,0,0)
(0,0,0)
(0,0,0)
(0,0,0)
(0,0,0)
(0,0,0)
(0,0,0)
(0,0,0)
(0,0,0)
(0,0,0)
(0,0,0)
(0,0,0)
(0,0,0)
(0,0,0)
(0,0,0)
(0,0,0)
(0,0,0)
(0,0,0)
(0,0,0)
(0,0,0)
(0,0,0)
(0,0,0)
(0,0,0)
(0,0,0)
(0,0,0)
(0,0,0)
(0,0,0)
(0,0,0)
(0,0,0)
(0,0,0)
(0,0,0)
(0,0,0)
(0,0,0)
(0,0,0)
(0,0,0)
(0,0,0)
(0,0,0)
(0,0,0)
(0,0,0)
(0,0,0)
(0,0,0)
(0,0,0)
(0,0,0)
(0,0,0)
(0,0,0)
(0,0,0)
(0,0,0)
(0,0,0)
(0,0,0)
(0,0,0)
(0,0,0)
(0,0,0)
(0,0,0)
(0,0,0)
(0,0,0)
(0,0,0)
(0,0,0)
(0,0,0)
(0,0,0)
(0,0,0)
(0,0,0)
(0,0,0)
(0,0,0)
(0,0,0)
(0,0,0)
(0,0,0)
(0,0,0)
(0,0,0)
(0,0,0)
(0,0,0)
(0,0,0)
(0,0,0)
(0,0,0)
(0,0,0)
(0,0,0)
(0,0,0)
(0,0,0)
(0,0,0)
(0,0,0)
(0,0,0)
(0,0,0)
(0,0,0)
(0,0,0)
(0,0,0)
(0,0,0)
(0,0,0)
(0,0,0)
(0,0,0)
(0,0,0)
(0,0,0)
(0,0,0)
(0,0,0)
(0,0,0)
(0,0,0)
(0,0,0)
(0,0,0)
(0,0,0)
(0,0,0)
(0,0,0)
(0,0,0)
(0,0,0)
(0,0,0)
(0,0,0)
(0,0,0)
(0,0,0)
(0,0,0)
(0,0,0)
(0,0,0)
(0,0,0)
(0,0,0)
(0,0,0)
(0,0,0)
(0,0,0)
(0,0,0)
(0,0,0)
(0,0,0)
(0,0,0)
(0,0,0)
(0,0,0)
(0,0,0)
(0,0,0)
(0,0,0)
(0,0,0)
(0,0,0)
(0,0,0)
(0,0,0)
(0,0,0)
(0,0,0)
(0,0,0)
(0,0,0)
(0,0,0)
(0,0,0)
(0,0,0)
(0,0,0)
(0,0,0)
(0,0,0)
(0,0,0)
(0,0,0)
(0,0,0)
(0,0,0)
(0,0,0)
(0,0,0)
(0,0,0)
(0,0,0)
(0,0,0)
(0,0,0)
(0,0,0)
(0,0,0)
(0,0,0)
(0,0,0)
(0,0,0)
(0,0,0)
(0,0,0)
(0,0,0)
(0,0,0)
(0,0,0)
(0,0,0)
(0,0,0)
(0,0,0)
(0,0,0)
(0,0,0)
(0,0,0)
(0,0,0)
(0,0,0)
(0,0,0)
(0,0,0)
(0,0,0)
(0,0,0)
(0,0,0)
(0,0,0)
(0,0,0)
(0,0,0)
(0,0,0)
(0,0,0)
(0,0,0)
(0,0,0)
(0,0,0)
(0,0,0)
(0,0,0)
(0,0,0)
(0,0,0)
(0,0,0)
(0,0,0)
(0,0,0)
(0,0,0)
(0,0,0)
(0,0,0)
(0,0,0)
(0,0,0)
(0,0,0)
(0,0,0)
(0,0,0)
(0,0,0)
(0,0,0)
(0,0,0)
(0,0,0)
(0,0,0)
(0,0,0)
(0,0,0)
(0,0,0)
(0,0,0)
(0,0,0)
(0,0,0)
(0,0,0)
(0,0,0)
(0,0,0)
(0,0,0)
(0,0,0)
(0,0,0)
(0,0,0)
(0,0,0)
(0,0,0)
(0,0,0)
(0,0,0)
(0,0,0)
(0,0,0)
(0,0,0)
(0,0,0)
(0,0,0)
(0,0,0)
(0,0,0)
(0,0,0)
(0,0,0)
(0,0,0)
(0,0,0)
(0,0,0)
(0,0,0)
(0,0,0)
(0,0,0)
(0,0,0)
(0,0,0)
(0,0,0)
(0,0,0)
(0,0,0)
(0,0,0)
(0,0,0)
(0,0,0)
(0,0,0)
(0,0,0)
(0,0,0)
(0,0,0)
(0,0,0)
(0,0,0)
(0,0,0)
(0,0,0)
(0,0,0)
(0,0,0)
(0,0,0)
(0,0,0)
(0,0,0)
(0,0,0)
(0,0,0)
(0,0,0)
(0,0,0)
(0,0,0)
(0,0,0)
(0,0,0)
(0,0,0)
(0,0,0)
(0,0,0)
(0,0,0)
(0,0,0)
(0,0,0)
(0,0,0)
(0,0,0)
(0,0,0)
(0,0,0)
(0,0,0)
(0,0,0)
(0,0,0)
(0,0,0)
(0,0,0)
(0,0,0)
(0,0,0)
(0,0,0)
(0,0,0)
(0,0,0)
(0,0,0)
(0,0,0)
(0,0,0)
(0,0,0)
(0,0,0)
(0,0,0)
(0,0,0)
(0,0,0)
(0,0,0)
(0,0,0)
(0,0,0)
(0,0,0)
(0,0,0)
(0,0,0)
(0,0,0)
(0,0,0)
(0,0,0)
(0,0,0)
(0,0,0)
(0,0,0)
(0,0,0)
(0,0,0)
(0,0,0)
(0,0,0)
(0,0,0)
(0,0,0)
(0,0,0)
(0,0,0)
(0,0,0)
(0,0,0)
(0,0,0)
(0,0,0)
(0,0,0)
(0,0,0)
(0,0,0)
(0,0,0)
(0,0,0)
(0,0,0)
(0,0,0)
(0,0,0)
(0,0,0)
(0,0,0)
(0,0,0)
(0,0,0)
(0,0,0)
(0,0,0)
(0,0,0)
(0,0,0)
(0,0,0)
(0,0,0)
(0,0,0)
(0,0,0)
(0,0,0)
(0,0,0)
(0,0,0)
(0,0,0)
(0,0,0)
(0,0,0)
(0,0,0)
(0,0,0)
(0,0,0)
(0,0,0)
(0,0,0)
(0,0,0)
(0,0,0)
(0,0,0)
(0,0,0)
(0,0,0)
(0,0,0)
(0,0,0)
(0,0,0)
(0,0,0)
(0,0,0)
(0,0,0)
(0,0,0)
(0,0,0)
(0,0,0)
(0,0,0)
(0,0,0)
(0,0,0)
(0,0,0)
(0,0,0)
(0,0,0)
(0,0,0)
(0,0,0)
(0,0,0)
(0,0,0)
(0,0,0)
(0,0,0)
(0,0,0)
(0,0,0)
(0,0,0)
(0,0,0)
(0,0,0)
(0,0,0)
(0,0,0)
(0,0,0)
(0,0,0)
(0,0,0)
(0,0,0)
(0,0,0)
(0,0,0)
(0,0,0)
(0,0,0)
(0,0,0)
(0,0,0)
(0,0,0)
(0,0,0)
(0,0,0)
(0,0,0)
(0,0,0)
(0,0,0)
(0,0,0)
(0,0,0)
(0,0,0)
(0,0,0)
(0,0,0)
(0,0,0)
(0,0,0)
(0,0,0)
(0,0,0)
(0,0,0)
(0,0,0)
(0,0,0)
(0,0,0)
(0,0,0)
(0,0,0)
(0,0,0)
(0,0,0)
(0,0,0)
(0,0,0)
(0,0,0)
(0,0,0)
(0,0,0)
(0,0,0)
(0,0,0)
(0,0,0)
(0,0,0)
(0,0,0)
(0,0,0)
(0,0,0)
(0,0,0)
(0,0,0)
(0,0,0)
(0,0,0)
(0,0,0)
(0,0,0)
(0,0,0)
(0,0,0)
(0,0,0)
(0,0,0)
(0,0,0)
(0,0,0)
(0,0,0)
(0,0,0)
(0,0,0)
(0,0,0)
(0,0,0)
(0,0,0)
(0,0,0)
(0,0,0)
(0,0,0)
(0,0,0)
(0,0,0)
(0,0,0)
(0,0,0)
(0,0,0)
(0,0,0)
(0,0,0)
(0,0,0)
(0,0,0)
(0,0,0)
(0,0,0)
(0,0,0)
(0,0,0)
(0,0,0)
(0,0,0)
(0,0,0)
(0,0,0)
(0,0,0)
(0,0,0)
(0,0,0)
(0,0,0)
(0,0,0)
(0,0,0)
(0,0,0)
(0,0,0)
(0,0,0)
(0,0,0)
(0,0,0)
(0,0,0)
(0,0,0)
(0,0,0)
(0,0,0)
(0,0,0)
(0,0,0)
(0,0,0)
(0,0,0)
(0,0,0)
(0,0,0)
(0,0,0)
(0,0,0)
(0,0,0)
(0,0,0)
(0,0,0)
(0,0,0)
(0,0,0)
(0,0,0)
(0,0,0)
(0,0,0)
(0,0,0)
(0,0,0)
(0,0,0)
(0,0,0)
(0,0,0)
(0,0,0)
(0,0,0)
(0,0,0)
(0,0,0)
(0,0,0)
(0,0,0)
(0,0,0)
(0,0,0)
(0,0,0)
(0,0,0)
(0,0,0)
(0,0,0)
(0,0,0)
(0,0,0)
(0,0,0)
(0,0,0)
(0,0,0)
(0,0,0)
(0,0,0)
(0,0,0)
(0,0,0)
(0,0,0)
(0,0,0)
(0,0,0)
(0,0,0)
(0,0,0)
(0,0,0)
(0,0,0)
(0,0,0)
(0,0,0)
(0,0,0)
(0,0,0)
(0,0,0)
(0,0,0)
(0,0,0)
(0,0,0)
(0,0,0)
(0,0,0)
(0,0,0)
(0,0,0)
(0,0,0)
(0,0,0)
(0,0,0)
(0,0,0)
(0,0,0)
(0,0,0)
(0,0,0)
(0,0,0)
(0,0,0)
(0,0,0)
(0,0,0)
(0,0,0)
(0,0,0)
(0,0,0)
(0,0,0)
(0,0,0)
(0,0,0)
(0,0,0)
(0,0,0)
(0,0,0)
(0,0,0)
(0,0,0)
(0,0,0)
(0,0,0)
(0,0,0)
(0,0,0)
(0,0,0)
(0,0,0)
(0,0,0)
(0,0,0)
(0,0,0)
(0,0,0)
(0,0,0)
(0,0,0)
(0,0,0)
(0,0,0)
(0,0,0)
(0,0,0)
(0,0,0)
(0,0,0)
(0,0,0)
(0,0,0)
(0,0,0)
(0,0,0)
(0,0,0)
(0,0,0)
(0,0,0)
(0,0,0)
(0,0,0)
(0,0,0)
(0,0,0)
(0,0,0)
(0,0,0)
(0,0,0)
(0,0,0)
(0,0,0)
(0,0,0)
(0,0,0)
(0,0,0)
(0,0,0)
(0,0,0)
(0,0,0)
(0,0,0)
(0,0,0)
(0,0,0)
(0,0,0)
(0,0,0)
(0,0,0)
(0,0,0)
(0,0,0)
(0,0,0)
(0,0,0)
(0,0,0)
(0,0,0)
(0,0,0)
(0,0,0)
(0,0,0)
(0,0,0)
(0,0,0)
(0,0,0)
(0,0,0)
(0,0,0)
(0,0,0)
(0,0,0)
(0,0,0)
(0,0,0)
(0,0,0)
(0,0,0)
(0,0,0)
(0,0,0)
(0,0,0)
(0,0,0)
(0,0,0)
(0,0,0)
(0,0,0)
(0,0,0)
(0,0,0)
(0,0,0)
(0,0,0)
(0,0,0)
(0,0,0)
(0,0,0)
(0,0,0)
(0,0,0)
(0,0,0)
(0,0,0)
(0,0,0)
(0,0,0)
(0,0,0)
(0,0,0)
(0,0,0)
(0,0,0)
(0,0,0)
(0,0,0)
(0,0,0)
(0,0,0)
(0,0,0)
(0,0,0)
(0,0,0)
(0,0,0)
(0,0,0)
(0,0,0)
(0,0,0)
(0,0,0)
(0,0,0)
(0,0,0)
(0,0,0)
(0,0,0)
(0,0,0)
(0,0,0)
(0,0,0)
(0,0,0)
(0,0,0)
(0,0,0)
(0,0,0)
(0,0,0)
(0,0,0)
(0,0,0)
(0,0,0)
(0,0,0)
(0,0,0)
(0,0,0)
(0,0,0)
(0,0,0)
(0,0,0)
(0,0,0)
(0,0,0)
(0,0,0)
(0,0,0)
(0,0,0)
(0,0,0)
(0,0,0)
(0,0,0)
(0,0,0)
(0,0,0)
(0,0,0)
(-7.74385485232248e-13,7.55749060372069e-13,1.15523549151821e-13)
(-5.04822130064336e-13,1.92890883929427e-12,-2.79792343831077e-13)
(3.98689338647892e-13,2.42886632230954e-12,-7.84392655967275e-13)
(7.51909606277153e-13,3.02150160178111e-12,-1.21501058636145e-12)
(5.24481532103588e-13,4.63351067542459e-12,-1.25670532723986e-12)
(-6.08617061398329e-15,6.49882052670841e-12,-5.37390059379809e-13)
(-1.30273218930058e-12,8.60973723514975e-12,4.51284009261842e-13)
(-1.61237835097155e-12,1.09815088282326e-11,8.13335250113843e-13)
(-1.78030909563231e-12,1.27082658147562e-11,7.40286591111285e-13)
(-1.19234366285786e-12,1.44992540308092e-11,3.00664027459233e-13)
(0,0,0)
(0,0,0)
(0,0,0)
(0,0,0)
(0,0,0)
(0,0,0)
(-7.6502723248115e-14,9.84882673704278e-13,-1.46594671028605e-12)
(6.28739105602017e-13,2.03459171081301e-12,-1.77246315850161e-12)
(2.12432699023923e-12,2.61005833761811e-12,-2.56775327666911e-12)
(2.76066625777286e-12,3.09026586812352e-12,-3.27150497091642e-12)
(2.76369761150002e-12,4.2740308288802e-12,-3.0384300198951e-12)
(1.72386629714758e-12,6.32361849030872e-12,-1.74774031043064e-12)
(-1.14035677896949e-12,8.81868455319055e-12,-1.18035303978771e-13)
(-2.19335665830901e-12,1.10469807685205e-11,7.42092424186708e-13)
(-2.88162471571808e-12,1.28331731461398e-11,7.32381357905598e-13)
(-2.70073944914519e-12,1.48884331885105e-11,3.34891445407446e-13)
(0,0,0)
(0,0,0)
(0,0,0)
(0,0,0)
(0,0,0)
(0,0,0)
(1.53434797390085e-12,1.11883398821107e-12,-3.33562965264034e-12)
(2.48342614989709e-12,2.34009224220301e-12,-3.41414045985813e-12)
(3.90549932854774e-12,2.8137858466605e-12,-3.9687946842169e-12)
(4.93561156285335e-12,2.80867678500073e-12,-4.31374806451257e-12)
(5.0540070348262e-12,3.56990140789132e-12,-3.53484819889297e-12)
(3.94129247389184e-12,5.64255263779722e-12,-2.04423722420617e-12)
(4.82936151357356e-13,8.44168224887512e-12,-5.72102536690956e-13)
(-1.38630434301147e-12,1.08113665489262e-11,3.59963003361478e-13)
(-2.68645373159777e-12,1.26114697608041e-11,6.60743109913178e-13)
(-3.68907554254454e-12,1.5027463474582e-11,5.39104199184625e-13)
(0,0,0)
(0,0,0)
(0,0,0)
(0,0,0)
(0,0,0)
(0,0,0)
(2.96232543320005e-12,1.2385191913408e-12,-4.40787747355878e-12)
(3.69463144030298e-12,2.37099881641343e-12,-4.35548922765083e-12)
(5.05615529908102e-12,2.40796509163674e-12,-4.7200633673072e-12)
(5.95107907741498e-12,1.84783971439861e-12,-4.92816822564715e-12)
(5.78604948759858e-12,2.42350263260194e-12,-4.30460781969983e-12)
(4.88997672399187e-12,4.51539817691464e-12,-3.06030010508428e-12)
(1.58243955475824e-12,7.60635698433772e-12,-1.69040809848834e-12)
(-7.66010139420793e-13,1.02468145434612e-11,-6.86058983808062e-13)
(-2.87033698588897e-12,1.22415217336511e-11,-2.05941925372979e-13)
(-4.45685784175471e-12,1.52270043447583e-11,9.55830722647161e-16)
(0,0,0)
(0,0,0)
(0,0,0)
(0,0,0)
(0,0,0)
(0,0,0)
(3.21652916020637e-12,8.5201071451204e-13,-5.6112305029583e-12)
(3.8498272484219e-12,1.51924671996962e-12,-5.32957298993546e-12)
(4.91300594749678e-12,1.54474327317165e-12,-5.18313429042548e-12)
(4.87691263302145e-12,9.55080695001615e-13,-4.87216507516033e-12)
(4.86723760816044e-12,1.3256064023804e-12,-4.64762154913069e-12)
(4.8129953406993e-12,3.39830323689452e-12,-3.94220551939767e-12)
(2.26109023345365e-12,6.6125082385801e-12,-3.03467611528996e-12)
(-1.46227600500251e-13,9.20492036912741e-12,-1.93182648040835e-12)
(-2.09014459516035e-12,1.13414885294932e-11,-1.25590583564598e-12)
(-3.3713903555708e-12,1.46421152368763e-11,-6.35388486467058e-13)
(0,0,0)
(0,0,0)
(0,0,0)
(0,0,0)
(0,0,0)
(0,0,0)
(2.49449606864166e-12,3.58021471223945e-13,-6.29953549683416e-12)
(2.329364407488e-12,5.82274527082931e-13,-6.19675016603641e-12)
(2.52439970502555e-12,7.76733679680264e-13,-5.92070584114929e-12)
(1.76637587861692e-12,3.90392666879722e-13,-5.26180367991308e-12)
(1.56293417034362e-12,3.8469085556124e-13,-5.16942031451712e-12)
(2.29537610146719e-12,2.61034526839097e-12,-5.03353975301605e-12)
(1.73314911444177e-12,6.01868621282672e-12,-4.60973425905155e-12)
(-6.57730530372915e-14,7.98780941168346e-12,-3.51668848561215e-12)
(-1.73574653453873e-12,1.01590423063786e-11,-2.53204403716699e-12)
(-2.99021514483506e-12,1.36476344227939e-11,-1.31447344950948e-12)
(0,0,0)
(0,0,0)
(0,0,0)
(0,0,0)
(0,0,0)
(0,0,0)
(4.89132127923095e-13,1.95099210169507e-13,-5.77960923520325e-12)
(-1.08466160874909e-12,-5.86840318151538e-14,-6.16174370355246e-12)
(-1.98468208242362e-12,-2.20620856486555e-13,-5.87143793872031e-12)
(-3.43829341260667e-12,-4.56705435799804e-13,-5.47010027516635e-12)
(-3.7691921241506e-12,-5.3366604240798e-13,-6.23389559292112e-12)
(-2.24791944614765e-12,1.81238553159048e-12,-6.96760774558245e-12)
(-1.85423209961377e-12,4.97158216976076e-12,-6.8215097513191e-12)
(-2.58155114555667e-12,6.83926355227194e-12,-5.53451264245428e-12)
(-3.55047191309818e-12,8.90598575330359e-12,-3.86133446769524e-12)
(-4.18401648180575e-12,1.21902950684532e-11,-1.87762702389284e-12)
(0,0,0)
(0,0,0)
(0,0,0)
(0,0,0)
(0,0,0)
(0,0,0)
(-1.74704029813649e-12,4.29313185833583e-13,-6.13892884471048e-12)
(-4.67752887951749e-12,-4.63116817863337e-13,-6.62822921454608e-12)
(-6.04189137148047e-12,-1.06079497430063e-12,-6.92893853512448e-12)
(-7.71365655553608e-12,-6.94028932861574e-13,-7.61105559142854e-12)
(-7.90430790003106e-12,-8.03478231059544e-13,-8.94627857434173e-12)
(-6.67170479341292e-12,1.21758272917218e-12,-9.93466804745527e-12)
(-5.96240646207066e-12,3.9258023201798e-12,-9.77455180460676e-12)
(-5.71483563461695e-12,5.87389074543104e-12,-8.04411777501247e-12)
(-5.71471691735183e-12,7.71984487235092e-12,-5.64201960804935e-12)
(-4.98081167149114e-12,1.08100126328416e-11,-2.95670285940362e-12)
(0,0,0)
(0,0,0)
(0,0,0)
(0,0,0)
(0,0,0)
(0,0,0)
(-3.12839944807613e-12,5.19084008929972e-13,-8.07339949411723e-12)
(-6.22137042192028e-12,-7.34916400338252e-13,-8.21023952717451e-12)
(-8.15496366377782e-12,-1.32367538249243e-12,-8.97294583059129e-12)
(-1.0047984041432e-11,-4.16687425656601e-13,-1.06571098859413e-11)
(-1.03737254246723e-11,-3.59419846527863e-13,-1.23764745268033e-11)
(-1.00753655275443e-11,8.44902102065589e-13,-1.31727851253917e-11)
(-1.00612562773134e-11,2.59270521976609e-12,-1.27173985157482e-11)
(-9.478752785409e-12,4.21233733523932e-12,-1.07869531837737e-11)
(-7.63311373780213e-12,5.98786411938538e-12,-7.93896237150727e-12)
(-6.77123253401358e-12,8.91049907461131e-12,-4.37038295036609e-12)
(0,0,0)
(0,0,0)
(0,0,0)
(0,0,0)
(0,0,0)
(0,0,0)
(-3.53848684540007e-12,2.43720686835443e-13,-1.14685737698068e-11)
(-6.74803910848582e-12,-4.70349954619455e-13,-1.13973227061125e-11)
(-1.00471841498831e-11,-7.56341760801738e-13,-1.2025929621293e-11)
(-1.23504557894874e-11,3.90737458627018e-15,-1.41890936789755e-11)
(-1.28254799905733e-11,1.29626348819894e-13,-1.60760891367183e-11)
(-1.3401953787598e-11,5.45198450392768e-13,-1.6490581210501e-11)
(-1.36140930465113e-11,1.22680715798332e-12,-1.58152709028286e-11)
(-1.24549043749947e-11,2.14147532074821e-12,-1.41242520976362e-11)
(-9.59977950865814e-12,3.58373644638108e-12,-1.11962236264308e-11)
(-8.90739819699299e-12,5.6950699252099e-12,-6.56426378115278e-12)
(0,0,0)
(0,0,0)
(0,0,0)
(0,0,0)
(0,0,0)
(0,0,0)
(0,0,0)
(0,0,0)
(0,0,0)
(0,0,0)
(0,0,0)
(0,0,0)
(0,0,0)
(0,0,0)
(0,0,0)
(0,0,0)
(0,0,0)
(0,0,0)
(0,0,0)
(0,0,0)
(0,0,0)
(0,0,0)
(0,0,0)
(0,0,0)
(0,0,0)
(0,0,0)
(0,0,0)
(0,0,0)
(0,0,0)
(0,0,0)
(0,0,0)
(0,0,0)
(0,0,0)
(0,0,0)
(0,0,0)
(0,0,0)
(0,0,0)
(0,0,0)
(0,0,0)
(0,0,0)
(0,0,0)
(0,0,0)
(0,0,0)
(0,0,0)
(0,0,0)
(0,0,0)
(0,0,0)
(0,0,0)
(0,0,0)
(0,0,0)
(0,0,0)
(0,0,0)
(0,0,0)
(0,0,0)
(0,0,0)
(0,0,0)
(0,0,0)
(0,0,0)
(0,0,0)
(0,0,0)
(0,0,0)
(0,0,0)
(0,0,0)
(0,0,0)
(0,0,0)
(0,0,0)
(0,0,0)
(0,0,0)
(0,0,0)
(0,0,0)
(0,0,0)
(0,0,0)
(0,0,0)
(0,0,0)
(0,0,0)
(0,0,0)
(0,0,0)
(0,0,0)
(0,0,0)
(0,0,0)
(0,0,0)
(0,0,0)
(0,0,0)
(0,0,0)
(0,0,0)
(0,0,0)
(0,0,0)
(0,0,0)
(0,0,0)
(0,0,0)
(0,0,0)
(0,0,0)
(0,0,0)
(0,0,0)
(0,0,0)
(0,0,0)
(0,0,0)
(0,0,0)
(0,0,0)
(0,0,0)
(0,0,0)
(0,0,0)
(-6.08203205579942e-13,1.64108045388338e-12,-1.57075844971666e-12)
(-1.05904689447522e-13,4.14000665557822e-12,-1.83397722122304e-12)
(6.48115253723112e-13,5.12040672561604e-12,-2.28816392114725e-12)
(7.24840080806848e-13,5.99582056498183e-12,-2.48369110205658e-12)
(1.64646110743557e-13,8.71555588114903e-12,-2.14792271677073e-12)
(-8.19558202769049e-13,1.21261628033258e-11,-8.14212495432122e-13)
(-1.87373074810452e-12,1.52745438589502e-11,4.47515845163599e-13)
(-1.60480163249593e-12,1.91050242913059e-11,8.73643772333351e-13)
(-1.46559386343367e-12,2.36367019686e-11,9.71074337916396e-13)
(-1.28085879339252e-12,3.2570079503029e-11,5.52951913576491e-13)
(0,0,0)
(0,0,0)
(0,0,0)
(0,0,0)
(0,0,0)
(0,0,0)
(9.60624104593209e-14,1.66280193456864e-12,-3.96779723266117e-12)
(1.11852869238165e-12,3.93568166653152e-12,-4.64356902273271e-12)
(2.6243511754537e-12,4.8422243067236e-12,-5.39703490358613e-12)
(2.8091803898802e-12,5.63760280739654e-12,-5.48237024480485e-12)
(2.17713732302046e-12,7.50137294178552e-12,-4.48612167823933e-12)
(7.75227143197075e-13,1.09218184597746e-11,-2.30879471095644e-12)
(-1.62348220283501e-12,1.48582611278486e-11,2.59373554221635e-14)
(-1.94803137233335e-12,1.87246646779476e-11,1.30689327336696e-12)
(-2.2624314175381e-12,2.34798299390484e-11,1.50397247283881e-12)
(-2.50487828957789e-12,3.29844290389734e-11,8.67960345980884e-13)
(0,0,0)
(0,0,0)
(0,0,0)
(0,0,0)
(0,0,0)
(0,0,0)
(1.49317357798937e-12,2.17521240640977e-12,-6.69221485521749e-12)
(3.00717380004405e-12,4.16264306566543e-12,-6.95101652787252e-12)
(4.65627346386889e-12,4.59741828621464e-12,-6.87013571844212e-12)
(5.11754876784095e-12,4.79229885195492e-12,-6.28369544739451e-12)
(4.70979483541088e-12,5.80757938678687e-12,-5.09678688364676e-12)
(3.59631224723809e-12,9.16577031913192e-12,-3.04296642548701e-12)
(3.86195875797654e-13,1.38642705513219e-11,-5.3027461801635e-13)
(-1.12253244407274e-12,1.82095351172385e-11,1.16062343242152e-12)
(-2.19486679368093e-12,2.30182519607e-11,1.71376420232183e-12)
(-3.34951221383552e-12,3.29552314876904e-11,1.21303516508399e-12)
(0,0,0)
(0,0,0)
(0,0,0)
(0,0,0)
(0,0,0)
(0,0,0)
(3.2964456641204e-12,2.49753225353034e-12,-8.90475955992727e-12)
(4.91095767640454e-12,3.75816892581606e-12,-8.36284691119072e-12)
(6.12748197588563e-12,3.68827170115495e-12,-7.71765470160361e-12)
(6.22027769086651e-12,3.70673231401718e-12,-7.0568887300675e-12)
(5.63963800320289e-12,4.18742195689266e-12,-6.15862678051538e-12)
(4.63717965741018e-12,7.15239464845883e-12,-4.54465265682516e-12)
(1.57193918583006e-12,1.2297577461276e-11,-2.61934272211793e-12)
(-2.04233023540818e-13,1.73762656261059e-11,-9.02642888378593e-13)
(-2.17720153764828e-12,2.25869306013843e-11,1.68317934526828e-13)
(-3.87101290303184e-12,3.3346974278117e-11,3.84975839513784e-13)
(0,0,0)
(0,0,0)
(0,0,0)
(0,0,0)
(0,0,0)
(0,0,0)
(3.42886089047175e-12,2.11346038504941e-12,-1.03836451740482e-11)
(4.64036074179936e-12,2.76659105561211e-12,-9.36917328513404e-12)
(5.37004632571781e-12,2.74223694092361e-12,-8.60866587856611e-12)
(5.21705713511741e-12,2.72558473144961e-12,-7.81708754621986e-12)
(5.10273712524722e-12,2.54638341585745e-12,-7.22512665969727e-12)
(4.69342390506159e-12,5.149997363367e-12,-6.6511799121016e-12)
(1.75206262435712e-12,1.02648043238885e-11,-6.241257164512e-12)
(3.94962712250464e-13,1.61299157525925e-11,-3.88488463570913e-12)
(-1.52821572132778e-12,2.18339150625784e-11,-2.05274551885859e-12)
(-3.01229802812413e-12,3.30705055162553e-11,-9.18187110730871e-13)
(0,0,0)
(0,0,0)
(0,0,0)
(0,0,0)
(0,0,0)
(0,0,0)
(2.55463299889776e-12,1.09962359163232e-12,-1.07588978413554e-11)
(2.69427864149811e-12,1.40576254023688e-12,-1.00606870525341e-11)
(2.8628520799561e-12,1.5807477272709e-12,-9.58718889520254e-12)
(2.52109061589655e-12,1.62825482599215e-12,-8.84936821911645e-12)
(2.34541050681854e-12,1.32872147047843e-12,-8.79316479463366e-12)
(2.66953034429677e-12,4.19255019008285e-12,-8.97829196663528e-12)
(1.6872073841135e-12,1.02152968856729e-11,-8.31049456480557e-12)
(9.81283580064156e-14,1.4862903728328e-11,-7.05198128746446e-12)
(-1.70026056912065e-12,2.082050825595e-11,-4.99600657358323e-12)
(-2.84734923980634e-12,3.1986161026974e-11,-2.54233938415171e-12)
(0,0,0)
(0,0,0)
(0,0,0)
(0,0,0)
(0,0,0)
(0,0,0)
(6.37052620608714e-13,2.03281092013992e-13,-1.07378736077382e-11)
(-9.70534587533673e-13,1.66214862985561e-13,-1.10368957488325e-11)
(-1.54584562816301e-12,1.08254711269623e-13,-1.08001785725383e-11)
(-2.43717459778896e-12,3.18840919987377e-13,-1.06162288245642e-11)
(-2.7656677828394e-12,-1.29425592518625e-14,-1.18874616165446e-11)
(-1.7992146379956e-12,2.2827992652971e-12,-1.34491976152133e-11)
(-2.09544935892882e-12,7.16729122277298e-12,-1.30594634719739e-11)
(-3.28935651343689e-12,1.24472574257392e-11,-1.19464039519555e-11)
(-4.34803847614003e-12,1.87980959319642e-11,-8.54718904989087e-12)
(-4.68136106974865e-12,2.98587512257305e-11,-4.20629315566462e-12)
(0,0,0)
(0,0,0)
(0,0,0)
(0,0,0)
(0,0,0)
(0,0,0)
(-1.34751075139719e-12,-5.14103172862062e-15,-1.18436787412746e-11)
(-4.10501997646411e-12,-8.95462237692161e-13,-1.29421213188988e-11)
(-5.09689390698289e-12,-1.20951871222605e-12,-1.39727558664108e-11)
(-6.65577507982703e-12,-3.39230497525619e-13,-1.50998294836887e-11)
(-7.35997681145272e-12,-1.21408418030153e-13,-1.71081640234748e-11)
(-6.45914040914861e-12,2.29541233736059e-12,-1.9259374079391e-11)
(-6.35974339124805e-12,5.90191596349626e-12,-1.94462595540736e-11)
(-6.45538039147413e-12,1.03680539092499e-11,-1.66869945829047e-11)
(-6.66805291300039e-12,1.58710058870487e-11,-1.18421325641274e-11)
(-6.0380009727821e-12,2.68922092461392e-11,-6.15220666242673e-12)
(0,0,0)
(0,0,0)
(0,0,0)
(0,0,0)
(0,0,0)
(0,0,0)
(-2.7161960929244e-12,3.90419860860653e-13,-1.56266090213997e-11)
(-5.723230564222e-12,-9.60930538507749e-13,-1.64497309794945e-11)
(-7.03813323011823e-12,-1.40840996181765e-12,-1.83018828410795e-11)
(-8.74921420081261e-12,-2.73828846619837e-13,-2.0751806809123e-11)
(-1.00664610214281e-11,4.52305828409843e-13,-2.31734153517927e-11)
(-1.02310484855182e-11,2.37720935860687e-12,-2.48580872337685e-11)
(-1.06258035475072e-11,4.17137480906523e-12,-2.43006114345229e-11)
(-1.02558815831838e-11,7.46221500002258e-12,-2.13853379202926e-11)
(-8.79756548600234e-12,1.21395891720172e-11,-1.62511851083239e-11)
(-7.92618633490923e-12,2.29083479453543e-11,-9.2509584246893e-12)
(0,0,0)
(0,0,0)
(0,0,0)
(0,0,0)
(0,0,0)
(0,0,0)
(-3.36601722225878e-12,1.53531974266531e-13,-2.51850448552299e-11)
(-6.58978214792469e-12,-5.69688821303793e-13,-2.60609893357751e-11)
(-8.64036185300252e-12,-6.43048461627065e-13,-2.83421982973929e-11)
(-1.04595529571582e-11,1.55979125339549e-13,-3.16550024191889e-11)
(-1.22813615679711e-11,7.80305348740029e-13,-3.41723675172663e-11)
(-1.35320656448796e-11,1.67845806733133e-12,-3.51678070712665e-11)
(-1.40783046937253e-11,2.21039157331362e-12,-3.42358363026563e-11)
(-1.32414575254376e-11,4.00070453457445e-12,-3.19117376572401e-11)
(-1.06480029075529e-11,7.36968382029123e-12,-2.6897829583381e-11)
(-9.77659205291204e-12,1.59212691018648e-11,-1.76709419175412e-11)
(0,0,0)
(0,0,0)
(0,0,0)
(0,0,0)
(0,0,0)
(0,0,0)
(0,0,0)
(0,0,0)
(0,0,0)
(0,0,0)
(0,0,0)
(0,0,0)
(0,0,0)
(0,0,0)
(0,0,0)
(0,0,0)
(0,0,0)
(0,0,0)
(0,0,0)
(0,0,0)
(0,0,0)
(0,0,0)
(0,0,0)
(0,0,0)
(0,0,0)
(0,0,0)
(0,0,0)
(0,0,0)
(0,0,0)
(0,0,0)
(0,0,0)
(0,0,0)
(0,0,0)
(0,0,0)
(0,0,0)
(0,0,0)
(0,0,0)
(0,0,0)
(0,0,0)
(0,0,0)
(0,0,0)
(0,0,0)
(0,0,0)
(0,0,0)
(0,0,0)
(0,0,0)
(0,0,0)
(0,0,0)
(0,0,0)
(0,0,0)
(0,0,0)
(0,0,0)
(0,0,0)
(0,0,0)
(0,0,0)
(0,0,0)
(0,0,0)
(0,0,0)
(0,0,0)
(0,0,0)
(0,0,0)
(0,0,0)
(0,0,0)
(0,0,0)
(0,0,0)
(0,0,0)
(0,0,0)
(0,0,0)
(0,0,0)
(0,0,0)
(0,0,0)
(0,0,0)
(0,0,0)
(0,0,0)
(0,0,0)
(0,0,0)
(0,0,0)
(0,0,0)
(0,0,0)
(0,0,0)
(0,0,0)
(0,0,0)
(0,0,0)
(0,0,0)
(0,0,0)
(0,0,0)
(0,0,0)
(0,0,0)
(0,0,0)
(0,0,0)
(0,0,0)
(0,0,0)
(0,0,0)
(0,0,0)
(0,0,0)
(0,0,0)
(0,0,0)
(0,0,0)
(0,0,0)
(0,0,0)
(0,0,0)
(0,0,0)
(-3.66705914933787e-13,2.46713544800893e-12,-1.84459994367956e-12)
(5.5260699956976e-13,5.55255066996545e-12,-2.25837171185446e-12)
(1.1218248530252e-12,7.49636838064419e-12,-2.77812873134252e-12)
(7.47289453901308e-13,1.02854965316294e-11,-2.68904951652186e-12)
(4.51188283918006e-14,1.36784030043587e-11,-2.05302021647671e-12)
(-8.76942199573957e-13,1.76487680471698e-11,-9.92618116770913e-13)
(-1.88357594442751e-12,2.12849389924322e-11,4.37915336149212e-13)
(-1.32187258457583e-12,2.52188858532746e-11,1.22980009047505e-12)
(-8.90599409700941e-13,2.79073428306308e-11,1.56388888660784e-12)
(-1.14225641574397e-12,3.00797374722031e-11,1.26700210078009e-12)
(0,0,0)
(0,0,0)
(0,0,0)
(0,0,0)
(0,0,0)
(0,0,0)
(2.59423728541831e-13,2.26894580348854e-12,-4.82227643010053e-12)
(1.64503317423854e-12,5.19654862991059e-12,-6.04960684052421e-12)
(2.9544925368238e-12,6.54825441996935e-12,-7.07531366093555e-12)
(2.65823577912206e-12,9.15965111848425e-12,-6.69939363547682e-12)
(1.69360391081374e-12,1.20272713536504e-11,-4.77988178188829e-12)
(1.96543217510013e-13,1.54215681000553e-11,-1.95502706752974e-12)
(-1.9104475447516e-12,1.98627453914471e-11,7.26341374789297e-13)
(-1.62998101038913e-12,2.45929888819642e-11,2.13209761407879e-12)
(-1.16484131272738e-12,2.78915313814055e-11,2.59643317448617e-12)
(-1.60772039212229e-12,3.08349702596263e-11,2.00438404269782e-12)
(0,0,0)
(0,0,0)
(0,0,0)
(0,0,0)
(0,0,0)
(0,0,0)
(1.4296554035145e-12,2.57520137309388e-12,-9.59299055113007e-12)
(3.33076713049369e-12,5.0977255017005e-12,-1.01072985349199e-11)
(4.97897977816344e-12,5.3344274894459e-12,-9.98176191899335e-12)
(5.01620674191319e-12,6.77934703723667e-12,-9.20848814499584e-12)
(4.27613180719701e-12,8.7171835601594e-12,-7.25117668791546e-12)
(3.09699611027329e-12,1.21371801154446e-11,-3.73082088342571e-12)
(2.61990915709934e-13,1.78931676324782e-11,1.62717665705363e-13)
(-8.42403722844792e-13,2.39578395957373e-11,1.98560199084294e-12)
(-1.26281639709671e-12,2.78534289139262e-11,2.65529753315419e-12)
(-2.52821983922151e-12,3.12673179582669e-11,2.12670640272809e-12)
(0,0,0)
(0,0,0)
(0,0,0)
(0,0,0)
(0,0,0)
(0,0,0)
(3.13860488367099e-12,2.67482936707808e-12,-1.43882645787322e-11)
(5.25734333713519e-12,4.21740744557464e-12,-1.34527921486268e-11)
(6.41275076442324e-12,3.8618427609771e-12,-1.21842341628321e-11)
(6.30316332355999e-12,4.64636299057816e-12,-1.09802571671269e-11)
(5.66670242124402e-12,5.46115347756418e-12,-9.22989663096998e-12)
(4.71426700787026e-12,8.46456684655127e-12,-5.86643957796538e-12)
(1.88801248907765e-12,1.54895025028606e-11,-1.88335371946734e-12)
(-2.8843973200906e-14,2.33888866449601e-11,6.37989009132881e-15)
(-1.64084390355945e-12,2.81961222638155e-11,9.26834002240698e-13)
(-3.20956830154338e-12,3.22619242398684e-11,9.29398026223517e-13)
(0,0,0)
(0,0,0)
(0,0,0)
(0,0,0)
(0,0,0)
(0,0,0)
(3.42822579504656e-12,1.8705207833459e-12,-1.60862546075776e-11)
(5.24068185045317e-12,2.57468745921775e-12,-1.49465383105688e-11)
(5.73995720747144e-12,2.08111784562925e-12,-1.39558327467998e-11)
(5.7224261533993e-12,2.64015665861756e-12,-1.30776917683893e-11)
(5.74645232399192e-12,2.20381893322232e-12,-1.18768655747345e-11)
(5.24094833017404e-12,3.76580931220295e-12,-1.05160863325394e-11)
(-5.54802466168407e-13,9.10961608503186e-12,-1.27484370230432e-11)
(-1.70164380706254e-13,2.22577325712443e-11,-5.36353887381373e-12)
(-1.64936732241819e-12,2.80807566905857e-11,-2.47183443056762e-12)
(-2.84614064958489e-12,3.2568743862683e-11,-1.15189333590549e-12)
(0,0,0)
(0,0,0)
(0,0,0)
(0,0,0)
(0,0,0)
(0,0,0)
(2.75276470994947e-12,5.8458412900691e-13,-1.64637262639215e-11)
(3.46032816157125e-12,8.11627781605453e-13,-1.56735054063413e-11)
(3.59752441973178e-12,2.62732949738446e-13,-1.52196947208386e-11)
(3.77430109753382e-12,7.56417656590986e-13,-1.49177170200812e-11)
(3.87220170823719e-12,1.24417389976632e-13,-1.45660715281729e-11)
(3.91148386720523e-12,1.86192443882609e-12,-1.37154807247757e-11)
(3.4766997700404e-12,1.51468550935194e-11,-1.08083131494759e-11)
(4.57799946368298e-13,2.11056932588333e-11,-1.01679639109717e-11)
(-2.13151543427027e-12,2.72812535465089e-11,-7.04591316122335e-12)
(-3.2622788231765e-12,3.16860554569782e-11,-3.60353101505913e-12)
(0,0,0)
(0,0,0)
(0,0,0)
(0,0,0)
(0,0,0)
(0,0,0)
(1.14449688602287e-12,-5.49106963634546e-13,-1.67838268607836e-11)
(-1.4557466339743e-13,-4.54847797134455e-13,-1.66951817794952e-11)
(-4.12021953086994e-13,-8.95624291238454e-13,-1.68447551291648e-11)
(-5.07870387818669e-13,-4.38559366834655e-13,-1.76173039787459e-11)
(-1.09546592509149e-12,-1.70049593031409e-12,-1.93629648829288e-11)
(-2.20156185416405e-12,-3.05312995322148e-12,-2.14071144086721e-11)
(-1.94313361908455e-12,5.22488535408547e-12,-1.75845495107708e-11)
(-4.60936789962369e-12,1.68524758446947e-11,-2.00648890023855e-11)
(-5.76184432476755e-12,2.4578756238416e-11,-1.34065648010454e-11)
(-5.92111224599139e-12,2.90951819900403e-11,-6.37094368149938e-12)
(0,0,0)
(0,0,0)
(0,0,0)
(0,0,0)
(0,0,0)
(0,0,0)
(-6.44629066274861e-13,-1.04231125183833e-12,-1.69366201603693e-11)
(-3.00891712832576e-12,-1.50806639940925e-12,-1.80000331718942e-11)
(-3.77092904035835e-12,-1.64728691245385e-12,-1.95914006668461e-11)
(-4.71284219034842e-12,-6.49303362091616e-13,-2.17049197209675e-11)
(-5.7824810025006e-12,-8.09642037688955e-13,-2.44405609402794e-11)
(-6.35405195568473e-12,9.26686552414662e-14,-2.77175931211406e-11)
(-7.38846720761357e-12,6.88457533934024e-12,-2.92515343290219e-11)
(-8.39440350156657e-12,1.44127163295112e-11,-2.48307712561475e-11)
(-8.62656209974376e-12,2.00214089973814e-11,-1.66924553789097e-11)
(-8.2063463341104e-12,2.44161770505131e-11,-8.20949210579801e-12)
(0,0,0)
(0,0,0)
(0,0,0)
(0,0,0)
(0,0,0)
(0,0,0)
(-1.65618624845251e-12,-4.69976829175929e-13,-1.79029697710057e-11)
(-4.26232041944641e-12,-1.56071519339857e-12,-1.9183426721446e-11)
(-5.35357076283782e-12,-1.67541520323779e-12,-2.18924531155631e-11)
(-6.75741362954575e-12,-5.93522993215516e-13,-2.50704944923676e-11)
(-8.70978865971423e-12,1.36026668707172e-13,-2.80201924754028e-11)
(-1.0089772993204e-11,1.95142899746735e-12,-3.06069910557027e-11)
(-1.15800938264156e-11,5.44130939404308e-12,-3.06669223110204e-11)
(-1.19285239296064e-11,1.03033167793666e-11,-2.64633333088898e-11)
(-1.10278868181379e-11,1.44487455115519e-11,-1.87872430130454e-11)
(-1.01900659160276e-11,1.86682412808091e-11,-9.88733457553203e-12)
(0,0,0)
(0,0,0)
(0,0,0)
(0,0,0)
(0,0,0)
(0,0,0)
(-2.33654076781358e-12,-3.90848499207799e-13,-1.93752502849225e-11)
(-4.87826200815517e-12,-1.17181258636349e-12,-2.11665817944754e-11)
(-5.9706061923745e-12,-1.15685101544336e-12,-2.4746013471226e-11)
(-7.78620873402255e-12,-4.04227706373644e-13,-2.88865290172428e-11)
(-1.05056166650447e-11,4.75491881036283e-13,-3.19153965548087e-11)
(-1.27855783464473e-11,1.73289470845707e-12,-3.368171935743e-11)