/*--------------------------------*- C++ -*----------------------------------*\
| =========                 |                                                 |
| \\      /  F ield         | foam-extend: Open Source CFD                    |
|  \\    /   O peration     | Version:     4.0                                |
|   \\  /    A nd           | Web:         http://www.foam-extend.org         |
|    \\/     M anipulation  |                                                 |
\*---------------------------------------------------------------------------*/
FoamFile
{
    version 2.0;
    format ascii;
    class volVectorField;
    location "Data/1258";
    object      E;
}
// * * * * * * * * * * * * * * * * * * * * * * * * * * * * * * * * * * * * * //

dimensions      [0 1 -1 0 0 0 0];

internalField   nonuniform List<vector>
4096
(
(0,0,0)
(0,0,0)
(0,0,0)
(0,0,0)
(0,0,0)
(0,0,0)
(0,0,0)
(0,0,0)
(0,0,0)
(0,0,0)
(0,0,0)
(0,0,0)
(0,0,0)
(0,0,0)
(0,0,0)
(0,0,0)
(0,0,0)
(0,0,0)
(0,0,0)
(0,0,0)
(0,0,0)
(0,0,0)
(0,0,0)
(0,0,0)
(0,0,0)
(0,0,0)
(0,0,0)
(0,0,0)
(0,0,0)
(0,0,0)
(0,0,0)
(0,0,0)
(0,0,0)
(0,0,0)
(0,0,0)
(0,0,0)
(0,0,0)
(0,0,0)
(0,0,0)
(0,0,0)
(0,0,0)
(0,0,0)
(0,0,0)
(0,0,0)
(0,0,0)
(0,0,0)
(0,0,0)
(0,0,0)
(0,0,0)
(0,0,0)
(0,0,0)
(0,0,0)
(0,0,0)
(0,0,0)
(0,0,0)
(0,0,0)
(0,0,0)
(0,0,0)
(0,0,0)
(0,0,0)
(0,0,0)
(0,0,0)
(0,0,0)
(0,0,0)
(0,0,0)
(0,0,0)
(0,0,0)
(0,0,0)
(0,0,0)
(0,0,0)
(0,0,0)
(0,0,0)
(0,0,0)
(0,0,0)
(0,0,0)
(0,0,0)
(0,0,0)
(0,0,0)
(0,0,0)
(0,0,0)
(0,0,0)
(0,0,0)
(0,0,0)
(0,0,0)
(0,0,0)
(0,0,0)
(0,0,0)
(0,0,0)
(0,0,0)
(0,0,0)
(0,0,0)
(0,0,0)
(0,0,0)
(0,0,0)
(0,0,0)
(0,0,0)
(0,0,0)
(0,0,0)
(0,0,0)
(0,0,0)
(0,0,0)
(0,0,0)
(0,0,0)
(0,0,0)
(0,0,0)
(0,0,0)
(0,0,0)
(0,0,0)
(0,0,0)
(0,0,0)
(0,0,0)
(0,0,0)
(0,0,0)
(0,0,0)
(0,0,0)
(0,0,0)
(0,0,0)
(0,0,0)
(0,0,0)
(0,0,0)
(0,0,0)
(0,0,0)
(0,0,0)
(0,0,0)
(0,0,0)
(0,0,0)
(0,0,0)
(0,0,0)
(0,0,0)
(0,0,0)
(0,0,0)
(0,0,0)
(0,0,0)
(0,0,0)
(0,0,0)
(0,0,0)
(0,0,0)
(0,0,0)
(0,0,0)
(0,0,0)
(0,0,0)
(0,0,0)
(0,0,0)
(0,0,0)
(0,0,0)
(0,0,0)
(0,0,0)
(0,0,0)
(0,0,0)
(0,0,0)
(0,0,0)
(0,0,0)
(0,0,0)
(0,0,0)
(0,0,0)
(0,0,0)
(0,0,0)
(0,0,0)
(0,0,0)
(0,0,0)
(0,0,0)
(0,0,0)
(0,0,0)
(0,0,0)
(0,0,0)
(0,0,0)
(0,0,0)
(0,0,0)
(0,0,0)
(0,0,0)
(0,0,0)
(0,0,0)
(0,0,0)
(0,0,0)
(0,0,0)
(0,0,0)
(0,0,0)
(0,0,0)
(0,0,0)
(0,0,0)
(0,0,0)
(0,0,0)
(0,0,0)
(0,0,0)
(0,0,0)
(0,0,0)
(0,0,0)
(0,0,0)
(0,0,0)
(0,0,0)
(0,0,0)
(0,0,0)
(0,0,0)
(0,0,0)
(0,0,0)
(0,0,0)
(0,0,0)
(0,0,0)
(0,0,0)
(0,0,0)
(0,0,0)
(0,0,0)
(0,0,0)
(0,0,0)
(0,0,0)
(0,0,0)
(0,0,0)
(0,0,0)
(0,0,0)
(0,0,0)
(0,0,0)
(0,0,0)
(0,0,0)
(0,0,0)
(0,0,0)
(0,0,0)
(0,0,0)
(0,0,0)
(0,0,0)
(0,0,0)
(0,0,0)
(0,0,0)
(0,0,0)
(0,0,0)
(0,0,0)
(0,0,0)
(0,0,0)
(0,0,0)
(0,0,0)
(0,0,0)
(0,0,0)
(0,0,0)
(0,0,0)
(0,0,0)
(0,0,0)
(0,0,0)
(0,0,0)
(0,0,0)
(0,0,0)
(0,0,0)
(0,0,0)
(0,0,0)
(0,0,0)
(0,0,0)
(0,0,0)
(0,0,0)
(0,0,0)
(0,0,0)
(0,0,0)
(0,0,0)
(0,0,0)
(0,0,0)
(0,0,0)
(0,0,0)
(0,0,0)
(0,0,0)
(0,0,0)
(0,0,0)
(0,0,0)
(0,0,0)
(0,0,0)
(0,0,0)
(0,0,0)
(0,0,0)
(0,0,0)
(0,0,0)
(0,0,0)
(0,0,0)
(0,0,0)
(0,0,0)
(0,0,0)
(0,0,0)
(0,0,0)
(0,0,0)
(0,0,0)
(0,0,0)
(0,0,0)
(0,0,0)
(0,0,0)
(0,0,0)
(0,0,0)
(0,0,0)
(0,0,0)
(0,0,0)
(0,0,0)
(0,0,0)
(0,0,0)
(0,0,0)
(0,0,0)
(0,0,0)
(0,0,0)
(0,0,0)
(0,0,0)
(0,0,0)
(0,0,0)
(0,0,0)
(0,0,0)
(0,0,0)
(0,0,0)
(0,0,0)
(0,0,0)
(0,0,0)
(0,0,0)
(0,0,0)
(0,0,0)
(0,0,0)
(0,0,0)
(0,0,0)
(0,0,0)
(0,0,0)
(0,0,0)
(0,0,0)
(0,0,0)
(0,0,0)
(0,0,0)
(0,0,0)
(0,0,0)
(0,0,0)
(0,0,0)
(0,0,0)
(0,0,0)
(0,0,0)
(0,0,0)
(0,0,0)
(0,0,0)
(0,0,0)
(0,0,0)
(0,0,0)
(0,0,0)
(0,0,0)
(0,0,0)
(0,0,0)
(0,0,0)
(0,0,0)
(0,0,0)
(0,0,0)
(0,0,0)
(0,0,0)
(0,0,0)
(0,0,0)
(0,0,0)
(0,0,0)
(0,0,0)
(0,0,0)
(0,0,0)
(0,0,0)
(0,0,0)
(0,0,0)
(0,0,0)
(0,0,0)
(0,0,0)
(0,0,0)
(0,0,0)
(0,0,0)
(0,0,0)
(0,0,0)
(0,0,0)
(0,0,0)
(0,0,0)
(0,0,0)
(0,0,0)
(0,0,0)
(0,0,0)
(0,0,0)
(0,0,0)
(0,0,0)
(0,0,0)
(0,0,0)
(0,0,0)
(0,0,0)
(0,0,0)
(0,0,0)
(0,0,0)
(0,0,0)
(0,0,0)
(0,0,0)
(0,0,0)
(0,0,0)
(0,0,0)
(0,0,0)
(0,0,0)
(0,0,0)
(0,0,0)
(0,0,0)
(0,0,0)
(0,0,0)
(0,0,0)
(0,0,0)
(0,0,0)
(0,0,0)
(0,0,0)
(0,0,0)
(0,0,0)
(0,0,0)
(0,0,0)
(0,0,0)
(0,0,0)
(0,0,0)
(0,0,0)
(0,0,0)
(0,0,0)
(0,0,0)
(0,0,0)
(0,0,0)
(0,0,0)
(0,0,0)
(0,0,0)
(0,0,0)
(0,0,0)
(0,0,0)
(0,0,0)
(0,0,0)
(0,0,0)
(0,0,0)
(0,0,0)
(0,0,0)
(0,0,0)
(0,0,0)
(0,0,0)
(0,0,0)
(0,0,0)
(0,0,0)
(0,0,0)
(0,0,0)
(0,0,0)
(0,0,0)
(0,0,0)
(0,0,0)
(0,0,0)
(0,0,0)
(0,0,0)
(0,0,0)
(0,0,0)
(0,0,0)
(0,0,0)
(0,0,0)
(0,0,0)
(0,0,0)
(0,0,0)
(0,0,0)
(0,0,0)
(0,0,0)
(0,0,0)
(0,0,0)
(0,0,0)
(0,0,0)
(0,0,0)
(0,0,0)
(0,0,0)
(0,0,0)
(0,0,0)
(0,0,0)
(0,0,0)
(0,0,0)
(0,0,0)
(0,0,0)
(0,0,0)
(0,0,0)
(0,0,0)
(0,0,0)
(0,0,0)
(0,0,0)
(0,0,0)
(0,0,0)
(0,0,0)
(0,0,0)
(0,0,0)
(0,0,0)
(0,0,0)
(0,0,0)
(0,0,0)
(0,0,0)
(0,0,0)
(0,0,0)
(0,0,0)
(0,0,0)
(0,0,0)
(0,0,0)
(0,0,0)
(0,0,0)
(0,0,0)
(0,0,0)
(0,0,0)
(0,0,0)
(0,0,0)
(0,0,0)
(0,0,0)
(0,0,0)
(0,0,0)
(0,0,0)
(0,0,0)
(0,0,0)
(0,0,0)
(0,0,0)
(0,0,0)
(0,0,0)
(0,0,0)
(0,0,0)
(0,0,0)
(0,0,0)
(0,0,0)
(0,0,0)
(0,0,0)
(0,0,0)
(0,0,0)
(0,0,0)
(0,0,0)
(0,0,0)
(0,0,0)
(0,0,0)
(0,0,0)
(0,0,0)
(0,0,0)
(0,0,0)
(0,0,0)
(0,0,0)
(0,0,0)
(0,0,0)
(0,0,0)
(0,0,0)
(0,0,0)
(0,0,0)
(0,0,0)
(0,0,0)
(0,0,0)
(0,0,0)
(0,0,0)
(0,0,0)
(0,0,0)
(0,0,0)
(0,0,0)
(0,0,0)
(0,0,0)
(0,0,0)
(0,0,0)
(0,0,0)
(0,0,0)
(0,0,0)
(0,0,0)
(0,0,0)
(0,0,0)
(0,0,0)
(0,0,0)
(0,0,0)
(0,0,0)
(0,0,0)
(0,0,0)
(0,0,0)
(0,0,0)
(0,0,0)
(0,0,0)
(0,0,0)
(0,0,0)
(0,0,0)
(0,0,0)
(0,0,0)
(0,0,0)
(0,0,0)
(0,0,0)
(0,0,0)
(0,0,0)
(0,0,0)
(0,0,0)
(0,0,0)
(0,0,0)
(0,0,0)
(0,0,0)
(0,0,0)
(0,0,0)
(0,0,0)
(0,0,0)
(0,0,0)
(0,0,0)
(0,0,0)
(0,0,0)
(0,0,0)
(0,0,0)
(0,0,0)
(0,0,0)
(0,0,0)
(0,0,0)
(0,0,0)
(0,0,0)
(0,0,0)
(0,0,0)
(0,0,0)
(0,0,0)
(0,0,0)
(0,0,0)
(0,0,0)
(0,0,0)
(0,0,0)
(0,0,0)
(0,0,0)
(0,0,0)
(0,0,0)
(0,0,0)
(0,0,0)
(0,0,0)
(0,0,0)
(0,0,0)
(0,0,0)
(0,0,0)
(0,0,0)
(0,0,0)
(0,0,0)
(0,0,0)
(0,0,0)
(0,0,0)
(0,0,0)
(0,0,0)
(0,0,0)
(0,0,0)
(0,0,0)
(0,0,0)
(0,0,0)
(0,0,0)
(0,0,0)
(0,0,0)
(0,0,0)
(0,0,0)
(0,0,0)
(0,0,0)
(0,0,0)
(0,0,0)
(0,0,0)
(0,0,0)
(0,0,0)
(0,0,0)
(0,0,0)
(0,0,0)
(0,0,0)
(0,0,0)
(0,0,0)
(0,0,0)
(0,0,0)
(0,0,0)
(0,0,0)
(0,0,0)
(0,0,0)
(0,0,0)
(0,0,0)
(0,0,0)
(0,0,0)
(0,0,0)
(0,0,0)
(0,0,0)
(0,0,0)
(0,0,0)
(0,0,0)
(0,0,0)
(0,0,0)
(0,0,0)
(0,0,0)
(0,0,0)
(0,0,0)
(0,0,0)
(0,0,0)
(0,0,0)
(0,0,0)
(0,0,0)
(0,0,0)
(0,0,0)
(0,0,0)
(0,0,0)
(0,0,0)
(0,0,0)
(0,0,0)
(0,0,0)
(0,0,0)
(0,0,0)
(0,0,0)
(0,0,0)
(0,0,0)
(0,0,0)
(0,0,0)
(0,0,0)
(0,0,0)
(0,0,0)
(0,0,0)
(0,0,0)
(0,0,0)
(0,0,0)
(0,0,0)
(0,0,0)
(0,0,0)
(0,0,0)
(0,0,0)
(0,0,0)
(0,0,0)
(0,0,0)
(0,0,0)
(0,0,0)
(0,0,0)
(0,0,0)
(0,0,0)
(0,0,0)
(0,0,0)
(0,0,0)
(0,0,0)
(0,0,0)
(0,0,0)
(0,0,0)
(0,0,0)
(0,0,0)
(0,0,0)
(0,0,0)
(0,0,0)
(0,0,0)
(0,0,0)
(0,0,0)
(0,0,0)
(0,0,0)
(0,0,0)
(0,0,0)
(0,0,0)
(0,0,0)
(0,0,0)
(0,0,0)
(0,0,0)
(0,0,0)
(0,0,0)
(0,0,0)
(0,0,0)
(0,0,0)
(0,0,0)
(0,0,0)
(0,0,0)
(0,0,0)
(0,0,0)
(0,0,0)
(0,0,0)
(0,0,0)
(0,0,0)
(0,0,0)
(0,0,0)
(0,0,0)
(0,0,0)
(0,0,0)
(0,0,0)
(0,0,0)
(0,0,0)
(0,0,0)
(0,0,0)
(0,0,0)
(0,0,0)
(0,0,0)
(0,0,0)
(0,0,0)
(0,0,0)
(0,0,0)
(0,0,0)
(0,0,0)
(0,0,0)
(0,0,0)
(0,0,0)
(0,0,0)
(0,0,0)
(0,0,0)
(0,0,0)
(0,0,0)
(0,0,0)
(0,0,0)
(0,0,0)
(0,0,0)
(0,0,0)
(0,0,0)
(0,0,0)
(0,0,0)
(0,0,0)
(0,0,0)
(0,0,0)
(0,0,0)
(0,0,0)
(0,0,0)
(0,0,0)
(0,0,0)
(0,0,0)
(0,0,0)
(0,0,0)
(0,0,0)
(0,0,0)
(0,0,0)
(0,0,0)
(0,0,0)
(0,0,0)
(0,0,0)
(0,0,0)
(0,0,0)
(0,0,0)
(0,0,0)
(0,0,0)
(0,0,0)
(0,0,0)
(0,0,0)
(0,0,0)
(0,0,0)
(0,0,0)
(0,0,0)
(0,0,0)
(0,0,0)
(0,0,0)
(0,0,0)
(0,0,0)
(0,0,0)
(0,0,0)
(0,0,0)
(0,0,0)
(0,0,0)
(0,0,0)
(0,0,0)
(0,0,0)
(0,0,0)
(0,0,0)
(0,0,0)
(0,0,0)
(0,0,0)
(0,0,0)
(0,0,0)
(-84016.561146408,44647.6507238099,39368.910422598)
(-88830.9133294237,42824.6203679077,85375.2033841141)
(-100034.674211527,39009.2655091562,146400.612086485)
(-121280.038034414,32984.1996867453,234696.450434155)
(-159564.18714592,24862.5362657646,369398.101314317)
(-228232.793785016,15548.1277544472,582082.767344872)
(-352608.516276966,7088.53521026128,927602.748411612)
(-577310.721140293,1889.49655306182,1503023.97299883)
(-952241.64846573,125.525617675098,2455140.09584695)
(-1326776.90457386,-44.243188509407,3781961.24360932)
(0,0,0)
(0,0,0)
(0,0,0)
(0,0,0)
(0,0,0)
(0,0,0)
(-88860.8285932566,96034.0357712279,37474.4435458382)
(-93720.1540476111,92561.5627167759,81457.6552445841)
(-105116.398777207,85275.7168462644,140307.60268468)
(-126856.931987784,73651.9550780919,226496.77928112)
(-166208.953519205,57593.88549515,359974.383570938)
(-236546.593386892,38512.7554202687,573556.349292014)
(-362288.846415471,20487.5625243345,922446.168393379)
(-586118.398359111,9072.11868410306,1501381.94462142)
(-958085.490570255,4523.72434166732,2455069.23646774)
(-1329496.32553022,2341.89080419399,3782179.42800517)
(0,0,0)
(0,0,0)
(0,0,0)
(0,0,0)
(0,0,0)
(0,0,0)
(-99977.9515597385,162113.635443383,33898.351887583)
(-104941.608511212,157408.041550518,73993.4815650537)
(-116721.015445488,147492.976314174,128497.237542637)
(-139521.113501935,131440.193994701,210230.112127964)
(-181365.564136799,108540.236496605,340649.325263308)
(-256064.364763087,79938.281599005,555288.163847659)
(-386104.211078522,50987.1719316727,910892.765518846)
(-608028.707332278,31121.5967631316,1496871.99477207)
(-972180.690975639,20569.6736383739,2453006.73645107)
(-1335874.5040285,11171.0058777912,3780052.12540595)
(0,0,0)
(0,0,0)
(0,0,0)
(0,0,0)
(0,0,0)
(0,0,0)
(-120679.571912325,253607.654214843,29185.553140865)
(-125759.367445026,248354.433953466,63998.528182945)
(-137995.187726447,237194.506583204,112292.185640355)
(-162354.926076854,218916.467993343,187170.837718564)
(-208338.202769991,192192.842570465,311856.434414697)
(-291401.54289929,157044.681338033,526151.577574954)
(-431741.779929442,117998.501336601,890882.028099481)
(-650459.153285718,86159.7340954295,1486303.04405287)
(-998055.628108159,61273.2383937874,2443655.10740557)
(-1347154.67860642,32982.7681506086,3768998.02373926)
(0,0,0)
(0,0,0)
(0,0,0)
(0,0,0)
(0,0,0)
(0,0,0)
(-157770.25926771,387417.734791558,23960.1786909946)
(-162848.846647287,382311.732632203,52851.7266595433)
(-175326.97324606,371425.318811477,93947.8876773297)
(-201014.711421591,353564.887354452,160314.179737815)
(-251281.346029273,327197.515715684,276590.852621874)
(-344694.582545376,291333.41987834,486996.696626928)
(-501252.273881107,247372.615140675,858874.856703965)
(-715052.558110064,198766.870983828,1461320.27792565)
(-1035654.60104002,142904.232845391,2415343.88451412)
(-1363471.92474795,75768.1421303976,3736030.4352823)
(0,0,0)
(0,0,0)
(0,0,0)
(0,0,0)
(0,0,0)
(0,0,0)
(-224717.132978554,593242.779726993,18892.0880431202)
(-229545.96042695,588691.868246516,42057.9128557552)
(-241625.779469567,578981.475703563,76127.5354332365)
(-267065.409652961,562879.584623303,133878.247817344)
(-317854.83872812,538297.537816759,240633.064444389)
(-413023.194846637,502070.905126658,442918.774042714)
(-570026.422648016,450177.781057936,810140.030773493)
(-774101.834855899,377616.951549052,1405391.78506415)
(-1076368.27834962,276515.686773509,2348148.60948569)
(-1384003.28233605,147647.81539017,3660272.21856189)
(0,0,0)
(0,0,0)
(0,0,0)
(0,0,0)
(0,0,0)
(0,0,0)
(-347649.674724616,926444.296490595,14448.1579610158)
(-351921.972872067,922517.127294447,32544.8717851497)
(-362755.633510073,914078.206788424,60203.774210366)
(-385976.972785785,899690.696308578,109369.635310879)
(-433136.018665933,876372.90108738,204430.290706192)
(-522569.515627032,838018.31693548,391052.394524394)
(-669929.801812242,773565.494101251,737594.483293326)
(-855513.048739394,666438.403291205,1304286.08029056)
(-1137126.61571534,498661.887802121,2219266.49497723)
(-1417519.31595635,271745.984909839,3512687.64141396)
(0,0,0)
(0,0,0)
(0,0,0)
(0,0,0)
(0,0,0)
(0,0,0)
(-572443.342746838,1488280.8697337,10606.7695037279)
(-575880.446270276,1484744.75755012,24259.5855183385)
(-584608.007859723,1476925.87056118,46019.9296053183)
(-603476.521271428,1462934.94759144,86252.1995938766)
(-642230.241867674,1438519.86815844,166335.474390483)
(-716594.324473744,1394082.04475227,326866.071047434)
(-840028.458340483,1309769.94030881,630690.083180341)
(-990277.205156162,1150742.3666045,1136663.32502322)
(-1247446.84907493,890275.122409254,1992496.93949102)
(-1481607.277965,504657.073657118,3241193.12870868)
(0,0,0)
(0,0,0)
(0,0,0)
(0,0,0)
(0,0,0)
(0,0,0)
(-948851.908557496,2430014.15805057,7118.62024061329)
(-951201.295874876,2426501.49230725,16563.1813583706)
(-957145.234925409,2418395.08374288,32239.2031020408)
(-969843.929335858,2402925.72041135,62092.3596179853)
(-995455.101811141,2373745.40701059,122321.922576997)
(-1043594.79347732,2316980.28329277,243018.477513805)
(-1124408.21597784,2205128.5952499,472068.038550558)
(-1244421.71763593,1990729.93844069,876502.18435029)
(-1450892.54820157,1610533.07074764,1607136.78421344)
(-1593394.08066976,968357.462383345,2736830.47615698)
(0,0,0)
(0,0,0)
(0,0,0)
(0,0,0)
(0,0,0)
(0,0,0)
(-1325229.69474605,3751637.14559133,3606.70720527206)
(-1326402.67072765,3747985.50872993,8525.3615102469)
(-1329363.87761677,3739365.85067714,16918.4721927832)
(-1335599.93789795,3722293.80386868,33150.3266334194)
(-1347991.66522827,3688900.18561933,65987.2132529626)
(-1371169.79918284,3622486.86768417,131650.428044403)
(-1411619.51383838,3490351.55863034,258046.978502331)
(-1479745.70688425,3231888.8292267,496633.79460053)
(-1593046.10583153,2734906.33774625,965306.633433437)
(-1604379.47579546,1769203.69925495,1768839.8723573)
(0,0,0)
(0,0,0)
(0,0,0)
(0,0,0)
(0,0,0)
(0,0,0)
(0,0,0)
(0,0,0)
(0,0,0)
(0,0,0)
(0,0,0)
(0,0,0)
(0,0,0)
(0,0,0)
(0,0,0)
(0,0,0)
(0,0,0)
(0,0,0)
(0,0,0)
(0,0,0)
(0,0,0)
(0,0,0)
(0,0,0)
(0,0,0)
(0,0,0)
(0,0,0)
(0,0,0)
(0,0,0)
(0,0,0)
(0,0,0)
(0,0,0)
(0,0,0)
(0,0,0)
(0,0,0)
(0,0,0)
(0,0,0)
(0,0,0)
(0,0,0)
(0,0,0)
(0,0,0)
(0,0,0)
(0,0,0)
(0,0,0)
(0,0,0)
(0,0,0)
(0,0,0)
(0,0,0)
(0,0,0)
(0,0,0)
(0,0,0)
(0,0,0)
(0,0,0)
(0,0,0)
(0,0,0)
(0,0,0)
(0,0,0)
(0,0,0)
(0,0,0)
(0,0,0)
(0,0,0)
(0,0,0)
(0,0,0)
(0,0,0)
(0,0,0)
(0,0,0)
(0,0,0)
(0,0,0)
(0,0,0)
(0,0,0)
(0,0,0)
(0,0,0)
(0,0,0)
(0,0,0)
(0,0,0)
(0,0,0)
(0,0,0)
(0,0,0)
(0,0,0)
(0,0,0)
(0,0,0)
(0,0,0)
(0,0,0)
(0,0,0)
(0,0,0)
(0,0,0)
(0,0,0)
(0,0,0)
(0,0,0)
(0,0,0)
(0,0,0)
(0,0,0)
(0,0,0)
(0,0,0)
(0,0,0)
(0,0,0)
(0,0,0)
(0,0,0)
(0,0,0)
(0,0,0)
(0,0,0)
(0,0,0)
(0,0,0)
(12443946.592756,39861.7795737,34490.3765271559)
(12435880.51582,37971.8567421368,74122.4006388729)
(12417257.1173733,33963.3113397046,125182.607717559)
(12382349.3313718,27446.048674122,196422.499640462)
(12320194.2084843,18265.1240246556,300714.2899888)
(12209729.3694939,7286.13010930019,457781.306603735)
(12007074.8926003,-2570.66493511584,702983.872664767)
(11606726.6512698,-6938.61420204758,1128200.4244599)
(10703360.7424357,-5770.32601347596,2080683.66957516)
(8250122.76816879,-2805.24679135855,5108904.55362711)
(0,0,0)
(0,0,0)
(0,0,0)
(0,0,0)
(0,0,0)
(0,0,0)
(12435702.9774593,85045.218382866,32568.0651415987)
(12427625.0666799,81468.1829459671,70041.828213508)
(12408816.7634086,73806.6701999002,118580.617170779)
(12373243.2316295,61099.4666154749,187142.345615332)
(12309371.1152605,42522.6024239011,289620.10843967)
(12195790.9304515,19036.0360968027,447847.988616951)
(11990046.6353058,-3368.31813342904,698625.470097297)
(11591372.8767247,-12922.6792426993,1129433.57005737)
(10693854.9648532,-9653.296500041,2083691.39512363)
(8245974.94000405,-4093.73246467379,5111823.92526584)
(0,0,0)
(0,0,0)
(0,0,0)
(0,0,0)
(0,0,0)
(0,0,0)
(12416945.3370295,141512.267098788,28924.9726980485)
(12408810.7233594,136719.622281057,62236.5114956204)
(12389602.4733748,126343.646748324,105691.356130224)
(12352497.9178527,108709.920743295,168377.180651039)
(12284226.1351264,81652.7874615477,265970.606353358)
(12161346.2444393,44614.4253941364,425296.917856833)
(11943861.7805069,5298.37432964774,688979.5438116)
(11549001.8871137,-11385.6322429941,1132727.21236928)
(10669257.2086407,-5369.78655826492,2089321.11281432)
(8235785.42398349,-150.98296814655,5116033.74530911)
(0,0,0)
(0,0,0)
(0,0,0)
(0,0,0)
(0,0,0)
(0,0,0)
(12382402.4544419,216609.872493887,24135.6782539523)
(12374241.7622182,211369.006861064,51800.4740140653)
(12354563.7610702,199971.205931217,87929.2760377681)
(12315051.037479,180364.309515061,141184.233713449)
(12238661.7758723,149326.177617233,228826.174918676)
(12094743.429101,103745.512628067,385865.425687754)
(11841105.2859888,48445.3554390811,672186.688663311)
(11452451.5446687,21491.6893592481,1138713.97910985)
(10619446.5054053,23606.646063875,2094550.72297744)
(8216667.94021797,16632.8701909334,5116259.56099729)
(0,0,0)
(0,0,0)
(0,0,0)
(0,0,0)
(0,0,0)
(0,0,0)
(12321648.4573613,320571.104340256,18935.3615278717)
(12313650.6868597,315703.867428333,40416.2774568073)
(12293857.6877138,305226.790559054,68291.3418723972)
(12252269.2703544,287609.162688776,110077.816925972)
(12166578.3663229,260668.487323078,183191.104871262)
(11991125.6533678,222967.105535211,330464.586054244)
(11656383.9629144,178507.408000015,645081.606701037)
(11273456.9004516,139636.805663166,1140742.34183872)
(10541358.4729947,102131.218437642,2087520.00543337)
(8188200.42177268,55208.9464415834,5099586.89266539)
(0,0,0)
(0,0,0)
(0,0,0)
(0,0,0)
(0,0,0)
(0,0,0)
(12213612.6301351,470429.870114427,14126.7811153956)
(12206149.5543573,466417.796262997,30032.6474997417)
(12187279.6532101,457929.565029321,50739.7503530914)
(12146440.4448714,444028.710368637,83129.6581522134)
(12059771.9391709,423029.688544788,145456.989034663)
(11879327.1282675,392500.026218557,285889.055240444)
(11540420.556435,350231.93913875,606032.855021938)
(11174512.3412378,296201.366375736,1103169.42821885)
(10474926.3920099,215765.712605587,2040555.57369465)
(8155594.66716305,114119.989768146,5044361.89087231)
(0,0,0)
(0,0,0)
(0,0,0)
(0,0,0)
(0,0,0)
(0,0,0)
(12013119.176259,701745.917697937,10230.4114361342)
(12006625.5131701,698659.197236885,21756.8344233421)
(11989918.8739956,692313.402556202,37013.7993940232)
(11952872.4858305,682272.682286729,62235.6788628782)
(11872080.3599688,667334.479308743,115029.819467415)
(11699521.1049634,644046.803554066,243707.731544764)
(11370792.9576605,603525.931788816,552006.289425151)
(11040514.2413131,531752.855877774,1022742.8198739)
(10376348.9490395,388390.984275572,1938957.29345228)
(8099883.59921002,207647.885647886,4930341.7924095)
(0,0,0)
(0,0,0)
(0,0,0)
(0,0,0)
(0,0,0)
(0,0,0)
(11612423.0457953,1111962.80983013,7232.02932901743)
(11607273.6262174,1109482.34594101,15570.118140479)
(11593971.8920595,1104456.6485361,27162.2822445691)
(11564069.1149321,1096672.50787963,47532.1304514237)
(11497507.7987927,1085403.11029804,92040.7688048953)
(11351110.2793993,1067211.13202781,203487.146461428)
(11063326.921227,1025529.47770795,480443.530977955)
(10847963.9204482,896729.347032284,879541.224222301)
(10177492.0261477,686916.568085717,1758392.07519264)
(7970924.87012279,392898.417081977,4722924.70567399)
(0,0,0)
(0,0,0)
(0,0,0)
(0,0,0)
(0,0,0)
(0,0,0)
(10706757.1523777,2053845.44790522,4823.61099296003)
(10703289.2605918,2051463.0409377,10667.669532849)
(10694396.0636014,2046334.62055817,19563.7089871961)
(10674834.470684,2037345.72762458,36527.3992255999)
(10633175.1588262,2021371.9322827,74243.6266068215)
(10548382.5847597,1989554.08096166,162238.60943914)
(10395575.1546529,1918075.74029014,352024.286229475)
(10181045.7420687,1755570.9660032,670030.517557188)
(9575199.01667927,1468512.68190584,1464658.14885948)
(7578716.41112818,957450.940000106,4330310.44414658)
(0,0,0)
(0,0,0)
(0,0,0)
(0,0,0)
(0,0,0)
(0,0,0)
(8251371.93384283,5077089.54487829,2469.58444123801)
(8249645.20262782,5074595.71502373,5604.34700297671)
(8245269.51470014,5068925.42171792,10695.4635295176)
(8235880.43927179,5058100.3372261,20775.7867615597)
(8216528.96217965,5037117.30774091,42825.0938987268)
(8178434.07846601,4993873.62345589,91216.9837589695)
(8107896.66473134,4902178.25884936,189913.596633267)
(7972872.33220843,4711845.24613179,383336.587415247)
(7578991.65314169,4328124.54629115,954002.274059967)
(6162414.76798701,3373694.3746249,3373279.90565591)
(0,0,0)
(0,0,0)
(0,0,0)
(0,0,0)
(0,0,0)
(0,0,0)
(0,0,0)
(0,0,0)
(0,0,0)
(0,0,0)
(0,0,0)
(0,0,0)
(0,0,0)
(0,0,0)
(0,0,0)
(0,0,0)
(0,0,0)
(0,0,0)
(0,0,0)
(0,0,0)
(0,0,0)
(0,0,0)
(0,0,0)
(0,0,0)
(0,0,0)
(0,0,0)
(0,0,0)
(0,0,0)
(0,0,0)
(0,0,0)
(0,0,0)
(0,0,0)
(0,0,0)
(0,0,0)
(0,0,0)
(0,0,0)
(0,0,0)
(0,0,0)
(0,0,0)
(0,0,0)
(0,0,0)
(0,0,0)
(0,0,0)
(0,0,0)
(0,0,0)
(0,0,0)
(0,0,0)
(0,0,0)
(0,0,0)
(0,0,0)
(0,0,0)
(0,0,0)
(0,0,0)
(0,0,0)
(0,0,0)
(0,0,0)
(0,0,0)
(0,0,0)
(0,0,0)
(0,0,0)
(0,0,0)
(0,0,0)
(0,0,0)
(0,0,0)
(0,0,0)
(0,0,0)
(0,0,0)
(0,0,0)
(0,0,0)
(0,0,0)
(0,0,0)
(0,0,0)
(0,0,0)
(0,0,0)
(0,0,0)
(0,0,0)
(0,0,0)
(0,0,0)
(0,0,0)
(0,0,0)
(0,0,0)
(0,0,0)
(0,0,0)
(0,0,0)
(0,0,0)
(0,0,0)
(0,0,0)
(0,0,0)
(0,0,0)
(0,0,0)
(0,0,0)
(0,0,0)
(0,0,0)
(0,0,0)
(0,0,0)
(0,0,0)
(0,0,0)
(0,0,0)
(0,0,0)
(0,0,0)
(0,0,0)
(0,0,0)
(-216337.607731169,31634.3189567593,26334.5715271471)
(-225226.03402518,29722.9897358861,55402.8216331609)
(-245451.762108768,25549.5437141995,90246.8473978103)
(-282375.003528927,18364.4432332219,134291.42906208)
(-345543.24667113,7454.68533333907,190258.888880959)
(-450858.391955464,-6668.22562326483,255199.565950425)
(-623088.023406679,-19636.5975693586,302683.769523567)
(-895528.203583897,-22337.539273029,224960.853647104)
(-1286181.81409731,-15330.1307129022,-372481.769110248)
(-1576677.25896792,-6997.16099024948,-3140999.89098649)
(0,0,0)
(0,0,0)
(0,0,0)
(0,0,0)
(0,0,0)
(0,0,0)
(-225768.66034676,66381.9119146862,24408.7348448121)
(-234497.137623747,62773.3305498693,51165.2883312255)
(-254522.116730761,54749.7894346185,82988.6127468922)
(-291496.921750602,40459.5768617225,123318.322495303)
(-355657.869980867,17419.7738278197,176066.909238909)
(-463834.338999718,-15436.2947482504,242144.937811929)
(-640079.492018729,-49645.6358540383,299964.793417851)
(-909876.953706005,-55412.8453286118,231974.619900899)
(-1293336.09981344,-34355.9827620346,-364123.773386454)
(-1579188.1742394,-14355.7840811915,-3133917.34605535)
(0,0,0)
(0,0,0)
(0,0,0)
(0,0,0)
(0,0,0)
(0,0,0)
(-246901.506076678,107154.01915024,20759.4258674141)
(-255375.076642924,102375.556751974,43027.6896643586)
(-275061.498347879,91534.7002060802,68591.4406122563)
(-312369.314973699,71434.407363357,100168.53293375)
(-379841.10433455,36195.5537953364,143144.682424012)
(-499156.692128991,-21955.4403132099,207851.454554061)
(-696924.908379978,-97474.6592128572,294151.856796498)
(-959593.621804894,-107999.5086964,253018.719079526)
(-1315080.76933396,-55225.093018206,-344089.502692791)
(-1586141.07844784,-19306.4743403256,-3119527.62000559)
(0,0,0)
(0,0,0)
(0,0,0)
(0,0,0)
(0,0,0)
(0,0,0)
(-284744.929743948,156018.284946389,15967.8083864231)
(-292813.854430431,150954.159442988,32129.512340696)
(-311962.653497511,139459.868422403,48415.4486888431)
(-350012.986138953,117762.1460031,64836.4236637502)
(-424949.071299878,77355.8936533519,84971.6209747064)
(-576976.178345877,159.83176412096,132260.646340964)
(-873696.003310997,-136276.207609314,283548.174034001)
(-1122466.08755687,-157552.294162876,305703.28172285)
(-1369685.16118283,-54492.5310679572,-308212.923642473)
(-1601100.61455341,-11829.8554304957,-3100236.29778421)
(0,0,0)
(0,0,0)
(0,0,0)
(0,0,0)
(0,0,0)
(0,0,0)
(-348256.688744011,212655.348298766,10952.7727496792)
(-355699.52259448,208295.753366999,20646.0782766521)
(-373827.345508814,198754.328379502,26721.3415388779)
(-411886.565904959,181891.055579769,24432.9582182881)
(-495663.256799316,153917.473251359,7797.69173918989)
(-710120.742544179,111141.649758657,-4253.04034666134)
(-1411063.64977544,62439.8276431914,262163.227087423)
(-1673492.62388292,40596.4738007417,408648.673455067)
(-1476795.988834,35635.4055934014,-265640.11138076)
(-1625653.515785,22568.3537397546,-3088499.69299651)
(0,0,0)
(0,0,0)
(0,0,0)
(0,0,0)
(0,0,0)
(0,0,0)
(-452899.138624055,270145.345773335,6706.46128136719)
(-459422.81968422,267039.893361572,11219.3853250566)
(-475695.499903477,260681.254006186,9952.30280866828)
(-511105.138698388,250543.001047748,-3469.36909286364)
(-592553.340897735,235375.904165018,-34917.8299410653)
(-806462.411325133,212706.348387927,-53008.2989809591)
(-1473157.19685904,180621.207026436,240072.764926562)
(-1712981.640199,162221.320044355,403626.590116564)
(-1526598.0740375,117179.459815998,-278708.308061932)
(-1650190.52248706,58386.5853570492,-3111056.66003232)
(0,0,0)
(0,0,0)
(0,0,0)
(0,0,0)
(0,0,0)
(0,0,0)
(-624079.208551579,301245.237532962,3783.18304768178)
(-629455.697297808,299485.059305948,5103.91756794906)
(-643139.231709276,296506.784633362,21.1826424091027)
(-673981.807687674,293570.595303551,-18467.4280984541)
(-748755.075974427,292840.889383642,-57412.2873770698)
(-958276.818766779,295718.382789948,-84941.7080521893)
(-1653838.52081896,296181.632538644,221814.034911879)
(-1875805.32952929,339323.99681719,358715.618978164)
(-1602300.05151766,189600.315499607,-337371.546151494)
(-1690819.74131986,78703.6026528781,-3169300.53292074)
(0,0,0)
(0,0,0)
(0,0,0)
(0,0,0)
(0,0,0)
(0,0,0)
(-897292.889571833,206483.488110951,2162.37478580196)
(-901383.746018379,205662.095546496,2327.4007777774)
(-911837.508017727,205025.61889591,-2697.34341075704)
(-936005.874483436,207578.904382324,-18945.9730772835)
(-997879.174932498,221209.288091032,-54242.7080626243)
(-1190157.14469914,264644.46112016,-84216.6722976863)
(-1950161.85995587,357973.726333019,265164.705087663)
(-1589075.76074308,229996.022324398,209217.050768495)
(-1662711.43090188,84745.4826493863,-448039.969334811)
(-1753714.49754058,746.050967508342,-3247758.35998923)
(0,0,0)
(0,0,0)
(0,0,0)
(0,0,0)
(0,0,0)
(0,0,0)
(-1289235.80748835,-401259.24592883,1420.38390258328)
(-1291887.05150045,-401893.642195207,1837.12373327177)
(-1298587.63764528,-402508.701955413,39.8358280459577)
(-1313455.31678788,-401334.019446818,-5072.762874159)
(-1347526.44375425,-395015.726435822,-10461.4557700842)
(-1429112.55691069,-380135.24200597,9498.07902322453)
(-1607442.00619868,-369350.450338483,137524.106543042)
(-1665631.08349814,-452381.627328891,64263.2717599185)
(-1818819.25092141,-527547.261540858,-531741.026452434)
(-1847623.53375688,-458753.064673144,-3248217.27592989)
(0,0,0)
(0,0,0)
(0,0,0)
(0,0,0)
(0,0,0)
(0,0,0)
(-1579097.72356672,-3173891.37261761,786.474095127241)
(-1580402.07529694,-3174657.09019132,1281.89001271229)
(-1583617.82210632,-3175976.8926359,1322.10749649122)
(-1590485.06422614,-3177408.58616918,1446.86771348293)
(-1605109.64005054,-3179011.7879883,4766.22149290223)
(-1635839.18930805,-3184132.18745801,20721.1247157376)
(-1692632.73140161,-3205330.8358763,54915.5963833094)
(-1755703.03837924,-3260702.93513024,-10503.0352309412)
(-1848228.05034883,-3250629.49211537,-462516.411169138)
(-1783627.07442552,-2788540.49064919,-2789002.45278374)
(0,0,0)
(0,0,0)
(0,0,0)
(0,0,0)
(0,0,0)
(0,0,0)
(0,0,0)
(0,0,0)
(0,0,0)
(0,0,0)
(0,0,0)
(0,0,0)
(0,0,0)
(0,0,0)
(0,0,0)
(0,0,0)
(0,0,0)
(0,0,0)
(0,0,0)
(0,0,0)
(0,0,0)
(0,0,0)
(0,0,0)
(0,0,0)
(0,0,0)
(0,0,0)
(0,0,0)
(0,0,0)
(0,0,0)
(0,0,0)
(0,0,0)
(0,0,0)
(0,0,0)
(0,0,0)
(0,0,0)
(0,0,0)
(0,0,0)
(0,0,0)
(0,0,0)
(0,0,0)
(0,0,0)
(0,0,0)
(0,0,0)
(0,0,0)
(0,0,0)
(0,0,0)
(0,0,0)
(0,0,0)
(0,0,0)
(0,0,0)
(0,0,0)
(0,0,0)
(0,0,0)
(0,0,0)
(0,0,0)
(0,0,0)
(0,0,0)
(0,0,0)
(0,0,0)
(0,0,0)
(0,0,0)
(0,0,0)
(0,0,0)
(0,0,0)
(0,0,0)
(0,0,0)
(0,0,0)
(0,0,0)
(0,0,0)
(0,0,0)
(0,0,0)
(0,0,0)
(0,0,0)
(0,0,0)
(0,0,0)
(0,0,0)
(0,0,0)
(0,0,0)
(0,0,0)
(0,0,0)
(0,0,0)
(0,0,0)
(0,0,0)
(0,0,0)
(0,0,0)
(0,0,0)
(0,0,0)
(0,0,0)
(0,0,0)
(0,0,0)
(0,0,0)
(0,0,0)
(0,0,0)
(0,0,0)
(0,0,0)
(0,0,0)
(0,0,0)
(0,0,0)
(0,0,0)
(0,0,0)
(0,0,0)
(0,0,0)
(-255861.724739826,22173.4266123044,17350.6903963533)
(-263402.896606206,20430.6772910227,35096.8756863567)
(-280162.959641913,16473.6647244588,53334.4084950442)
(-309446.493665782,9248.51925275543,71157.3793791407)
(-356699.025387634,-2649.54218287049,84962.7002785183)
(-429301.165590447,-19663.3364866742,83068.8104001768)
(-533635.512120755,-36675.1898291658,30291.4889434203)
(-662904.418503484,-36748.4718555188,-165583.824281472)
(-766321.84273733,-22561.9605592884,-662881.835082158)
(-665927.813984567,-9545.9884482558,-1564085.29161727)
(0,0,0)
(0,0,0)
(0,0,0)
(0,0,0)
(0,0,0)
(0,0,0)
(-264455.370830979,45271.2110525835,15588.9260439397)
(-271546.163217082,41987.4285328894,31081.2003954044)
(-287369.050633675,34340.8525918325,46060.9464309457)
(-315113.230986304,19660.8688868382,59264.9060325629)
(-360247.343406197,-6745.3823039108,67950.2195789322)
(-430757.22521374,-50780.4920913221,65990.2613976094)
(-534402.426705717,-106563.62186871,30201.6281241497)
(-659735.164038178,-105247.423629747,-151441.209769441)
(-761183.543944521,-56240.3856473406,-649915.340550306)
(-662745.43865111,-21372.9467169544,-1554531.11786992)
(0,0,0)
(0,0,0)
(0,0,0)
(0,0,0)
(0,0,0)
(0,0,0)
(-283289.720165298,69420.1627927445,12239.2623484624)
(-289594.726479232,65123.5925236867,23322.7481939691)
(-303578.19367896,54832.6957198304,31347.6003970505)
(-328127.456345962,33915.4808387949,32851.1298173595)
(-368777.20966406,-8886.85031643441,23928.7031593894)
(-436402.630872391,-99777.0183313184,10171.1681427762)
(-550583.77757937,-274272.087210557,31538.5026840206)
(-659886.666543837,-270959.290497588,-102456.5857092)
(-748771.068341864,-109926.358778763,-615080.313569874)
(-655073.154280498,-34323.1952681029,-1533197.98918609)
(0,0,0)
(0,0,0)
(0,0,0)
(0,0,0)
(0,0,0)
(0,0,0)
(-315812.820104169,92605.0338242328,7883.01932873679)
(-321021.679855659,88226.0738853752,12988.3633922796)
(-332331.509271332,77764.1835040312,10425.7313819019)
(-351698.07063479,56007.6337127157,-9981.33699618333)
(-383557.585915626,6684.61785983241,-66944.2905566965)
(-446364.461252443,-132981.550886614,-164351.475094842)
(-673504.782358938,-673680.095301919,34865.3120444544)
(-708394.514486538,-708647.904185317,58482.3526618548)
(-719900.674920853,-161649.794155947,-539578.698222937)
(-639620.0684953,-36392.2010224011,-1498990.23852674)
(0,0,0)
(0,0,0)
(0,0,0)
(0,0,0)
(0,0,0)
(0,0,0)
(-367255.434364205,108059.184416363,3544.59502806364)
(-371151.745847426,104622.779014257,2600.11315212712)
(-379125.135931892,96919.7174409704,-11257.6303617334)
(-390554.671272511,82679.2058222009,-59261.0971036653)
(-398683.527623977,57002.1700735787,-206558.378492753)
(-359321.509387218,14712.9837777656,-705052.146314096)
(-8.2393306678508e-05,-2.20824308209336e-05,5.32784024373109e-05)