/*--------------------------------*- C++ -*----------------------------------*\
| =========                 |                                                 |
| \\      /  F ield         | foam-extend: Open Source CFD                    |
|  \\    /   O peration     | Version:     4.0                                |
|   \\  /    A nd           | Web:         http://www.foam-extend.org         |
|    \\/     M anipulation  |                                                 |
\*---------------------------------------------------------------------------*/
FoamFile
{
    version 2.0;
    format ascii;
    class volVectorField;
    location "4034";
    object      H;
}
// * * * * * * * * * * * * * * * * * * * * * * * * * * * * * * * * * * * * * //

dimensions      [0 1 -1 0 0 0 0];

internalField   nonuniform List<vector>
4096
(
(0,0,0)
(0,0,0)
(0,0,0)
(0,0,0)
(0,0,0)
(0,0,0)
(0,0,0)
(0,0,0)
(0,0,0)
(0,0,0)
(0,0,0)
(0,0,0)
(0,0,0)
(0,0,0)
(0,0,0)
(0,0,0)
(0,0,0)
(0,0,0)
(0,0,0)
(0,0,0)
(0,0,0)
(0,0,0)
(0,0,0)
(0,0,0)
(0,0,0)
(0,0,0)
(0,0,0)
(0,0,0)
(0,0,0)
(0,0,0)
(0,0,0)
(0,0,0)
(0,0,0)
(0,0,0)
(0,0,0)
(0,0,0)
(0,0,0)
(0,0,0)
(0,0,0)
(0,0,0)
(0,0,0)
(0,0,0)
(0,0,0)
(0,0,0)
(0,0,0)
(0,0,0)
(0,0,0)
(0,0,0)
(0,0,0)
(0,0,0)
(0,0,0)
(0,0,0)
(0,0,0)
(0,0,0)
(0,0,0)
(0,0,0)
(0,0,0)
(0,0,0)
(0,0,0)
(0,0,0)
(0,0,0)
(0,0,0)
(0,0,0)
(0,0,0)
(0,0,0)
(0,0,0)
(0,0,0)
(0,0,0)
(0,0,0)
(0,0,0)
(0,0,0)
(0,0,0)
(0,0,0)
(0,0,0)
(0,0,0)
(0,0,0)
(0,0,0)
(0,0,0)
(0,0,0)
(0,0,0)
(0,0,0)
(0,0,0)
(0,0,0)
(0,0,0)
(0,0,0)
(0,0,0)
(0,0,0)
(0,0,0)
(0,0,0)
(0,0,0)
(0,0,0)
(0,0,0)
(0,0,0)
(0,0,0)
(0,0,0)
(0,0,0)
(0,0,0)
(0,0,0)
(0,0,0)
(0,0,0)
(0,0,0)
(0,0,0)
(0,0,0)
(0,0,0)
(0,0,0)
(0,0,0)
(0,0,0)
(0,0,0)
(0,0,0)
(0,0,0)
(0,0,0)
(0,0,0)
(0,0,0)
(0,0,0)
(0,0,0)
(0,0,0)
(0,0,0)
(0,0,0)
(0,0,0)
(0,0,0)
(0,0,0)
(0,0,0)
(0,0,0)
(0,0,0)
(0,0,0)
(0,0,0)
(0,0,0)
(0,0,0)
(0,0,0)
(0,0,0)
(0,0,0)
(0,0,0)
(0,0,0)
(0,0,0)
(0,0,0)
(0,0,0)
(0,0,0)
(0,0,0)
(0,0,0)
(0,0,0)
(0,0,0)
(0,0,0)
(0,0,0)
(0,0,0)
(0,0,0)
(0,0,0)
(0,0,0)
(0,0,0)
(0,0,0)
(0,0,0)
(0,0,0)
(0,0,0)
(0,0,0)
(0,0,0)
(0,0,0)
(0,0,0)
(0,0,0)
(0,0,0)
(0,0,0)
(0,0,0)
(0,0,0)
(0,0,0)
(0,0,0)
(0,0,0)
(0,0,0)
(0,0,0)
(0,0,0)
(0,0,0)
(0,0,0)
(0,0,0)
(0,0,0)
(0,0,0)
(0,0,0)
(0,0,0)
(0,0,0)
(0,0,0)
(0,0,0)
(0,0,0)
(0,0,0)
(0,0,0)
(0,0,0)
(0,0,0)
(0,0,0)
(0,0,0)
(0,0,0)
(0,0,0)
(0,0,0)
(0,0,0)
(0,0,0)
(0,0,0)
(0,0,0)
(0,0,0)
(0,0,0)
(0,0,0)
(0,0,0)
(0,0,0)
(0,0,0)
(0,0,0)
(0,0,0)
(0,0,0)
(0,0,0)
(0,0,0)
(0,0,0)
(0,0,0)
(0,0,0)
(0,0,0)
(0,0,0)
(0,0,0)
(0,0,0)
(0,0,0)
(0,0,0)
(0,0,0)
(0,0,0)
(0,0,0)
(0,0,0)
(0,0,0)
(0,0,0)
(0,0,0)
(0,0,0)
(0,0,0)
(0,0,0)
(0,0,0)
(0,0,0)
(0,0,0)
(0,0,0)
(0,0,0)
(0,0,0)
(0,0,0)
(0,0,0)
(0,0,0)
(0,0,0)
(0,0,0)
(0,0,0)
(0,0,0)
(0,0,0)
(0,0,0)
(0,0,0)
(0,0,0)
(0,0,0)
(0,0,0)
(0,0,0)
(0,0,0)
(0,0,0)
(0,0,0)
(0,0,0)
(0,0,0)
(0,0,0)
(0,0,0)
(0,0,0)
(0,0,0)
(0,0,0)
(0,0,0)
(0,0,0)
(0,0,0)
(0,0,0)
(0,0,0)
(0,0,0)
(0,0,0)
(0,0,0)
(0,0,0)
(0,0,0)
(0,0,0)
(0,0,0)
(0,0,0)
(0,0,0)
(0,0,0)
(0,0,0)
(0,0,0)
(0,0,0)
(0,0,0)
(0,0,0)
(0,0,0)
(0,0,0)
(0,0,0)
(0,0,0)
(0,0,0)
(0,0,0)
(0,0,0)
(0,0,0)
(0,0,0)
(0,0,0)
(0,0,0)
(0,0,0)
(0,0,0)
(0,0,0)
(0,0,0)
(0,0,0)
(0,0,0)
(0,0,0)
(0,0,0)
(0,0,0)
(0,0,0)
(0,0,0)
(0,0,0)
(0,0,0)
(0,0,0)
(0,0,0)
(0,0,0)
(0,0,0)
(0,0,0)
(0,0,0)
(0,0,0)
(0,0,0)
(0,0,0)
(0,0,0)
(0,0,0)
(0,0,0)
(0,0,0)
(0,0,0)
(0,0,0)
(0,0,0)
(0,0,0)
(0,0,0)
(0,0,0)
(0,0,0)
(0,0,0)
(0,0,0)
(0,0,0)
(0,0,0)
(0,0,0)
(0,0,0)
(0,0,0)
(0,0,0)
(0,0,0)
(0,0,0)
(0,0,0)
(0,0,0)
(0,0,0)
(0,0,0)
(0,0,0)
(0,0,0)
(0,0,0)
(0,0,0)
(0,0,0)
(0,0,0)
(0,0,0)
(0,0,0)
(0,0,0)
(0,0,0)
(0,0,0)
(0,0,0)
(0,0,0)
(0,0,0)
(0,0,0)
(0,0,0)
(0,0,0)
(0,0,0)
(0,0,0)
(0,0,0)
(0,0,0)
(0,0,0)
(0,0,0)
(0,0,0)
(0,0,0)
(0,0,0)
(0,0,0)
(0,0,0)
(0,0,0)
(0,0,0)
(0,0,0)
(0,0,0)
(0,0,0)
(0,0,0)
(0,0,0)
(0,0,0)
(0,0,0)
(0,0,0)
(0,0,0)
(0,0,0)
(0,0,0)
(0,0,0)
(0,0,0)
(0,0,0)
(0,0,0)
(0,0,0)
(0,0,0)
(0,0,0)
(0,0,0)
(0,0,0)
(0,0,0)
(0,0,0)
(0,0,0)
(0,0,0)
(0,0,0)
(0,0,0)
(0,0,0)
(0,0,0)
(0,0,0)
(0,0,0)
(0,0,0)
(0,0,0)
(0,0,0)
(0,0,0)
(0,0,0)
(0,0,0)
(0,0,0)
(0,0,0)
(0,0,0)
(0,0,0)
(0,0,0)
(0,0,0)
(0,0,0)
(0,0,0)
(0,0,0)
(0,0,0)
(0,0,0)
(0,0,0)
(0,0,0)
(0,0,0)
(0,0,0)
(0,0,0)
(0,0,0)
(0,0,0)
(0,0,0)
(0,0,0)
(0,0,0)
(0,0,0)
(0,0,0)
(0,0,0)
(0,0,0)
(0,0,0)
(0,0,0)
(0,0,0)
(0,0,0)
(0,0,0)
(0,0,0)
(0,0,0)
(0,0,0)
(0,0,0)
(0,0,0)
(0,0,0)
(0,0,0)
(0,0,0)
(0,0,0)
(0,0,0)
(0,0,0)
(0,0,0)
(0,0,0)
(0,0,0)
(0,0,0)
(0,0,0)
(0,0,0)
(0,0,0)
(0,0,0)
(0,0,0)
(0,0,0)
(0,0,0)
(0,0,0)
(0,0,0)
(0,0,0)
(0,0,0)
(0,0,0)
(0,0,0)
(0,0,0)
(0,0,0)
(0,0,0)
(0,0,0)
(0,0,0)
(0,0,0)
(0,0,0)
(0,0,0)
(0,0,0)
(0,0,0)
(0,0,0)
(0,0,0)
(0,0,0)
(0,0,0)
(0,0,0)
(0,0,0)
(0,0,0)
(0,0,0)
(0,0,0)
(0,0,0)
(0,0,0)
(0,0,0)
(0,0,0)
(0,0,0)
(0,0,0)
(0,0,0)
(0,0,0)
(0,0,0)
(0,0,0)
(0,0,0)
(0,0,0)
(0,0,0)
(0,0,0)
(0,0,0)
(0,0,0)
(0,0,0)
(0,0,0)
(0,0,0)
(0,0,0)
(0,0,0)
(0,0,0)
(0,0,0)
(0,0,0)
(0,0,0)
(0,0,0)
(0,0,0)
(0,0,0)
(0,0,0)
(0,0,0)
(0,0,0)
(0,0,0)
(0,0,0)
(0,0,0)
(0,0,0)
(0,0,0)
(0,0,0)
(0,0,0)
(0,0,0)
(0,0,0)
(0,0,0)
(0,0,0)
(0,0,0)
(0,0,0)
(0,0,0)
(0,0,0)
(0,0,0)
(0,0,0)
(0,0,0)
(0,0,0)
(0,0,0)
(0,0,0)
(0,0,0)
(0,0,0)
(0,0,0)
(0,0,0)
(0,0,0)
(0,0,0)
(0,0,0)
(0,0,0)
(0,0,0)
(0,0,0)
(0,0,0)
(0,0,0)
(0,0,0)
(0,0,0)
(0,0,0)
(0,0,0)
(0,0,0)
(0,0,0)
(0,0,0)
(0,0,0)
(0,0,0)
(0,0,0)
(0,0,0)
(0,0,0)
(0,0,0)
(0,0,0)
(0,0,0)
(0,0,0)
(0,0,0)
(0,0,0)
(0,0,0)
(0,0,0)
(0,0,0)
(0,0,0)
(0,0,0)
(0,0,0)
(0,0,0)
(0,0,0)
(0,0,0)
(0,0,0)
(0,0,0)
(0,0,0)
(0,0,0)
(0,0,0)
(0,0,0)
(0,0,0)
(0,0,0)
(0,0,0)
(0,0,0)
(0,0,0)
(0,0,0)
(0,0,0)
(0,0,0)
(0,0,0)
(0,0,0)
(0,0,0)
(0,0,0)
(0,0,0)
(0,0,0)
(0,0,0)
(0,0,0)
(0,0,0)
(0,0,0)
(0,0,0)
(0,0,0)
(0,0,0)
(0,0,0)
(0,0,0)
(0,0,0)
(0,0,0)
(0,0,0)
(0,0,0)
(0,0,0)
(0,0,0)
(0,0,0)
(0,0,0)
(0,0,0)
(0,0,0)
(0,0,0)
(0,0,0)
(0,0,0)
(0,0,0)
(0,0,0)
(0,0,0)
(0,0,0)
(0,0,0)
(0,0,0)
(0,0,0)
(0,0,0)
(0,0,0)
(0,0,0)
(0,0,0)
(0,0,0)
(0,0,0)
(0,0,0)
(0,0,0)
(0,0,0)
(0,0,0)
(0,0,0)
(0,0,0)
(0,0,0)
(0,0,0)
(0,0,0)
(0,0,0)
(0,0,0)
(0,0,0)
(0,0,0)
(0,0,0)
(0,0,0)
(0,0,0)
(0,0,0)
(0,0,0)
(0,0,0)
(0,0,0)
(0,0,0)
(0,0,0)
(0,0,0)
(0,0,0)
(0,0,0)
(0,0,0)
(0,0,0)
(0,0,0)
(0,0,0)
(0,0,0)
(0,0,0)
(0,0,0)
(0,0,0)
(0,0,0)
(0,0,0)
(0,0,0)
(0,0,0)
(0,0,0)
(0,0,0)
(0,0,0)
(0,0,0)
(0,0,0)
(0,0,0)
(0,0,0)
(0,0,0)
(0,0,0)
(0,0,0)
(0,0,0)
(0,0,0)
(0,0,0)
(0,0,0)
(0,0,0)
(0,0,0)
(0,0,0)
(0,0,0)
(0,0,0)
(0,0,0)
(0,0,0)
(0,0,0)
(0,0,0)
(0,0,0)
(0,0,0)
(0,0,0)
(0,0,0)
(0,0,0)
(0,0,0)
(0,0,0)
(0,0,0)
(0,0,0)
(0,0,0)
(0,0,0)
(0,0,0)
(0,0,0)
(0,0,0)
(0,0,0)
(0,0,0)
(0,0,0)
(0,0,0)
(0,0,0)
(0,0,0)
(0,0,0)
(0,0,0)
(0,0,0)
(0,0,0)
(0,0,0)
(0,0,0)
(0,0,0)
(0,0,0)
(0,0,0)
(0,0,0)
(0,0,0)
(0,0,0)
(0,0,0)
(0,0,0)
(0,0,0)
(0,0,0)
(0,0,0)
(0,0,0)
(0,0,0)
(0,0,0)
(0,0,0)
(0,0,0)
(0,0,0)
(0,0,0)
(0,0,0)
(0,0,0)
(0,0,0)
(0,0,0)
(0,0,0)
(0,0,0)
(0,0,0)
(0,0,0)
(0,0,0)
(0,0,0)
(0,0,0)
(0,0,0)
(0,0,0)
(0,0,0)
(0,0,0)
(0,0,0)
(0,0,0)
(0,0,0)
(0,0,0)
(0,0,0)
(0,0,0)
(0,0,0)
(0,0,0)
(0,0,0)
(0,0,0)
(0,0,0)
(0,0,0)
(0,0,0)
(0,0,0)
(0,0,0)
(0,0,0)
(0,0,0)
(0,0,0)
(0,0,0)
(0,0,0)
(0,0,0)
(0,0,0)
(0,0,0)
(0,0,0)
(0,0,0)
(0,0,0)
(0,0,0)
(0,0,0)
(0,0,0)
(0,0,0)
(0,0,0)
(0,0,0)
(0,0,0)
(0,0,0)
(0,0,0)
(0,0,0)
(0,0,0)
(0,0,0)
(0,0,0)
(0,0,0)
(0,0,0)
(0,0,0)
(0,0,0)
(0,0,0)
(0,0,0)
(0,0,0)
(0,0,0)
(0,0,0)
(0,0,0)
(0,0,0)
(0,0,0)
(0,0,0)
(0,0,0)
(0,0,0)
(0,0,0)
(0,0,0)
(0,0,0)
(0,0,0)
(0,0,0)
(0,0,0)
(0,0,0)
(0,0,0)
(0,0,0)
(0,0,0)
(0,0,0)
(0,0,0)
(0,0,0)
(0,0,0)
(0,0,0)
(0,0,0)
(0,0,0)
(0,0,0)
(0,0,0)
(0,0,0)
(0,0,0)
(0,0,0)
(0,0,0)
(0,0,0)
(0,0,0)
(0,0,0)
(0,0,0)
(0,0,0)
(-9.54417124682208e-13,-1.03154760663351e-11,1.29685401972983e-11)
(-1.81085733305439e-12,-2.14940696053845e-11,1.20701239425544e-11)
(-2.48950311766902e-12,-3.48178277502829e-11,1.03795168354852e-11)
(-2.18760740482256e-12,-5.34199880895225e-11,8.20996891475682e-12)
(-2.03387588976096e-12,-8.12965401028422e-11,5.74167175087283e-12)
(-1.30947888835103e-12,-1.2588677245267e-10,3.35426612470819e-12)
(-8.40947157652444e-13,-1.99037456498919e-10,1.48817205688791e-12)
(-3.53063480318688e-13,-3.21261666232269e-10,2.94964991996157e-13)
(5.73668288190871e-13,-5.24017843812706e-10,4.45737144851161e-16)
(9.93525166323969e-13,-8.07346468997666e-10,1.60364726963701e-13)
(0,0,0)
(0,0,0)
(0,0,0)
(0,0,0)
(0,0,0)
(0,0,0)
(-2.17293296223241e-12,-9.41394530034155e-12,2.61909128759441e-11)
(-4.35425927823e-12,-1.99317231166838e-11,2.4816286785695e-11)
(-6.23258094555882e-12,-3.25733357285044e-11,2.187601132464e-11)
(-6.9685930970568e-12,-5.05969940813416e-11,1.80280858339903e-11)
(-6.4872854928107e-12,-7.8768324605239e-11,1.36063098544105e-11)
(-4.85774910324301e-12,-1.24277200286009e-10,9.21696806597443e-12)
(-2.57738543933925e-12,-1.98529756507169e-10,5.26067091814832e-12)
(-1.27233696363877e-12,-3.21422489938358e-10,2.72055637517183e-12)
(-4.35694232436068e-14,-5.24276319064054e-10,1.61058393769449e-12)
(6.2847703712726e-13,-8.07555530583363e-10,1.10275730559313e-12)
(0,0,0)
(0,0,0)
(0,0,0)
(0,0,0)
(0,0,0)
(0,0,0)
(-2.76304047846803e-12,-7.98233132583549e-12,4.22325987629919e-11)
(-5.61394153744358e-12,-1.73104079827506e-11,4.06689407941564e-11)
(-8.77520529697303e-12,-2.90827456035436e-11,3.71723722786987e-11)
(-9.29210525731198e-12,-4.63731238569922e-11,3.23774653191587e-11)
(-8.45499231063403e-12,-7.46933280577107e-11,2.66196754504051e-11)
(-6.06429907596927e-12,-1.20866699752196e-10,2.03180885062958e-11)
(-2.59586314606089e-12,-1.96800407919967e-10,1.41138288942832e-11)
(-7.31093264703701e-13,-3.21445122847052e-10,9.55246900324544e-12)
(7.17654817889977e-13,-5.24941773466353e-10,6.2806144633812e-12)
(1.63311937273395e-12,-8.08214061277071e-10,3.42809957246108e-12)
(0,0,0)
(0,0,0)
(0,0,0)
(0,0,0)
(0,0,0)
(0,0,0)
(-3.52400404017201e-12,-5.95560096327166e-12,6.0904050428008e-11)
(-6.18181846413755e-12,-1.3888291301867e-11,5.93253923337343e-11)
(-9.38140822456427e-12,-2.47902151199888e-11,5.57056608040911e-11)
(-1.00976412461869e-11,-4.09716030761309e-11,5.09375144156401e-11)
(-9.06706874712012e-12,-6.83847445725144e-11,4.48942390245605e-11)
(-6.52143027935035e-12,-1.14176562508735e-10,3.77186377590081e-11)
(-3.38551454503393e-12,-1.91947188782094e-10,3.0406661831188e-11)
(-1.11817931899566e-12,-3.19122961438313e-10,2.30606399824612e-11)
(9.60119540493587e-13,-5.2328128348027e-10,1.56787580734772e-11)
(2.72715519959356e-12,-8.06396857612282e-10,8.07793975533655e-12)
(0,0,0)
(0,0,0)
(0,0,0)
(0,0,0)
(0,0,0)
(0,0,0)
(-3.00047888146703e-12,-4.4351000998087e-12,8.78136654974383e-11)
(-5.25587933191144e-12,-1.08029994465696e-11,8.65193847688751e-11)
(-8.02636082841623e-12,-2.05303823483998e-11,8.31173986751951e-11)
(-1.01145664817087e-11,-3.48650139334162e-11,7.89813324033063e-11)
(-1.01824182138841e-11,-6.01963502817063e-11,7.39651209060848e-11)
(-8.23183995791758e-12,-1.05058943447721e-10,6.74899628636577e-11)
(-4.2764285502757e-12,-1.83933003572808e-10,6.01663752820455e-11)
(-1.8665975019155e-12,-3.13482283805996e-10,4.84163901907957e-11)
(-7.75926915707947e-14,-5.17667304281479e-10,3.37554961781728e-11)
(1.9454204965296e-12,-7.99837361642939e-10,1.71979457921463e-11)
(0,0,0)
(0,0,0)
(0,0,0)
(0,0,0)
(0,0,0)
(0,0,0)
(-1.95336374790928e-12,-3.28433555174125e-12,1.31082440171661e-10)
(-3.53851803111947e-12,-8.16669999772073e-12,1.30205610807045e-10)
(-5.2380741147238e-12,-1.63475576026636e-11,1.27680824149047e-10)
(-7.1402769067747e-12,-2.88751696332375e-11,1.24512418320627e-10)
(-7.49988056953395e-12,-5.20083733780786e-11,1.20424993902019e-10)
(-6.15711555568909e-12,-9.57273455816704e-11,1.13641303918202e-10)
(-4.08473986881386e-12,-1.7468930519373e-10,1.03608146450966e-10)
(-2.69421809344882e-12,-3.02608057048779e-10,8.67227798971986e-11)
(-1.9654215698402e-12,-5.04367981891944e-10,6.23550095286377e-11)
(-1.17897584944117e-12,-7.84771037267747e-10,3.25247801202168e-11)
(0,0,0)
(0,0,0)
(0,0,0)
(0,0,0)
(0,0,0)
(0,0,0)
(-7.53345093777753e-13,-2.58667134559662e-12,2.02154098391823e-10)
(-1.38239961744848e-12,-6.36615120052515e-12,2.01515910877302e-10)
(-2.19960350258878e-12,-1.26327978952827e-11,1.99590311895815e-10)
(-3.56020594523742e-12,-2.29454656550647e-11,1.97247838565346e-10)
(-4.10679208271415e-12,-4.30458906804528e-11,1.94288492425583e-10)
(-3.90651217024261e-12,-8.37964667320188e-11,1.872490237924e-10)
(-4.11735617614357e-12,-1.59696026527133e-10,1.72452324950539e-10)
(-3.12950588136554e-12,-2.81911047970291e-10,1.48396346675499e-10)
(-3.05865289573572e-12,-4.78038013164919e-10,1.10145448894675e-10)
(-3.39878610471299e-12,-7.54797138370409e-10,5.9583473140707e-11)
(0,0,0)
(0,0,0)
(0,0,0)
(0,0,0)
(0,0,0)
(0,0,0)
(2.60940021522371e-13,-1.99925071868195e-12,3.22422234479231e-10)
(-9.92998241108944e-14,-4.91980179136163e-12,3.22008406398334e-10)
(-1.21248593390981e-12,-9.63777200429944e-12,3.20754905360067e-10)
(-2.43133943993854e-12,-1.85050209888097e-11,3.18689612930546e-10)
(-2.85060979239913e-12,-3.55491824395254e-11,3.15055829863008e-10)
(-3.86202472399464e-12,-7.09408600422981e-11,3.06652119457781e-10)
(-4.97027052538208e-12,-1.36917293483954e-10,2.87723950035607e-10)
(-5.09881028403123e-12,-2.46100426510849e-10,2.5243582055178e-10)
(-5.52818677136016e-12,-4.30121202297544e-10,1.9453123597305e-10)
(-7.38276769260822e-12,-6.97557284082353e-10,1.10044876738856e-10)
(0,0,0)
(0,0,0)
(0,0,0)
(0,0,0)
(0,0,0)
(0,0,0)
(-5.61162126128952e-13,-1.24409229622324e-12,5.24717664722813e-10)
(-1.74010459836687e-12,-3.2690773888717e-12,5.24555801847434e-10)
(-3.04326239536735e-12,-6.74506341852747e-12,5.24071951817151e-10)
(-3.31221652030232e-12,-1.39246465777465e-11,5.22140053422496e-10)
(-3.46701473659129e-12,-2.68587156122189e-11,5.16835731792149e-10)
(-5.16037660078795e-12,-5.30494719588781e-11,5.0516170446194e-10)
(-5.68313056487461e-12,-1.02442121253853e-10,4.80403358807269e-10)
(-6.00667871927958e-12,-1.89577305700282e-10,4.33371914170005e-10)
(-7.28839360129099e-12,-3.47231952778163e-10,3.50267200958664e-10)
(-9.53179346247916e-12,-5.89527667080743e-10,2.10632174401639e-10)
(0,0,0)
(0,0,0)
(0,0,0)
(0,0,0)
(0,0,0)
(0,0,0)
(-2.51002455218301e-12,-5.7804932456844e-13,8.08385899110399e-10)
(-4.66686937302737e-12,-1.77986550059214e-12,8.08871679109443e-10)
(-5.97419490632328e-12,-3.73529035808795e-12,8.08599066945374e-10)
(-4.75015451921293e-12,-7.93035867767306e-12,8.05984402954981e-10)
(-4.37098140748938e-12,-1.49394243054491e-11,7.98982868448331e-10)
(-6.25508679731968e-12,-2.86717666320094e-11,7.84768134577958e-10)
(-6.97852688505237e-12,-5.58076169522556e-11,7.56152829918937e-10)
(-7.05501591609362e-12,-1.07247061690699e-10,6.99767703971808e-10)
(-8.47835448392995e-12,-2.08573247370833e-10,5.9181433893665e-10)
(-1.14525198962665e-11,-3.80698902762459e-10,3.82626028182726e-10)
(0,0,0)
(0,0,0)
(0,0,0)
(0,0,0)
(0,0,0)
(0,0,0)
(0,0,0)
(0,0,0)
(0,0,0)
(0,0,0)
(0,0,0)
(0,0,0)
(0,0,0)
(0,0,0)
(0,0,0)
(0,0,0)
(0,0,0)
(0,0,0)
(0,0,0)
(0,0,0)
(0,0,0)
(0,0,0)
(0,0,0)
(0,0,0)
(0,0,0)
(0,0,0)
(0,0,0)
(0,0,0)
(0,0,0)
(0,0,0)
(0,0,0)
(0,0,0)
(0,0,0)
(0,0,0)
(0,0,0)
(0,0,0)
(0,0,0)
(0,0,0)
(0,0,0)
(0,0,0)
(0,0,0)
(0,0,0)
(0,0,0)
(0,0,0)
(0,0,0)
(0,0,0)
(0,0,0)
(0,0,0)
(0,0,0)
(0,0,0)
(0,0,0)
(0,0,0)
(0,0,0)
(0,0,0)
(0,0,0)
(0,0,0)
(0,0,0)
(0,0,0)
(0,0,0)
(0,0,0)
(0,0,0)
(0,0,0)
(0,0,0)
(0,0,0)
(0,0,0)
(0,0,0)
(0,0,0)
(0,0,0)
(0,0,0)
(0,0,0)
(0,0,0)
(0,0,0)
(0,0,0)
(0,0,0)
(0,0,0)
(0,0,0)
(0,0,0)
(0,0,0)
(0,0,0)
(0,0,0)
(0,0,0)
(0,0,0)
(0,0,0)
(0,0,0)
(0,0,0)
(0,0,0)
(0,0,0)
(0,0,0)
(0,0,0)
(0,0,0)
(0,0,0)
(0,0,0)
(0,0,0)
(0,0,0)
(0,0,0)
(0,0,0)
(0,0,0)
(0,0,0)
(0,0,0)
(0,0,0)
(0,0,0)
(0,0,0)
(-9.57531635934067e-13,-1.91972815599085e-11,2.34838040229306e-11)
(-1.68259671468908e-12,-4.02720930761979e-11,2.21305619442624e-11)
(-2.56444721873645e-12,-6.42540888079622e-11,1.9473157816019e-11)
(-2.5423042491379e-12,-9.77224578850841e-11,1.55778532786354e-11)
(-2.17468576126399e-12,-1.47656839637469e-10,1.06836478452134e-11)
(-1.05295698708136e-12,-2.25693474163027e-10,5.62581200406787e-12)
(-1.55440084376089e-13,-3.50900106336281e-10,1.28189341585204e-12)
(1.02279480504882e-13,-5.63340565196036e-10,-8.40724867598905e-13)
(6.72224549140775e-13,-9.68884038709692e-10,-1.12563013367487e-12)
(1.36295147876832e-12,-1.90126069931656e-09,-5.75280819866671e-13)
(0,0,0)
(0,0,0)
(0,0,0)
(0,0,0)
(0,0,0)
(0,0,0)
(-2.22992084649061e-12,-1.77315855789933e-11,4.84150270842147e-11)
(-4.03529895109249e-12,-3.76959746241003e-11,4.58530164611708e-11)
(-5.87524557988793e-12,-6.05548046310615e-11,4.0673008986522e-11)
(-6.77068734179728e-12,-9.30082652378483e-11,3.33634642152307e-11)
(-6.17294025188766e-12,-1.43026513580512e-10,2.43839960485625e-11)
(-4.31195248925394e-12,-2.21982391229409e-10,1.4381137411261e-11)
(-1.7666194837165e-12,-3.49634910511426e-10,5.10311927640245e-12)
(-1.39731616965713e-13,-5.64083328904743e-10,6.2063350458927e-13)
(1.12971161149613e-12,-9.70668721208151e-10,-2.04668716287907e-13)
(2.38976503627768e-12,-1.90331085217887e-09,9.11240282732862e-14)
(0,0,0)
(0,0,0)
(0,0,0)
(0,0,0)
(0,0,0)
(0,0,0)
(-3.22611287219584e-12,-1.53366471824843e-11,7.7458245263217e-11)
(-5.53948970286678e-12,-3.2974809876226e-11,7.39429249111099e-11)
(-8.2728288209515e-12,-5.39820451112654e-11,6.71995305736536e-11)
(-8.93583616944033e-12,-8.48460678839245e-11,5.77189741631957e-11)
(-8.46198885178697e-12,-1.34417205999629e-10,4.59038955555238e-11)
(-6.55017670743458e-12,-2.14346505504549e-10,3.13593688485768e-11)
(-2.88772239280081e-12,-3.46450567079598e-10,1.69585236144983e-11)
(2.18599866230199e-13,-5.65455704681868e-10,9.73791615210153e-12)
(1.90967972271843e-12,-9.73724186529184e-10,6.49359818391242e-12)
(3.24401527984161e-12,-1.90604488935601e-09,3.62256942501842e-12)
(0,0,0)
(0,0,0)
(0,0,0)
(0,0,0)
(0,0,0)
(0,0,0)
(-3.46584680936009e-12,-1.18791055118393e-11,1.12658995911858e-10)
(-5.64737878979219e-12,-2.66880378484818e-11,1.08975320627674e-10)
(-8.87309460771584e-12,-4.54965844790875e-11,1.01963447131863e-10)
(-1.01609549978209e-11,-7.36721500826362e-11,9.19209325301318e-11)
(-1.00798617723672e-11,-1.20382335082188e-10,7.86681898336346e-11)
(-8.32707341254206e-12,-1.99549307676685e-10,6.19224395110399e-11)
(-4.05367790562455e-12,-3.37834825857528e-10,4.46932179532312e-11)
(6.23024957670888e-13,-5.64358066824814e-10,3.33514870358023e-11)
(2.94695866063923e-12,-9.74024121818195e-10,2.35864570506741e-11)
(4.24559898715674e-12,-1.90528617755416e-09,1.23812509289047e-11)
(0,0,0)
(0,0,0)
(0,0,0)
(0,0,0)
(0,0,0)
(0,0,0)
(-2.85696270097293e-12,-8.91297883835204e-12,1.61283420845701e-10)
(-4.49019268708339e-12,-2.07861562900944e-11,1.58110166742865e-10)
(-8.07311930226807e-12,-3.65971174964681e-11,1.51802577400771e-10)
(-1.10881992846648e-11,-6.02060824428778e-11,1.42943767996204e-10)
(-1.18952370750829e-11,-1.01399291084342e-10,1.31819978204879e-10)
(-1.02398502424247e-11,-1.77059152570911e-10,1.18678363695752e-10)
(-1.77014183800344e-12,-3.19679689260492e-10,1.07505429751391e-10)
(1.92006975371881e-12,-5.5796250803773e-10,8.36654927749455e-11)
(3.1806353044706e-12,-9.67523481515924e-10,5.81049989868326e-11)
(4.07704191328622e-12,-1.89628121486072e-09,2.95628866246387e-11)
(0,0,0)
(0,0,0)
(0,0,0)
(0,0,0)
(0,0,0)
(0,0,0)
(-1.77419858943596e-12,-6.35775741051786e-12,2.35630976715341e-10)
(-2.81428017032074e-12,-1.51388417753109e-11,2.33340551405278e-10)
(-5.78442799369425e-12,-2.75320939803258e-11,2.2894194450494e-10)
(-8.98255646633656e-12,-4.69904633667489e-11,2.22623015556999e-10)
(-9.67867328332898e-12,-8.29777513333183e-11,2.14602695338061e-10)
(-8.05483693809649e-12,-1.56311595308277e-10,2.03063494806998e-10)
(-2.19265198173196e-12,-3.05859564182866e-10,1.87563340468733e-10)
(9.76543196513383e-13,-5.4156635712125e-10,1.56106445117617e-10)
(1.53483911147555e-12,-9.45603996839259e-10,1.11739492546499e-10)
(1.37190537372469e-12,-1.87076825032385e-09,5.80815269395343e-11)
(0,0,0)
(0,0,0)
(0,0,0)
(0,0,0)
(0,0,0)
(0,0,0)
(-7.02578206172538e-13,-4.59168853377362e-12,3.56148679674149e-10)
(-9.03150045122871e-13,-1.09717331727643e-11,3.54544899192012e-10)
(-2.85215606309557e-12,-2.01247139827883e-11,3.51620957233105e-10)
(-5.04130447173718e-12,-3.57826251145495e-11,3.47638858445811e-10)
(-4.56403169041156e-12,-6.53940200431603e-11,3.43160684241303e-10)
(-1.9654200181152e-12,-1.3140896362389e-10,3.33822622008173e-10)
(-2.84011094425035e-12,-2.79785815725674e-10,3.06424578442018e-10)
(-6.89229560224065e-13,-5.05171977876601e-10,2.68442568795263e-10)
(-4.13488008702973e-13,-8.98179865774361e-10,1.97882778876915e-10)
(-1.05516725111352e-12,-1.81676783145745e-09,1.062304736148e-10)
(0,0,0)
(0,0,0)
(0,0,0)
(0,0,0)
(0,0,0)
(0,0,0)
(-8.03903200379467e-14,-3.05289311210842e-12,5.64146804583e-10)
(-4.96523188332854e-13,-7.62907304597738e-12,5.63558718828636e-10)
(-2.03990209015495e-12,-1.46200107251229e-11,5.6197359812157e-10)
(-3.37793078346654e-12,-2.87767059591211e-11,5.5898050395374e-10)
(-3.13736621450444e-12,-5.58392833170336e-11,5.54061024337408e-10)
(-2.8252433851577e-12,-1.16972785517855e-10,5.43439901348598e-10)
(-4.15731327159412e-12,-2.42921831010979e-10,5.14383280366438e-10)
(-3.71734651611243e-12,-4.38579578572123e-10,4.51314706181779e-10)
(-3.93107705644116e-12,-8.10848728972944e-10,3.4684757255249e-10)
(-5.36750795633295e-12,-1.71433636470368e-09,1.97027134565795e-10)
(0,0,0)
(0,0,0)
(0,0,0)
(0,0,0)
(0,0,0)
(0,0,0)
(-1.06534222240454e-12,-1.71184188661333e-12,9.68931890583634e-10)
(-2.74546645636322e-12,-4.58025596676498e-12,9.68673151574861e-10)
(-4.12113706114706e-12,-9.68688124437262e-12,9.67665389117644e-10)
(-4.00218279002289e-12,-2.13105650317701e-11,9.64464370489592e-10)
(-3.71227871314327e-12,-4.34009121039645e-11,9.56903170561463e-10)
(-4.77973627302597e-12,-9.01205744293343e-11,9.40020550752428e-10)
(-5.28619022917932e-12,-1.80633977186513e-10,9.00097065015927e-10)
(-5.23220951750538e-12,-3.36296948681517e-10,8.17264843672309e-10)
(-6.31207245166482e-12,-6.63810578223208e-10,6.70558933156612e-10)
(-7.72838337913675e-12,-1.52092147743302e-09,4.1888683692297e-10)
(0,0,0)
(0,0,0)
(0,0,0)
(0,0,0)
(0,0,0)
(0,0,0)
(-3.57385387579488e-12,-5.98616870892903e-13,1.90186370616872e-09)
(-6.17412270955117e-12,-2.0437283240295e-12,1.90158281610414e-09)
(-7.09482127402202e-12,-4.7784899316493e-12,1.90033752325811e-09)
(-5.67897869023408e-12,-1.15094222045375e-11,1.89622373629874e-09)
(-5.09567184257642e-12,-2.42148056256671e-11,1.88616553923021e-09)
(-6.31154877031698e-12,-4.91884739881875e-11,1.86387734689262e-09)
(-6.40101789021212e-12,-9.77730116415139e-11,1.81583450337494e-09)
(-6.34871257160074e-12,-1.9077756681394e-10,1.71778151903006e-09)
(-7.86329110084264e-12,-4.1423244416206e-10,1.52563232547686e-09)
(-9.52539447588838e-12,-1.10527970333436e-09,1.10895920944035e-09)
(0,0,0)
(0,0,0)
(0,0,0)
(0,0,0)
(0,0,0)
(0,0,0)
(0,0,0)
(0,0,0)
(0,0,0)
(0,0,0)
(0,0,0)
(0,0,0)
(0,0,0)
(0,0,0)
(0,0,0)
(0,0,0)
(0,0,0)
(0,0,0)
(0,0,0)
(0,0,0)
(0,0,0)
(0,0,0)
(0,0,0)
(0,0,0)
(0,0,0)
(0,0,0)
(0,0,0)
(0,0,0)
(0,0,0)
(0,0,0)
(0,0,0)
(0,0,0)
(0,0,0)
(0,0,0)
(0,0,0)
(0,0,0)
(0,0,0)
(0,0,0)
(0,0,0)
(0,0,0)
(0,0,0)
(0,0,0)
(0,0,0)
(0,0,0)
(0,0,0)
(0,0,0)
(0,0,0)
(0,0,0)
(0,0,0)
(0,0,0)
(0,0,0)
(0,0,0)
(0,0,0)
(0,0,0)
(0,0,0)
(0,0,0)
(0,0,0)
(0,0,0)
(0,0,0)
(0,0,0)
(0,0,0)
(0,0,0)
(0,0,0)
(0,0,0)
(0,0,0)
(0,0,0)
(0,0,0)
(0,0,0)
(0,0,0)
(0,0,0)
(0,0,0)
(0,0,0)
(0,0,0)
(0,0,0)
(0,0,0)
(0,0,0)
(0,0,0)
(0,0,0)
(0,0,0)
(0,0,0)
(0,0,0)
(0,0,0)
(0,0,0)
(0,0,0)
(0,0,0)
(0,0,0)
(0,0,0)
(0,0,0)
(0,0,0)
(0,0,0)
(0,0,0)
(0,0,0)
(0,0,0)
(0,0,0)
(0,0,0)
(0,0,0)
(0,0,0)
(0,0,0)
(0,0,0)
(0,0,0)
(0,0,0)
(0,0,0)
(-1.06998553873165e-12,-2.59611540462531e-11,3.0832500223752e-11)
(-1.60131103826325e-12,-5.45538224068638e-11,2.91784203626312e-11)
(-2.36842685738501e-12,-8.68673416365188e-11,2.56088931727757e-11)
(-2.36229146263927e-12,-1.29504349601555e-10,1.99884952524564e-11)
(-1.7471759778351e-12,-1.91769730887613e-10,1.27037460178482e-11)
(-4.20121331918028e-13,-2.84461753769792e-10,4.70217270852344e-12)
(7.01982373333363e-13,-4.19468265690201e-10,-2.36310327351243e-12)
(1.12994845510617e-12,-6.14682009504698e-10,-5.17493923775931e-12)
(1.90655773445446e-12,-8.91255085251364e-10,-5.0597961500742e-12)
(2.83782352012426e-12,-1.22996813984874e-09,-2.90285947394948e-12)
(0,0,0)
(0,0,0)
(0,0,0)
(0,0,0)
(0,0,0)
(0,0,0)
(-2.06284861995304e-12,-2.41096039658206e-11,6.42190780848309e-11)
(-3.57645622534361e-12,-5.08305338976125e-11,6.09778970865776e-11)
(-5.13846032890708e-12,-8.12070226296208e-11,5.39047572548982e-11)
(-5.95341652887529e-12,-1.22581179424609e-10,4.28971228191763e-11)
(-4.77938919502745e-12,-1.84578774348593e-10,2.83187058961382e-11)
(-2.66982007974204e-12,-2.78458465019498e-10,1.09028904644317e-11)
(-4.68477144538315e-13,-4.17916848806775e-10,-5.28504005258328e-12)
(2.05794638179579e-12,-6.16345723952527e-10,-9.87702344046885e-12)
(3.88938418841555e-12,-8.9478585366692e-10,-7.83233133062433e-12)
(5.21492624238964e-12,-1.23381134238631e-09,-3.9199216001661e-12)
(0,0,0)
(0,0,0)
(0,0,0)
(0,0,0)
(0,0,0)
(0,0,0)
(-3.16833419308636e-12,-2.10348903424562e-11,1.02181456330897e-10)
(-5.08286739193821e-12,-4.41233953890349e-11,9.71798887980258e-11)
(-7.27773304255254e-12,-7.10486492732542e-11,8.76209992106585e-11)
(-8.29467536300022e-12,-1.09388198595417e-10,7.32201969328411e-11)
(-7.95233306256382e-12,-1.69022829392617e-10,5.31742271120397e-11)
(-6.94652930155893e-12,-2.64236872639931e-10,2.57860849505633e-11)
(-4.2828561522031e-12,-4.14950157212697e-10,-3.65813042552623e-12)
(2.36527997760764e-12,-6.21929912907013e-10,-7.98266183252403e-12)
(5.08064377103939e-12,-9.02044734596735e-10,-3.68140749672241e-12)
(6.10787290302229e-12,-1.23965067541016e-09,-8.28678033399408e-13)
(0,0,0)
(0,0,0)
(0,0,0)
(0,0,0)
(0,0,0)
(0,0,0)
(-2.74829819980514e-12,-1.6641794130766e-11,1.48269482169869e-10)
(-4.53738685115263e-12,-3.54037049845927e-11,1.42856472240737e-10)
(-7.73004698884e-12,-5.8075802990264e-11,1.32783671105776e-10)
(-1.0374279942533e-11,-9.09223126552792e-11,1.17302738451498e-10)
(-1.23171554484561e-11,-1.43364849244491e-10,9.43813348486275e-11)
(-1.35880069587843e-11,-2.35451709004822e-10,6.04630700640126e-11)
(-1.0867083585071e-11,-4.06935267384999e-10,1.65786259028243e-11)
(3.99249615557567e-12,-6.3182551067147e-10,1.39276914779155e-11)
(7.6515244809578e-12,-9.10355158266711e-10,1.53201251612202e-11)
(7.62188722089973e-12,-1.24371432980042e-09,9.88913174337971e-12)
(0,0,0)
(0,0,0)
(0,0,0)
(0,0,0)
(0,0,0)
(0,0,0)
(-2.23893002560458e-12,-1.21318259697682e-11,2.0938664503769e-10)
(-3.82991785930061e-12,-2.64786481597627e-11,2.04657818271327e-10)
(-8.27933341549415e-12,-4.39913918216791e-11,1.95686244364273e-10)
(-1.31800285693651e-11,-6.86079820541169e-11,1.81943128665519e-10)
(-1.7175162315175e-11,-1.07653627951759e-10,1.62890246976545e-10)
(-1.98144735614612e-11,-1.81981790479551e-10,1.41148224238988e-10)
(8.24967005943925e-12,-3.57303344679954e-10,1.48432939747446e-10)
(1.10844126247775e-11,-6.42011168107262e-10,9.65201015296685e-11)
(9.80326299183458e-12,-9.13520375151856e-10,6.52439600649931e-11)
(8.12696400053904e-12,-1.23872109724757e-09,3.3547347648826e-11)
(0,0,0)
(0,0,0)
(0,0,0)
(0,0,0)
(0,0,0)
(0,0,0)
(-1.2498421561686e-12,-8.26699767060477e-12,2.96273928739145e-10)
(-2.58278187273686e-12,-1.83215380861951e-11,2.92962097011728e-10)
(-6.87287904345191e-12,-3.05785493007553e-11,2.86804056844578e-10)
(-1.21700744989932e-11,-4.74424171810607e-11,2.77265515199979e-10)
(-1.57232040425718e-11,-7.4837491120274e-11,2.64893052721774e-10)
(-1.7457314284592e-11,-1.42564857702933e-10,2.49806818024698e-10)
(3.19049491329347e-12,-3.63251621265019e-10,2.48251443400065e-10)
(8.94911652114507e-12,-6.33960880461435e-10,1.98431438728379e-10)
(7.76867365544957e-12,-8.93035291218129e-10,1.38216874951583e-10)
(5.45301344637036e-12,-1.21109996020951e-09,7.07571835472338e-11)
(0,0,0)
(0,0,0)
(0,0,0)
(0,0,0)
(0,0,0)
(0,0,0)
(-6.3759314402513e-13,-5.61355678166418e-12,4.23165329752562e-10)
(-1.32186821538781e-12,-1.22791271538677e-11,4.21049378128542e-10)
(-4.37476053290456e-12,-2.00403650219397e-11,4.17764481334452e-10)
(-7.56904942309543e-12,-3.03157555643612e-11,4.14035618606276e-10)
(-4.78070618275615e-12,-4.37202980781938e-11,4.1364638473151e-10)
(1.0996445441928e-11,-8.44573557005766e-11,4.18135799437388e-10)
(-1.72208601244995e-12,-3.33540967115152e-10,3.60794843061846e-10)
(3.27816105311964e-12,-5.92730483550111e-10,3.50080224485682e-10)
(3.90768045266145e-12,-8.35603577966465e-10,2.43813536531444e-10)
(2.74383960945925e-12,-1.14596266472343e-09,1.25359748604781e-10)
(0,0,0)
(0,0,0)
(0,0,0)
(0,0,0)
(0,0,0)
(0,0,0)
(-8.33355789831514e-13,-3.53064715730612e-12,6.11393837182066e-10)
(-1.9602195607943e-12,-8.05287177778896e-12,6.10487212021092e-10)
(-3.97993740308344e-12,-1.38544469882623e-11,6.08944484820715e-10)
(-5.92459209429065e-12,-2.46742753893967e-11,6.07617426565139e-10)
(-4.95461443863787e-12,-4.56206674815497e-11,6.08333171303449e-10)
(-6.20833491427168e-13,-1.10583793380117e-10,6.11904615975818e-10)
(-3.37659291178627e-12,-3.04762893754129e-10,5.9622177953452e-10)
(-1.53284277839897e-12,-4.90962973713539e-10,5.086300447154e-10)
(-1.1487898195693e-12,-7.22413324369831e-10,3.71068564999074e-10)
(-1.75526066027381e-12,-1.02491012539445e-09,2.00174080948087e-10)
(0,0,0)
(0,0,0)
(0,0,0)
(0,0,0)
(0,0,0)
(0,0,0)
(-1.91982822986594e-12,-1.98067968973031e-12,8.86559220176907e-10)
(-4.27423164261626e-12,-4.73484837873434e-12,8.86032815448253e-10)
(-5.82850974483241e-12,-9.39699387089046e-12,8.84940368953154e-10)
(-6.24212568916599e-12,-1.98449138276188e-11,8.82812186241789e-10)
(-6.015765381985e-12,-4.20552972518067e-11,8.78326064024633e-10)
(-5.78835097751606e-12,-9.72585122487924e-11,8.67034726369696e-10)
(-5.31493443042864e-12,-2.14609504116757e-10,8.28913386608097e-10)
(-4.04568087130981e-12,-3.55613544293685e-10,7.27903833910409e-10)
(-4.21811027766216e-12,-5.55132962437738e-10,5.62946310762727e-10)
(-4.48332055508057e-12,-8.28865419476124e-10,3.23033450201374e-10)
(0,0,0)
(0,0,0)
(0,0,0)
(0,0,0)
(0,0,0)
(0,0,0)
(-3.89158068313158e-12,-7.73220248784859e-13,1.22495712735096e-09)
(-6.97255818767335e-12,-2.22346057269958e-12,1.22425386936981e-09)
(-7.75952424634195e-12,-4.84861237407621e-12,1.22278672034384e-09)
(-7.13020382671385e-12,-1.11591953244262e-11,1.21929750005674e-09)
(-7.02228512960204e-12,-2.51299076045535e-11,1.2106690293885e-09)