/*--------------------------------*- C++ -*----------------------------------*\
| =========                 |                                                 |
| \\      /  F ield         | foam-extend: Open Source CFD                    |
|  \\    /   O peration     | Version:     4.0                                |
|   \\  /    A nd           | Web:         http://www.foam-extend.org         |
|    \\/     M anipulation  |                                                 |
\*---------------------------------------------------------------------------*/
FoamFile
{
    version 2.0;
    format ascii;
    class volVectorField;
    location "1374";
    object      H;
}
// * * * * * * * * * * * * * * * * * * * * * * * * * * * * * * * * * * * * * //

dimensions      [0 1 -1 0 0 0 0];

internalField   nonuniform List<vector>
4096
(
(0,0,0)
(0,0,0)
(0,0,0)
(0,0,0)
(0,0,0)
(0,0,0)
(0,0,0)
(0,0,0)
(0,0,0)
(0,0,0)
(0,0,0)
(0,0,0)
(0,0,0)
(0,0,0)
(0,0,0)
(0,0,0)
(0,0,0)
(0,0,0)
(0,0,0)
(0,0,0)
(0,0,0)
(0,0,0)
(0,0,0)
(0,0,0)
(0,0,0)
(0,0,0)
(0,0,0)
(0,0,0)
(0,0,0)
(0,0,0)
(0,0,0)
(0,0,0)
(0,0,0)
(0,0,0)
(0,0,0)
(0,0,0)
(0,0,0)
(0,0,0)
(0,0,0)
(0,0,0)
(0,0,0)
(0,0,0)
(0,0,0)
(0,0,0)
(0,0,0)
(0,0,0)
(0,0,0)
(0,0,0)
(0,0,0)
(0,0,0)
(0,0,0)
(0,0,0)
(0,0,0)
(0,0,0)
(0,0,0)
(0,0,0)
(0,0,0)
(0,0,0)
(0,0,0)
(0,0,0)
(0,0,0)
(0,0,0)
(0,0,0)
(0,0,0)
(0,0,0)
(0,0,0)
(0,0,0)
(0,0,0)
(0,0,0)
(0,0,0)
(0,0,0)
(0,0,0)
(0,0,0)
(0,0,0)
(0,0,0)
(0,0,0)
(0,0,0)
(0,0,0)
(0,0,0)
(0,0,0)
(0,0,0)
(0,0,0)
(0,0,0)
(0,0,0)
(0,0,0)
(0,0,0)
(0,0,0)
(0,0,0)
(0,0,0)
(0,0,0)
(0,0,0)
(0,0,0)
(0,0,0)
(0,0,0)
(0,0,0)
(0,0,0)
(0,0,0)
(0,0,0)
(0,0,0)
(0,0,0)
(0,0,0)
(0,0,0)
(0,0,0)
(0,0,0)
(0,0,0)
(0,0,0)
(0,0,0)
(0,0,0)
(0,0,0)
(0,0,0)
(0,0,0)
(0,0,0)
(0,0,0)
(0,0,0)
(0,0,0)
(0,0,0)
(0,0,0)
(0,0,0)
(0,0,0)
(0,0,0)
(0,0,0)
(0,0,0)
(0,0,0)
(0,0,0)
(0,0,0)
(0,0,0)
(0,0,0)
(0,0,0)
(0,0,0)
(0,0,0)
(0,0,0)
(0,0,0)
(0,0,0)
(0,0,0)
(0,0,0)
(0,0,0)
(0,0,0)
(0,0,0)
(0,0,0)
(0,0,0)
(0,0,0)
(0,0,0)
(0,0,0)
(0,0,0)
(0,0,0)
(0,0,0)
(0,0,0)
(0,0,0)
(0,0,0)
(0,0,0)
(0,0,0)
(0,0,0)
(0,0,0)
(0,0,0)
(0,0,0)
(0,0,0)
(0,0,0)
(0,0,0)
(0,0,0)
(0,0,0)
(0,0,0)
(0,0,0)
(0,0,0)
(0,0,0)
(0,0,0)
(0,0,0)
(0,0,0)
(0,0,0)
(0,0,0)
(0,0,0)
(0,0,0)
(0,0,0)
(0,0,0)
(0,0,0)
(0,0,0)
(0,0,0)
(0,0,0)
(0,0,0)
(0,0,0)
(0,0,0)
(0,0,0)
(0,0,0)
(0,0,0)
(0,0,0)
(0,0,0)
(0,0,0)
(0,0,0)
(0,0,0)
(0,0,0)
(0,0,0)
(0,0,0)
(0,0,0)
(0,0,0)
(0,0,0)
(0,0,0)
(0,0,0)
(0,0,0)
(0,0,0)
(0,0,0)
(0,0,0)
(0,0,0)
(0,0,0)
(0,0,0)
(0,0,0)
(0,0,0)
(0,0,0)
(0,0,0)
(0,0,0)
(0,0,0)
(0,0,0)
(0,0,0)
(0,0,0)
(0,0,0)
(0,0,0)
(0,0,0)
(0,0,0)
(0,0,0)
(0,0,0)
(0,0,0)
(0,0,0)
(0,0,0)
(0,0,0)
(0,0,0)
(0,0,0)
(0,0,0)
(0,0,0)
(0,0,0)
(0,0,0)
(0,0,0)
(0,0,0)
(0,0,0)
(0,0,0)
(0,0,0)
(0,0,0)
(0,0,0)
(0,0,0)
(0,0,0)
(0,0,0)
(0,0,0)
(0,0,0)
(0,0,0)
(0,0,0)
(0,0,0)
(0,0,0)
(0,0,0)
(0,0,0)
(0,0,0)
(0,0,0)
(0,0,0)
(0,0,0)
(0,0,0)
(0,0,0)
(0,0,0)
(0,0,0)
(0,0,0)
(0,0,0)
(0,0,0)
(0,0,0)
(0,0,0)
(0,0,0)
(0,0,0)
(0,0,0)
(0,0,0)
(0,0,0)
(0,0,0)
(0,0,0)
(0,0,0)
(0,0,0)
(0,0,0)
(0,0,0)
(0,0,0)
(0,0,0)
(0,0,0)
(0,0,0)
(0,0,0)
(0,0,0)
(0,0,0)
(0,0,0)
(0,0,0)
(0,0,0)
(0,0,0)
(0,0,0)
(0,0,0)
(0,0,0)
(0,0,0)
(0,0,0)
(0,0,0)
(0,0,0)
(0,0,0)
(0,0,0)
(0,0,0)
(0,0,0)
(0,0,0)
(0,0,0)
(0,0,0)
(0,0,0)
(0,0,0)
(0,0,0)
(0,0,0)
(0,0,0)
(0,0,0)
(0,0,0)
(0,0,0)
(0,0,0)
(0,0,0)
(0,0,0)
(0,0,0)
(0,0,0)
(0,0,0)
(0,0,0)
(0,0,0)
(0,0,0)
(0,0,0)
(0,0,0)
(0,0,0)
(0,0,0)
(0,0,0)
(0,0,0)
(0,0,0)
(0,0,0)
(0,0,0)
(0,0,0)
(0,0,0)
(0,0,0)
(0,0,0)
(0,0,0)
(0,0,0)
(0,0,0)
(0,0,0)
(0,0,0)
(0,0,0)
(0,0,0)
(0,0,0)
(0,0,0)
(0,0,0)
(0,0,0)
(0,0,0)
(0,0,0)
(0,0,0)
(0,0,0)
(0,0,0)
(0,0,0)
(0,0,0)
(0,0,0)
(0,0,0)
(0,0,0)
(0,0,0)
(0,0,0)
(0,0,0)
(0,0,0)
(0,0,0)
(0,0,0)
(0,0,0)
(0,0,0)
(0,0,0)
(0,0,0)
(0,0,0)
(0,0,0)
(0,0,0)
(0,0,0)
(0,0,0)
(0,0,0)
(0,0,0)
(0,0,0)
(0,0,0)
(0,0,0)
(0,0,0)
(0,0,0)
(0,0,0)
(0,0,0)
(0,0,0)
(0,0,0)
(0,0,0)
(0,0,0)
(0,0,0)
(0,0,0)
(0,0,0)
(0,0,0)
(0,0,0)
(0,0,0)
(0,0,0)
(0,0,0)
(0,0,0)
(0,0,0)
(0,0,0)
(0,0,0)
(0,0,0)
(0,0,0)
(0,0,0)
(0,0,0)
(0,0,0)
(0,0,0)
(0,0,0)
(0,0,0)
(0,0,0)
(0,0,0)
(0,0,0)
(0,0,0)
(0,0,0)
(0,0,0)
(0,0,0)
(0,0,0)
(0,0,0)
(0,0,0)
(0,0,0)
(0,0,0)
(0,0,0)
(0,0,0)
(0,0,0)
(0,0,0)
(0,0,0)
(0,0,0)
(0,0,0)
(0,0,0)
(0,0,0)
(0,0,0)
(0,0,0)
(0,0,0)
(0,0,0)
(0,0,0)
(0,0,0)
(0,0,0)
(0,0,0)
(0,0,0)
(0,0,0)
(0,0,0)
(0,0,0)
(0,0,0)
(0,0,0)
(0,0,0)
(0,0,0)
(0,0,0)
(0,0,0)
(0,0,0)
(0,0,0)
(0,0,0)
(0,0,0)
(0,0,0)
(0,0,0)
(0,0,0)
(0,0,0)
(0,0,0)
(0,0,0)
(0,0,0)
(0,0,0)
(0,0,0)
(0,0,0)
(0,0,0)
(0,0,0)
(0,0,0)
(0,0,0)
(0,0,0)
(0,0,0)
(0,0,0)
(0,0,0)
(0,0,0)
(0,0,0)
(0,0,0)
(0,0,0)
(0,0,0)
(0,0,0)
(0,0,0)
(0,0,0)
(0,0,0)
(0,0,0)
(0,0,0)
(0,0,0)
(0,0,0)
(0,0,0)
(0,0,0)
(0,0,0)
(0,0,0)
(0,0,0)
(0,0,0)
(0,0,0)
(0,0,0)
(0,0,0)
(0,0,0)
(0,0,0)
(0,0,0)
(0,0,0)
(0,0,0)
(0,0,0)
(0,0,0)
(0,0,0)
(0,0,0)
(0,0,0)
(0,0,0)
(0,0,0)
(0,0,0)
(0,0,0)
(0,0,0)
(0,0,0)
(0,0,0)
(0,0,0)
(0,0,0)
(0,0,0)
(0,0,0)
(0,0,0)
(0,0,0)
(0,0,0)
(0,0,0)
(0,0,0)
(0,0,0)
(0,0,0)
(0,0,0)
(0,0,0)
(0,0,0)
(0,0,0)
(0,0,0)
(0,0,0)
(0,0,0)
(0,0,0)
(0,0,0)
(0,0,0)
(0,0,0)
(0,0,0)
(0,0,0)
(0,0,0)
(0,0,0)
(0,0,0)
(0,0,0)
(0,0,0)
(0,0,0)
(0,0,0)
(0,0,0)
(0,0,0)
(0,0,0)
(0,0,0)
(0,0,0)
(0,0,0)
(0,0,0)
(0,0,0)
(0,0,0)
(0,0,0)
(0,0,0)
(0,0,0)
(0,0,0)
(0,0,0)
(0,0,0)
(0,0,0)
(0,0,0)
(0,0,0)
(0,0,0)
(0,0,0)
(0,0,0)
(0,0,0)
(0,0,0)
(0,0,0)
(0,0,0)
(0,0,0)
(0,0,0)
(0,0,0)
(0,0,0)
(0,0,0)
(0,0,0)
(0,0,0)
(0,0,0)
(0,0,0)
(0,0,0)
(0,0,0)
(0,0,0)
(0,0,0)
(0,0,0)
(0,0,0)
(0,0,0)
(0,0,0)
(0,0,0)
(0,0,0)
(0,0,0)
(0,0,0)
(0,0,0)
(0,0,0)
(0,0,0)
(0,0,0)
(0,0,0)
(0,0,0)
(0,0,0)
(0,0,0)
(0,0,0)
(0,0,0)
(0,0,0)
(0,0,0)
(0,0,0)
(0,0,0)
(0,0,0)
(0,0,0)
(0,0,0)
(0,0,0)
(0,0,0)
(0,0,0)
(0,0,0)
(0,0,0)
(0,0,0)
(0,0,0)
(0,0,0)
(0,0,0)
(0,0,0)
(0,0,0)
(0,0,0)
(0,0,0)
(0,0,0)
(0,0,0)
(0,0,0)
(0,0,0)
(0,0,0)
(0,0,0)
(0,0,0)
(0,0,0)
(0,0,0)
(0,0,0)
(0,0,0)
(0,0,0)
(0,0,0)
(0,0,0)
(0,0,0)
(0,0,0)
(0,0,0)
(0,0,0)
(0,0,0)
(0,0,0)
(0,0,0)
(0,0,0)
(0,0,0)
(0,0,0)
(0,0,0)
(0,0,0)
(0,0,0)
(0,0,0)
(0,0,0)
(0,0,0)
(0,0,0)
(0,0,0)
(0,0,0)
(0,0,0)
(0,0,0)
(0,0,0)
(0,0,0)
(0,0,0)
(0,0,0)
(0,0,0)
(0,0,0)
(0,0,0)
(0,0,0)
(0,0,0)
(0,0,0)
(0,0,0)
(0,0,0)
(0,0,0)
(0,0,0)
(0,0,0)
(0,0,0)
(0,0,0)
(0,0,0)
(0,0,0)
(0,0,0)
(0,0,0)
(0,0,0)
(0,0,0)
(0,0,0)
(0,0,0)
(0,0,0)
(0,0,0)
(0,0,0)
(0,0,0)
(0,0,0)
(0,0,0)
(0,0,0)
(0,0,0)
(0,0,0)
(0,0,0)
(0,0,0)
(0,0,0)
(0,0,0)
(0,0,0)
(0,0,0)
(0,0,0)
(0,0,0)
(0,0,0)
(0,0,0)
(0,0,0)
(0,0,0)
(0,0,0)
(0,0,0)
(0,0,0)
(0,0,0)
(0,0,0)
(0,0,0)
(0,0,0)
(0,0,0)
(0,0,0)
(0,0,0)
(0,0,0)
(0,0,0)
(0,0,0)
(0,0,0)
(0,0,0)
(0,0,0)
(0,0,0)
(0,0,0)
(0,0,0)
(0,0,0)
(0,0,0)
(0,0,0)
(0,0,0)
(0,0,0)
(0,0,0)
(0,0,0)
(0,0,0)
(0,0,0)
(0,0,0)
(0,0,0)
(0,0,0)
(0,0,0)
(0,0,0)
(0,0,0)
(0,0,0)
(0,0,0)
(0,0,0)
(0,0,0)
(0,0,0)
(0,0,0)
(0,0,0)
(0,0,0)
(0,0,0)
(0,0,0)
(0,0,0)
(0,0,0)
(0,0,0)
(0,0,0)
(0,0,0)
(0,0,0)
(0,0,0)
(0,0,0)
(0,0,0)
(0,0,0)
(0,0,0)
(0,0,0)
(0,0,0)
(0,0,0)
(0,0,0)
(0,0,0)
(0,0,0)
(0,0,0)
(0,0,0)
(0,0,0)
(0,0,0)
(0,0,0)
(0,0,0)
(0,0,0)
(0,0,0)
(0,0,0)
(0,0,0)
(0,0,0)
(0,0,0)
(0,0,0)
(0,0,0)
(0,0,0)
(0,0,0)
(0,0,0)
(0,0,0)
(0,0,0)
(0,0,0)
(0,0,0)
(0,0,0)
(0,0,0)
(0,0,0)
(0,0,0)
(0,0,0)
(0,0,0)
(0,0,0)
(0,0,0)
(0,0,0)
(0,0,0)
(0,0,0)
(0,0,0)
(0,0,0)
(0,0,0)
(0,0,0)
(0,0,0)
(0,0,0)
(0,0,0)
(0,0,0)
(0,0,0)
(0,0,0)
(0,0,0)
(0,0,0)
(0,0,0)
(0,0,0)
(0,0,0)
(0,0,0)
(0,0,0)
(0,0,0)
(0,0,0)
(0,0,0)
(0,0,0)
(0,0,0)
(0,0,0)
(0,0,0)
(0,0,0)
(0,0,0)
(0,0,0)
(0,0,0)
(0,0,0)
(0,0,0)
(0,0,0)
(0,0,0)
(0,0,0)
(0,0,0)
(0,0,0)
(0,0,0)
(0,0,0)
(0,0,0)
(0,0,0)
(0,0,0)
(0,0,0)
(0,0,0)
(0,0,0)
(0,0,0)
(7.17690888675324e-13,1.28148654970255e-11,-1.41133108892383e-11)
(1.45452543932287e-12,2.76399093626302e-11,-1.36406637947739e-11)
(2.21890303201124e-12,4.62968041210976e-11,-1.23188300900271e-11)
(2.69334159727569e-12,7.1800335731091e-11,-9.85957583133949e-12)
(2.20359397941481e-12,1.10463316352048e-10,-7.1443206252915e-12)
(1.88236581438369e-12,1.72021535160871e-10,-4.20588681481006e-12)
(-2.02067233325411e-13,2.70965047621645e-10,-1.58869829455359e-12)
(-2.2274297786591e-12,4.35780143732953e-10,-5.37662231040455e-13)
(-2.76101025416665e-12,7.0962028962465e-10,-2.77645297468823e-13)
(-3.97173878499349e-12,1.09246428400977e-09,-6.08354403331681e-14)
(0,0,0)
(0,0,0)
(0,0,0)
(0,0,0)
(0,0,0)
(0,0,0)
(1.51045821784231e-12,1.22590971946505e-11,-3.11131646791107e-11)
(3.66209858956304e-12,2.63420268820908e-11,-2.99618008927379e-11)
(4.9521317572762e-12,4.39470704295742e-11,-2.72788727925574e-11)
(5.74160022829465e-12,6.93198925497624e-11,-2.30499999074967e-11)
(4.97027589134346e-12,1.08135161902222e-10,-1.75090163500708e-11)
(3.9144153063393e-12,1.70111252569649e-10,-1.14822784566573e-11)
(2.63161640093836e-13,2.70351119403277e-10,-6.08722910319698e-12)
(-3.42278605243716e-12,4.36113304766041e-10,-2.81801889453939e-12)
(-5.59444216308616e-12,7.10301874135805e-10,-1.30514721973979e-12)
(-7.01422280292475e-12,1.09309101970143e-09,-4.51988801489237e-13)
(0,0,0)
(0,0,0)
(0,0,0)
(0,0,0)
(0,0,0)
(0,0,0)
(1.00385359605273e-12,1.09006921063951e-11,-5.14812747273702e-11)
(2.99575678093426e-12,2.39335745475726e-11,-4.97159160317292e-11)
(4.91345579139964e-12,4.01437946310604e-11,-4.63258080033603e-11)
(6.99766649583697e-12,6.41627749359468e-11,-4.13731882473325e-11)
(7.82190615130778e-12,1.02363391112141e-10,-3.40296389256228e-11)
(7.34721072059418e-12,1.64996995172258e-10,-2.50804422361667e-11)
(3.40260274466492e-12,2.67138098114872e-10,-1.61552553567906e-11)
(-1.25558162109479e-12,4.35049219555681e-10,-1.0023662841222e-11)
(-4.78273365255265e-12,7.10319362111767e-10,-6.15397367789635e-12)
(-6.35685786233089e-12,1.09345607432744e-09,-2.93778859773593e-12)
(0,0,0)
(0,0,0)
(0,0,0)
(0,0,0)
(0,0,0)
(0,0,0)
(5.36571675705829e-13,9.06643330756378e-12,-7.76655929090447e-11)
(2.46066987128814e-12,2.06201944976602e-11,-7.59242538265734e-11)
(4.45719161324985e-12,3.53431101742149e-11,-7.2186389668537e-11)
(6.97118115808735e-12,5.73050416492232e-11,-6.65331753411039e-11)
(9.27517041200779e-12,9.36136930392958e-11,-5.84371382511375e-11)
(1.04318404098539e-11,1.56082474186106e-10,-4.81693443865422e-11)
(7.98371555460545e-12,2.60750870897329e-10,-3.68170716753205e-11)
(3.59981498499575e-12,4.31964388498903e-10,-2.7186952415756e-11)
(1.0922393717543e-13,7.08247999688459e-10,-1.85488427963232e-11)
(-5.61820677751145e-13,1.09154909053946e-09,-9.47511663246332e-12)
(0,0,0)
(0,0,0)
(0,0,0)
(0,0,0)
(0,0,0)
(0,0,0)
(2.89905429490117e-13,7.02406175431892e-12,-1.15278103140929e-10)
(1.85522102758488e-12,1.66055582542039e-11,-1.14156053312909e-10)
(3.46993158270596e-12,2.94338920298842e-11,-1.10876679283134e-10)
(5.91270148896116e-12,4.90868229105011e-11,-1.0543115900556e-10)
(8.92936803299941e-12,8.25440894754355e-11,-9.75466809163838e-11)
(1.1362568959326e-11,1.43407032900529e-10,-8.75999035920027e-11)
(1.02780858178726e-11,2.50326956977388e-10,-7.55528971807761e-11)
(7.89042236775832e-12,4.25336501495944e-10,-6.00121572488224e-11)
(6.18461762993366e-12,7.01522914009401e-10,-4.21546558764846e-11)
(5.85007859543208e-12,1.08412997349342e-09,-2.19586492776618e-11)
(0,0,0)
(0,0,0)
(0,0,0)
(0,0,0)
(0,0,0)
(0,0,0)
(-5.86727615803369e-14,5.0199591884628e-12,-1.74120774782754e-10)
(8.46894560666153e-13,1.252759703708e-11,-1.7350572719375e-10)
(2.29761062462969e-12,2.31920403873247e-11,-1.71190202667105e-10)
(4.57311228421568e-12,4.00198768388117e-11,-1.66754769780575e-10)
(8.30620136936611e-12,7.02558978618046e-11,-1.59637773245772e-10)
(1.21971525895101e-11,1.28855532653591e-10,-1.49721669843025e-10)
(1.38558151172257e-11,2.36439702831929e-10,-1.34672526497499e-10)
(1.33228382172306e-11,4.10450780099676e-10,-1.12257474060452e-10)
(1.38624336933914e-11,6.83875635878012e-10,-8.13740944422335e-11)
(1.3953915419254e-11,1.06429197250425e-09,-4.31297425489088e-11)
(0,0,0)
(0,0,0)
(0,0,0)
(0,0,0)
(0,0,0)
(0,0,0)
(-1.57761225184586e-13,3.2138301616485e-12,-2.70610079399511e-10)
(5.95695678139448e-13,9.05804141317811e-12,-2.70358996174198e-10)
(2.15608577318635e-12,1.75772485609569e-11,-2.68580020408865e-10)
(4.43024673806884e-12,3.12383099037521e-11,-2.64989955944876e-10)
(8.84334603839651e-12,5.81260459310698e-11,-2.59037561476363e-10)
(1.34452616417368e-11,1.12331596905343e-10,-2.48682061365137e-10)
(1.78306558252962e-11,2.15795618570081e-10,-2.28075106060249e-10)
(1.88526294696795e-11,3.81864779318789e-10,-1.96316385478736e-10)
(2.07012497821261e-11,6.47629304270235e-10,-1.46762290966741e-10)
(2.1814149554846e-11,1.02286591364165e-09,-8.0000834846212e-11)
(0,0,0)
(0,0,0)
(0,0,0)
(0,0,0)
(0,0,0)
(0,0,0)
(9.96343062583523e-13,1.72940444494341e-12,-4.32237162533281e-10)
(1.90531392054455e-12,5.94100206045447e-12,-4.32371632275443e-10)
(3.66050135509303e-12,1.26807559415013e-11,-4.31098482299891e-10)
(6.27418392826025e-12,2.4074795919049e-11,-4.28080185909115e-10)
(1.10579013934981e-11,4.80196371465095e-11,-4.22664104048296e-10)
(1.62973966683239e-11,9.57432775115357e-11,-4.11003922362044e-10)
(2.07665439660821e-11,1.85919117008397e-10,-3.85487677135912e-10)
(2.3543575048455e-11,3.3357380010456e-10,-3.38168763849317e-10)
(2.65687787625649e-11,5.81952994081412e-10,-2.61172047549872e-10)
(2.8958578156722e-11,9.44014413397177e-10,-1.47982903773241e-10)
(0,0,0)
(0,0,0)
(0,0,0)
(0,0,0)
(0,0,0)
(0,0,0)
(2.33985980310133e-12,7.42714880408258e-13,-7.03878535467828e-10)
(4.33151050185154e-12,3.48459087868476e-12,-7.0415955263854e-10)
(6.88551544332911e-12,8.53900102996457e-12,-7.03019432974589e-10)
(9.77829722296752e-12,1.75128975171945e-11,-6.99784064275041e-10)
(1.41763887787559e-11,3.59190217490881e-11,-6.93190803356044e-10)
(1.95798411365795e-11,7.18131475989959e-11,-6.78452817965034e-10)
(2.37134302293243e-11,1.39613780466068e-10,-6.45931227870719e-10)
(2.76127988696043e-11,2.57279236646533e-10,-5.82656139934903e-10)
(3.17559270217159e-11,4.69173701458613e-10,-4.70891476622108e-10)
(3.47627468773719e-11,7.96583099040651e-10,-2.83101776533115e-10)
(0,0,0)
(0,0,0)
(0,0,0)
(0,0,0)
(0,0,0)
(0,0,0)
(3.46822580275113e-12,1.59391283063662e-13,-1.08565413710895e-09)
(5.70697862743143e-12,1.47457823649134e-12,-1.0860319219307e-09)
(8.10633004816481e-12,4.35110006874611e-12,-1.08543133627058e-09)
(1.12960699679662e-11,9.49275255779352e-12,-1.08197039715117e-09)
(1.55317177128233e-11,1.95621019225205e-11,-1.07386476578758e-09)
(2.13908855755463e-11,3.89468606340923e-11,-1.05641124106064e-09)
(2.53468656915529e-11,7.63176202631452e-11,-1.01861376757472e-09)
(2.99005266427161e-11,1.45741920767779e-10,-9.43275893216874e-10)
(3.53300085151316e-11,2.81579615319515e-10,-7.97876335190061e-10)
(3.84546070570737e-11,5.14207199592873e-10,-5.15744591356543e-10)
(0,0,0)
(0,0,0)
(0,0,0)
(0,0,0)
(0,0,0)
(0,0,0)
(0,0,0)
(0,0,0)
(0,0,0)
(0,0,0)
(0,0,0)
(0,0,0)
(0,0,0)
(0,0,0)
(0,0,0)
(0,0,0)
(0,0,0)
(0,0,0)
(0,0,0)
(0,0,0)
(0,0,0)
(0,0,0)
(0,0,0)
(0,0,0)
(0,0,0)
(0,0,0)
(0,0,0)
(0,0,0)
(0,0,0)
(0,0,0)
(0,0,0)
(0,0,0)
(0,0,0)
(0,0,0)
(0,0,0)
(0,0,0)
(0,0,0)
(0,0,0)
(0,0,0)
(0,0,0)
(0,0,0)
(0,0,0)
(0,0,0)
(0,0,0)
(0,0,0)
(0,0,0)
(0,0,0)
(0,0,0)
(0,0,0)
(0,0,0)
(0,0,0)
(0,0,0)
(0,0,0)
(0,0,0)
(0,0,0)
(0,0,0)
(0,0,0)
(0,0,0)
(0,0,0)
(0,0,0)
(0,0,0)
(0,0,0)
(0,0,0)
(0,0,0)
(0,0,0)
(0,0,0)
(0,0,0)
(0,0,0)
(0,0,0)
(0,0,0)
(0,0,0)
(0,0,0)
(0,0,0)
(0,0,0)
(0,0,0)
(0,0,0)
(0,0,0)
(0,0,0)
(0,0,0)
(0,0,0)
(0,0,0)
(0,0,0)
(0,0,0)
(0,0,0)
(0,0,0)
(0,0,0)
(0,0,0)
(0,0,0)
(0,0,0)
(0,0,0)
(0,0,0)
(0,0,0)
(0,0,0)
(0,0,0)
(0,0,0)
(0,0,0)
(0,0,0)
(0,0,0)
(0,0,0)
(0,0,0)
(0,0,0)
(0,0,0)
(8.00812096590996e-13,2.41267960481334e-11,-2.76564825048526e-11)
(1.4305742151094e-12,5.09874151021339e-11,-2.62792900500785e-11)
(2.10938246484335e-12,8.51770607715102e-11,-2.35447705646243e-11)
(2.45852957254641e-12,1.32389266023653e-10,-1.90344078789306e-11)
(1.59331461873942e-12,2.01702336929689e-10,-1.34740136843328e-11)
(1.17545988541961e-12,3.08091558868422e-10,-7.21637484343025e-12)
(-6.39175078366443e-13,4.76370380376585e-10,-1.49756862348993e-12)
(-2.8206077455408e-12,7.63551560283971e-10,1.03089272098046e-12)
(-3.65940462262297e-12,1.31253006041245e-09,1.08841278407141e-12)
(-4.65930991743081e-12,2.5713370240336e-09,3.4844510431735e-13)
(0,0,0)
(0,0,0)
(0,0,0)
(0,0,0)
(0,0,0)
(0,0,0)
(1.71749951972489e-12,2.27532961818238e-11,-5.91175814348568e-11)
(3.38762282390492e-12,4.86363123951435e-11,-5.66573999004501e-11)
(4.52653467073815e-12,8.13077225712524e-11,-5.13220467273767e-11)
(5.35773428468732e-12,1.27643035986734e-10,-4.32017935939283e-11)
(4.71530878804071e-12,1.9641665109628e-10,-3.19047329702586e-11)
(3.63362335026136e-12,3.0383967371243e-10,-1.88585165524916e-11)
(2.06972719798186e-13,4.75268335370651e-10,-6.8389933333827e-12)
(-3.87157251682421e-12,7.64454370347899e-10,-6.05231699512964e-13)
(-6.46508855685623e-12,1.31414490501508e-09,7.51377123741126e-13)
(-7.83126623029028e-12,2.57242061297296e-09,4.02449058914577e-13)
(0,0,0)
(0,0,0)
(0,0,0)
(0,0,0)
(0,0,0)
(0,0,0)
(1.07275369924465e-12,2.00915554601659e-11,-9.60159643922199e-11)
(2.91902880247853e-12,4.39516303959578e-11,-9.29513342258483e-11)
(4.76152049222507e-12,7.43717208657872e-11,-8.62802571076272e-11)
(6.51185046085004e-12,1.17783861808251e-10,-7.56485524306173e-11)
(7.62240753463692e-12,1.84625071815178e-10,-5.98599004977424e-11)
(7.33654482734024e-12,2.936169291744e-10,-4.01525876169075e-11)
(3.65823744660339e-12,4.70989872786775e-10,-2.0397270221024e-11)
(-2.04043972765876e-12,7.65390016590016e-10,-1.04101199518683e-11)
(-5.9275563095813e-12,1.31655447704082e-09,-6.44272472429884e-12)
(-7.38766267228146e-12,2.57470207738684e-09,-3.40492618412301e-12)
(0,0,0)
(0,0,0)
(0,0,0)
(0,0,0)
(0,0,0)
(0,0,0)
(8.37604146478373e-13,1.66510293381569e-11,-1.43614995271281e-10)
(2.73744195670875e-12,3.73589099475419e-11,-1.40440897561708e-10)
(4.71319543014061e-12,6.43911258148244e-11,-1.33351943995047e-10)
(7.0933628068448e-12,1.02923186925027e-10,-1.21221027666691e-10)
(1.00769801112671e-11,1.65330185831765e-10,-1.03333776239007e-10)
(1.17550089842188e-11,2.73942692031121e-10,-7.97512357048867e-11)
(8.77751021495731e-12,4.60401780558632e-10,-5.3925001303618e-11)
(1.58959236847266e-12,7.64497698271164e-10,-3.87563207093795e-11)
(-2.23941654738211e-12,1.31692389041359e-09,-2.75720779280613e-11)
(-2.61782026411499e-12,2.5743988441168e-09,-1.46264112109952e-11)
(0,0,0)
(0,0,0)
(0,0,0)
(0,0,0)
(0,0,0)
(0,0,0)
(1.17195816732656e-12,1.2853384374775e-11,-2.1075937020893e-10)
(2.65380821492895e-12,2.96177148005828e-11,-2.08137627403184e-10)
(4.26626294768825e-12,5.18950510406191e-11,-2.0187507749906e-10)
(7.09516947148129e-12,8.43274895572147e-11,-1.90704851925632e-10)
(1.12707823222774e-11,1.39454410297845e-10,-1.74360525317064e-10)
(1.38670627949958e-11,2.42892259691939e-10,-1.53951090323609e-10)
(8.62460003144328e-12,4.36672251575402e-10,-1.33932370863763e-10)
(4.91864239175279e-12,7.57042738421286e-10,-1.0323388320337e-10)
(3.63588916248848e-12,1.30891865233543e-09,-7.21658308203277e-11)
(3.72943030652436e-12,2.56406583725696e-09,-3.76615953273737e-11)
(0,0,0)
(0,0,0)
(0,0,0)
(0,0,0)
(0,0,0)
(0,0,0)
(1.13240867622997e-12,9.41833755349629e-12,-3.13288067698963e-10)
(2.00092565792444e-12,2.22695849652252e-11,-3.11292094611421e-10)
(3.47696956446582e-12,3.94707238623036e-11,-3.06326732019443e-10)
(6.23768268446984e-12,6.53683486322939e-11,-2.97593782183627e-10)
(1.05199498973529e-11,1.12852390387595e-10,-2.84423577113916e-10)
(1.36719449922264e-11,2.11554672789133e-10,-2.6631105528914e-10)
(1.20848469420596e-11,4.1370581404179e-10,-2.41840024950237e-10)
(1.10254593799434e-11,7.34142159085832e-10,-2.00550112544821e-10)
(1.18644134078608e-11,1.28034570539968e-09,-1.44380298117121e-10)
(1.22502317333496e-11,2.53089070043163e-09,-7.60225976996844e-11)
(0,0,0)
(0,0,0)
(0,0,0)
(0,0,0)
(0,0,0)
(0,0,0)
(1.07558126620706e-12,6.44427900725867e-12,-4.77266636488674e-10)
(1.93375926552952e-12,1.59327063243618e-11,-4.7585258053748e-10)
(3.4625139286541e-12,2.89954457839709e-11,-4.71860713853155e-10)
(5.6413662542548e-12,4.90057283799131e-11,-4.65599919348771e-10)
(8.5942547117391e-12,8.86974564557138e-11,-4.56891277738256e-10)
(9.4266257306855e-12,1.77527360364737e-10,-4.41569807099494e-10)
(1.59484368054725e-11,3.78606600243267e-10,-4.02371211339711e-10)
(1.75895141718758e-11,6.84768993326469e-10,-3.52452884996727e-10)
(1.96161038501189e-11,1.21694220156436e-09,-2.61368280210757e-10)
(2.06648149535281e-11,2.45850723698187e-09,-1.41248987135414e-10)
(0,0,0)
(0,0,0)
(0,0,0)
(0,0,0)
(0,0,0)
(0,0,0)
(2.11750236928066e-12,3.91251211817279e-12,-7.57105359594662e-10)
(3.08857512676224e-12,1.03819046007004e-11,-7.56382134090065e-10)
(4.78395987585573e-12,2.07889924103891e-11,-7.53884837459857e-10)
(7.4200004692961e-12,3.82534017174476e-11,-7.49519591142656e-10)
(1.14983351046494e-11,7.55323841203208e-11,-7.42241015817308e-10)
(1.47112813547427e-11,1.58083597779572e-10,-7.26063620589815e-10)
(1.97529672218064e-11,3.29557314035507e-10,-6.85634534717234e-10)
(2.28414222069082e-11,5.94935621876674e-10,-6.01827494253623e-10)
(2.61589276089048e-11,1.09890314011925e-09,-4.6384450358335e-10)
(2.84069887394952e-11,2.31961251213193e-09,-2.63878774119049e-10)
(0,0,0)
(0,0,0)
(0,0,0)
(0,0,0)
(0,0,0)
(0,0,0)
(3.20420057115858e-12,2.20952202784292e-12,-1.30072526978902e-09)
(5.20140348009513e-12,6.34897128739141e-12,-1.30042457299251e-09)
(7.83804770500055e-12,1.41615048840986e-11,-1.29871098042786e-09)
(1.1205181263375e-11,2.82763861158446e-11,-1.29420287574963e-09)
(1.57953232143231e-11,5.84091719858796e-11,-1.2843918966384e-09)
(1.99245380071502e-11,1.21567663264147e-10,-1.26115111411102e-09)
(2.37345024964301e-11,2.45220508509173e-10,-1.2077434816549e-09)
(2.7385451435574e-11,4.56304486005378e-10,-1.09737685859964e-09)
(3.15603130717534e-11,8.99301340568504e-10,-9.01581230865071e-10)
(3.4036869792349e-11,2.05698066151882e-09,-5.63414610759761e-10)
(0,0,0)
(0,0,0)
(0,0,0)
(0,0,0)
(0,0,0)
(0,0,0)
(4.00540190756447e-12,1.03036760848195e-12,-2.55873705429068e-09)
(6.58097120380189e-12,3.08839991970512e-12,-2.55851138213486e-09)
(8.99649099749988e-12,7.45118057968127e-12,-2.55719031987773e-09)
(1.26831911621693e-11,1.553791993304e-11,-2.55210689688749e-09)
(1.76402949084031e-11,3.24786915054947e-11,-2.53963766172411e-09)
(2.25402727237119e-11,6.67232241318245e-11,-2.51052231255213e-09)
(2.6326611596847e-11,1.33368075216978e-10,-2.44661594554798e-09)
(3.02428893836927e-11,2.59479093329566e-10,-2.31543697963313e-09)
(3.47778800011273e-11,5.61086479156505e-10,-2.0571040263681e-09)
(3.69172152934359e-11,1.4946237914158e-09,-1.49586406139236e-09)
(0,0,0)
(0,0,0)
(0,0,0)
(0,0,0)
(0,0,0)
(0,0,0)
(0,0,0)
(0,0,0)
(0,0,0)
(0,0,0)
(0,0,0)
(0,0,0)
(0,0,0)
(0,0,0)
(0,0,0)
(0,0,0)
(0,0,0)
(0,0,0)
(0,0,0)
(0,0,0)
(0,0,0)
(0,0,0)
(0,0,0)
(0,0,0)
(0,0,0)
(0,0,0)
(0,0,0)
(0,0,0)
(0,0,0)
(0,0,0)
(0,0,0)
(0,0,0)
(0,0,0)
(0,0,0)
(0,0,0)
(0,0,0)
(0,0,0)
(0,0,0)
(0,0,0)
(0,0,0)
(0,0,0)
(0,0,0)
(0,0,0)
(0,0,0)
(0,0,0)
(0,0,0)
(0,0,0)
(0,0,0)
(0,0,0)
(0,0,0)
(0,0,0)
(0,0,0)
(0,0,0)
(0,0,0)
(0,0,0)
(0,0,0)
(0,0,0)
(0,0,0)
(0,0,0)
(0,0,0)
(0,0,0)
(0,0,0)
(0,0,0)
(0,0,0)
(0,0,0)
(0,0,0)
(0,0,0)
(0,0,0)
(0,0,0)
(0,0,0)
(0,0,0)
(0,0,0)
(0,0,0)
(0,0,0)
(0,0,0)
(0,0,0)
(0,0,0)
(0,0,0)
(0,0,0)
(0,0,0)
(0,0,0)
(0,0,0)
(0,0,0)
(0,0,0)
(0,0,0)
(0,0,0)
(0,0,0)
(0,0,0)
(0,0,0)
(0,0,0)
(0,0,0)
(0,0,0)
(0,0,0)
(0,0,0)
(0,0,0)
(0,0,0)
(0,0,0)
(0,0,0)
(0,0,0)
(0,0,0)
(0,0,0)
(0,0,0)
(7.97119508160834e-13,3.30308883434784e-11,-3.74836432337555e-11)
(1.04715743633371e-12,6.92363058872049e-11,-3.55828958170138e-11)
(1.46835797960542e-12,1.14288537606543e-10,-3.1606572242992e-11)
(1.64436541526814e-12,1.74625704692393e-10,-2.50247011808525e-11)
(6.21361610579712e-13,2.59930698600131e-10,-1.62141833682602e-11)
(-2.91461178113163e-13,3.84641534486033e-10,-6.1763254823037e-12)
(-2.06559141726784e-12,5.65369298802833e-10,2.80933688767534e-12)
(-3.7809378724801e-12,8.28327913835092e-10,5.92187894795243e-12)
(-4.5342815455818e-12,1.20373480822684e-09,4.71543498413549e-12)
(-5.39445375233952e-12,1.66127597504196e-09,2.08524179594729e-12)
(0,0,0)
(0,0,0)
(0,0,0)
(0,0,0)
(0,0,0)
(0,0,0)
(1.91905870738933e-12,3.07193151050516e-11,-7.98319886336727e-11)
(2.73695164940911e-12,6.51699565528147e-11,-7.61441682084345e-11)
(3.34228324237839e-12,1.08065343895059e-10,-6.81718979497793e-11)
(3.9198478399039e-12,1.66725804862511e-10,-5.57738496153686e-11)
(3.46067165175428e-12,2.51080643599181e-10,-3.79443721233993e-11)
(1.83684466917119e-12,3.77625372732473e-10,-1.57749979558708e-11)
(-1.74832633155967e-12,5.64673630731122e-10,5.37113108179952e-12)
(-6.16382758067834e-12,8.31400636019009e-10,1.16807993247918e-11)
(-8.52573251814285e-12,1.20741777999371e-09,8.6640544538828e-12)
(-9.71028158492486e-12,1.66422261604464e-09,3.80354473899032e-12)
(0,0,0)
(0,0,0)
(0,0,0)
(0,0,0)
(0,0,0)
(0,0,0)
(1.44864965386638e-12,2.71435847974784e-11,-1.2927490876509e-10)
(2.84067213341989e-12,5.8080113716273e-11,-1.24595841725588e-10)
(4.11041086635494e-12,9.69544141949792e-11,-1.14106993535983e-10)
(5.5838734109478e-12,1.50774842681043e-10,-9.70976281987583e-11)
(7.20998063692863e-12,2.31274730626658e-10,-7.1000991560241e-11)
(7.25546457449572e-12,3.60192522100339e-10,-3.45986635386593e-11)
(4.25917940688956e-12,5.62509142016468e-10,5.66647159772403e-12)
(-5.11551663727744e-12,8.39422931137511e-10,1.21711214862568e-11)
(-9.33476822195163e-12,1.21599578918133e-09,5.95841648466705e-12)
(-1.04893555868423e-11,1.67112647523253e-09,1.15174739986823e-12)
(0,0,0)
(0,0,0)
(0,0,0)
(0,0,0)
(0,0,0)
(0,0,0)
(1.46115139977322e-12,2.24449073760538e-11,-1.90870178688511e-10)
(3.38968353765657e-12,4.82908292426143e-11,-1.85834690604654e-10)
(5.07835387574312e-12,8.1308390282087e-11,-1.74686281342557e-10)
(7.80180874664012e-12,1.26577638733933e-10,-1.5532217065548e-10)
(1.2370215111828e-11,1.97082594824068e-10,-1.24638373043486e-10)
(1.69792069221174e-11,3.22748644700011e-10,-7.77593977648691e-11)
(1.73383586036019e-11,5.55165180282618e-10,-1.47385130189319e-11)
(-2.13969056319362e-12,8.54731538971964e-10,-1.21513205830194e-11)
(-7.17984518613335e-12,1.22797392552157e-09,-1.65833978043545e-11)
(-6.91122461486692e-12,1.6776288739573e-09,-1.1696728132689e-11)
(0,0,0)
(0,0,0)
(0,0,0)
(0,0,0)
(0,0,0)
(0,0,0)
(1.98526218300614e-12,1.72336813875999e-11,-2.73651279905618e-10)
(3.73938814659678e-12,3.72781924642017e-11,-2.69078596225411e-10)
(5.52036455205323e-12,6.25379930532274e-11,-2.59204029165118e-10)
(9.70998378735344e-12,9.60820276544077e-11,-2.41670982905347e-10)
(1.74633672402095e-11,1.48801632053248e-10,-2.15048804506356e-10)
(2.51859302374917e-11,2.51292523150372e-10,-1.81376338210091e-10)
(8.9254990431929e-13,4.95980180591845e-10,-1.7619636554672e-10)
(-3.24883065639793e-12,8.71103510807242e-10,-1.15978307931918e-10)
(-2.29539939351176e-12,1.23313507834359e-09,-8.04328714346073e-11)
(-7.57028195974425e-13,1.67237031804156e-09,-4.2685992504732e-11)
(0,0,0)
(0,0,0)
(0,0,0)
(0,0,0)
(0,0,0)
(0,0,0)
(2.11049413500945e-12,1.24684090837596e-11,-3.91785803533631e-10)
(3.37244170658214e-12,2.69046203212676e-11,-3.88322921414002e-10)
(5.21929780653288e-12,4.42498229823803e-11,-3.80757568496605e-10)
(9.43009786816664e-12,6.62066872243565e-11,-3.6811888717282e-10)
(1.65623620037599e-11,1.02976068556397e-10,-3.50157859900872e-10)
(2.32282270779797e-11,1.94614919736221e-10,-3.25791783750739e-10)
(5.89414833526854e-12,4.88069462287137e-10,-3.13853646512394e-10)
(4.22881071105653e-12,8.58250280438037e-10,-2.5040517092296e-10)
(6.9102168259694e-12,1.20605982308718e-09,-1.76664053229977e-10)
(8.61109748340509e-12,1.63581082160183e-09,-9.17123856915386e-11)
(0,0,0)
(0,0,0)
(0,0,0)
(0,0,0)
(0,0,0)
(0,0,0)
(2.193292204527e-12,8.56348041885926e-12,-5.63591618990681e-10)
(3.49269430489686e-12,1.81700995888537e-11,-5.61273593664398e-10)
(5.40817279716286e-12,2.93423480980672e-11,-5.56432353591495e-10)
(7.68505130674213e-12,4.1727722018927e-11,-5.50721677187182e-10)
(6.43785640861944e-12,6.0549657854926e-11,-5.48200687092075e-10)
(-1.03282074442372e-11,1.17750439947194e-10,-5.4983964601603e-10)
(1.50793966703803e-11,4.52991345549336e-10,-4.67227084350736e-10)
(1.63382808354982e-11,8.02890394200526e-10,-4.53730246077389e-10)
(1.75358722202281e-11,1.12945534125391e-09,-3.18323704585617e-10)
(1.83105526680921e-11,1.54865065801953e-09,-1.64512380207887e-10)
(0,0,0)
(0,0,0)
(0,0,0)
(0,0,0)
(0,0,0)
(0,0,0)
(3.0972669551814e-12,5.31870943398186e-12,-8.16349986566142e-10)
(4.62421180967802e-12,1.13535888448385e-11,-8.15001306371121e-10)
(7.04620108451775e-12,2.00584238580689e-11,-8.12622709274014e-10)
(1.01184407465924e-11,3.26955821028946e-11,-8.10348167974899e-10)
(1.24441520111248e-11,6.18327190690247e-11,-8.10751368283051e-10)
(1.07981299975661e-11,1.50891492052868e-10,-8.12632956146254e-10)
(2.02827322850972e-11,4.14111041967564e-10,-7.88271280771324e-10)
(2.34895674067657e-11,6.6490523816454e-10,-6.72882388626842e-10)
(2.57949976957152e-11,9.76766624165236e-10,-4.92110922625456e-10)
(2.71600652336156e-11,1.38549202109583e-09,-2.65561731486831e-10)
(0,0,0)
(0,0,0)
(0,0,0)
(0,0,0)
(0,0,0)
(0,0,0)
(4.08265819348661e-12,3.03896503245065e-12,-1.18581892234318e-09)
(6.7483822832236e-12,6.68816250864263e-12,-1.18486743891404e-09)
(1.0040267331121e-11,1.38456096586785e-11,-1.18323443070872e-09)
(1.41326683349757e-11,2.66213599170254e-11,-1.17993933620938e-09)
(1.84850211679898e-11,5.67196127127074e-11,-1.17376343515179e-09)
(2.13613446832563e-11,1.31262716329356e-10,-1.15727340159798e-09)
(2.52203127332745e-11,2.90071171810207e-10,-1.10603139986602e-09)
(2.8415216376162e-11,4.80225400398792e-10,-9.72460613297154e-10)
(3.16085543790042e-11,7.49596255888168e-10,-7.53318588578818e-10)
(3.29791291354233e-11,1.12004765982793e-09,-4.32330548866567e-10)
(0,0,0)
(0,0,0)
(0,0,0)
(0,0,0)
(0,0,0)
(0,0,0)
(4.81009735990369e-12,1.31811928602717e-12,-1.64143522414663e-09)
(8.34830886573679e-12,3.12598479630389e-12,-1.64065871657228e-09)
(1.13642485875548e-11,7.39058697474075e-12,-1.6390515237943e-09)
(1.57518759310911e-11,1.54913014787611e-11,-1.63428139542659e-09)
(2.10036372424914e-11,3.39412044717773e-11,-1.62273799312215e-09)
(2.53571298510407e-11,7.4405510875892e-11,-1.59374611961975e-09)
(2.85157208993616e-11,1.51208188020101e-10,-1.52446871893548e-09)
(3.13890294474334e-11,2.58663131326637e-10,-1.37724634224548e-09)
(3.46243941821729e-11,4.28948331607886e-10,-1.12013830126624e-09)