/*--------------------------------*- C++ -*----------------------------------*\
| =========                 |                                                 |
| \\      /  F ield         | foam-extend: Open Source CFD                    |
|  \\    /   O peration     | Version:     4.0                                |
|   \\  /    A nd           | Web:         http://www.foam-extend.org         |
|    \\/     M anipulation  |                                                 |
\*---------------------------------------------------------------------------*/
FoamFile
{
    version 2.0;
    format ascii;
    class volVectorField;
    location "Data/1422";
    object      E;
}
// * * * * * * * * * * * * * * * * * * * * * * * * * * * * * * * * * * * * * //

dimensions      [0 1 -1 0 0 0 0];

internalField   nonuniform List<vector>
4096
(
(0,0,0)
(0,0,0)
(0,0,0)
(0,0,0)
(0,0,0)
(0,0,0)
(0,0,0)
(0,0,0)
(0,0,0)
(0,0,0)
(0,0,0)
(0,0,0)
(0,0,0)
(0,0,0)
(0,0,0)
(0,0,0)
(0,0,0)
(0,0,0)
(0,0,0)
(0,0,0)
(0,0,0)
(0,0,0)
(0,0,0)
(0,0,0)
(0,0,0)
(0,0,0)
(0,0,0)
(0,0,0)
(0,0,0)
(0,0,0)
(0,0,0)
(0,0,0)
(0,0,0)
(0,0,0)
(0,0,0)
(0,0,0)
(0,0,0)
(0,0,0)
(0,0,0)
(0,0,0)
(0,0,0)
(0,0,0)
(0,0,0)
(0,0,0)
(0,0,0)
(0,0,0)
(0,0,0)
(0,0,0)
(0,0,0)
(0,0,0)
(0,0,0)
(0,0,0)
(0,0,0)
(0,0,0)
(0,0,0)
(0,0,0)
(0,0,0)
(0,0,0)
(0,0,0)
(0,0,0)
(0,0,0)
(0,0,0)
(0,0,0)
(0,0,0)
(0,0,0)
(0,0,0)
(0,0,0)
(0,0,0)
(0,0,0)
(0,0,0)
(0,0,0)
(0,0,0)
(0,0,0)
(0,0,0)
(0,0,0)
(0,0,0)
(0,0,0)
(0,0,0)
(0,0,0)
(0,0,0)
(0,0,0)
(0,0,0)
(0,0,0)
(0,0,0)
(0,0,0)
(0,0,0)
(0,0,0)
(0,0,0)
(0,0,0)
(0,0,0)
(0,0,0)
(0,0,0)
(0,0,0)
(0,0,0)
(0,0,0)
(0,0,0)
(0,0,0)
(0,0,0)
(0,0,0)
(0,0,0)
(0,0,0)
(0,0,0)
(0,0,0)
(0,0,0)
(0,0,0)
(0,0,0)
(0,0,0)
(0,0,0)
(0,0,0)
(0,0,0)
(0,0,0)
(0,0,0)
(0,0,0)
(0,0,0)
(0,0,0)
(0,0,0)
(0,0,0)
(0,0,0)
(0,0,0)
(0,0,0)
(0,0,0)
(0,0,0)
(0,0,0)
(0,0,0)
(0,0,0)
(0,0,0)
(0,0,0)
(0,0,0)
(0,0,0)
(0,0,0)
(0,0,0)
(0,0,0)
(0,0,0)
(0,0,0)
(0,0,0)
(0,0,0)
(0,0,0)
(0,0,0)
(0,0,0)
(0,0,0)
(0,0,0)
(0,0,0)
(0,0,0)
(0,0,0)
(0,0,0)
(0,0,0)
(0,0,0)
(0,0,0)
(0,0,0)
(0,0,0)
(0,0,0)
(0,0,0)
(0,0,0)
(0,0,0)
(0,0,0)
(0,0,0)
(0,0,0)
(0,0,0)
(0,0,0)
(0,0,0)
(0,0,0)
(0,0,0)
(0,0,0)
(0,0,0)
(0,0,0)
(0,0,0)
(0,0,0)
(0,0,0)
(0,0,0)
(0,0,0)
(0,0,0)
(0,0,0)
(0,0,0)
(0,0,0)
(0,0,0)
(0,0,0)
(0,0,0)
(0,0,0)
(0,0,0)
(0,0,0)
(0,0,0)
(0,0,0)
(0,0,0)
(0,0,0)
(0,0,0)
(0,0,0)
(0,0,0)
(0,0,0)
(0,0,0)
(0,0,0)
(0,0,0)
(0,0,0)
(0,0,0)
(0,0,0)
(0,0,0)
(0,0,0)
(0,0,0)
(0,0,0)
(0,0,0)
(0,0,0)
(0,0,0)
(0,0,0)
(0,0,0)
(0,0,0)
(0,0,0)
(0,0,0)
(0,0,0)
(0,0,0)
(0,0,0)
(0,0,0)
(0,0,0)
(0,0,0)
(0,0,0)
(0,0,0)
(0,0,0)
(0,0,0)
(0,0,0)
(0,0,0)
(0,0,0)
(0,0,0)
(0,0,0)
(0,0,0)
(0,0,0)
(0,0,0)
(0,0,0)
(0,0,0)
(0,0,0)
(0,0,0)
(0,0,0)
(0,0,0)
(0,0,0)
(0,0,0)
(0,0,0)
(0,0,0)
(0,0,0)
(0,0,0)
(0,0,0)
(0,0,0)
(0,0,0)
(0,0,0)
(0,0,0)
(0,0,0)
(0,0,0)
(0,0,0)
(0,0,0)
(0,0,0)
(0,0,0)
(0,0,0)
(0,0,0)
(0,0,0)
(0,0,0)
(0,0,0)
(0,0,0)
(0,0,0)
(0,0,0)
(0,0,0)
(0,0,0)
(0,0,0)
(0,0,0)
(0,0,0)
(0,0,0)
(0,0,0)
(0,0,0)
(0,0,0)
(0,0,0)
(0,0,0)
(0,0,0)
(0,0,0)
(0,0,0)
(0,0,0)
(0,0,0)
(0,0,0)
(0,0,0)
(0,0,0)
(0,0,0)
(0,0,0)
(0,0,0)
(0,0,0)
(0,0,0)
(0,0,0)
(0,0,0)
(0,0,0)
(0,0,0)
(0,0,0)
(0,0,0)
(0,0,0)
(0,0,0)
(0,0,0)
(0,0,0)
(0,0,0)
(0,0,0)
(0,0,0)
(0,0,0)
(0,0,0)
(0,0,0)
(0,0,0)
(0,0,0)
(0,0,0)
(0,0,0)
(0,0,0)
(0,0,0)
(0,0,0)
(0,0,0)
(0,0,0)
(0,0,0)
(0,0,0)
(0,0,0)
(0,0,0)
(0,0,0)
(0,0,0)
(0,0,0)
(0,0,0)
(0,0,0)
(0,0,0)
(0,0,0)
(0,0,0)
(0,0,0)
(0,0,0)
(0,0,0)
(0,0,0)
(0,0,0)
(0,0,0)
(0,0,0)
(0,0,0)
(0,0,0)
(0,0,0)
(0,0,0)
(0,0,0)
(0,0,0)
(0,0,0)
(0,0,0)
(0,0,0)
(0,0,0)
(0,0,0)
(0,0,0)
(0,0,0)
(0,0,0)
(0,0,0)
(0,0,0)
(0,0,0)
(0,0,0)
(0,0,0)
(0,0,0)
(0,0,0)
(0,0,0)
(0,0,0)
(0,0,0)
(0,0,0)
(0,0,0)
(0,0,0)
(0,0,0)
(0,0,0)
(0,0,0)
(0,0,0)
(0,0,0)
(0,0,0)
(0,0,0)
(0,0,0)
(0,0,0)
(0,0,0)
(0,0,0)
(0,0,0)
(0,0,0)
(0,0,0)
(0,0,0)
(0,0,0)
(0,0,0)
(0,0,0)
(0,0,0)
(0,0,0)
(0,0,0)
(0,0,0)
(0,0,0)
(0,0,0)
(0,0,0)
(0,0,0)
(0,0,0)
(0,0,0)
(0,0,0)
(0,0,0)
(0,0,0)
(0,0,0)
(0,0,0)
(0,0,0)
(0,0,0)
(0,0,0)
(0,0,0)
(0,0,0)
(0,0,0)
(0,0,0)
(0,0,0)
(0,0,0)
(0,0,0)
(0,0,0)
(0,0,0)
(0,0,0)
(0,0,0)
(0,0,0)
(0,0,0)
(0,0,0)
(0,0,0)
(0,0,0)
(0,0,0)
(0,0,0)
(0,0,0)
(0,0,0)
(0,0,0)
(0,0,0)
(0,0,0)
(0,0,0)
(0,0,0)
(0,0,0)
(0,0,0)
(0,0,0)
(0,0,0)
(0,0,0)
(0,0,0)
(0,0,0)
(0,0,0)
(0,0,0)
(0,0,0)
(0,0,0)
(0,0,0)
(0,0,0)
(0,0,0)
(0,0,0)
(0,0,0)
(0,0,0)
(0,0,0)
(0,0,0)
(0,0,0)
(0,0,0)
(0,0,0)
(0,0,0)
(0,0,0)
(0,0,0)
(0,0,0)
(0,0,0)
(0,0,0)
(0,0,0)
(0,0,0)
(0,0,0)
(0,0,0)
(0,0,0)
(0,0,0)
(0,0,0)
(0,0,0)
(0,0,0)
(0,0,0)
(0,0,0)
(0,0,0)
(0,0,0)
(0,0,0)
(0,0,0)
(0,0,0)
(0,0,0)
(0,0,0)
(0,0,0)
(0,0,0)
(0,0,0)
(0,0,0)
(0,0,0)
(0,0,0)
(0,0,0)
(0,0,0)
(0,0,0)
(0,0,0)
(0,0,0)
(0,0,0)
(0,0,0)
(0,0,0)
(0,0,0)
(0,0,0)
(0,0,0)
(0,0,0)
(0,0,0)
(0,0,0)
(0,0,0)
(0,0,0)
(0,0,0)
(0,0,0)
(0,0,0)
(0,0,0)
(0,0,0)
(0,0,0)
(0,0,0)
(0,0,0)
(0,0,0)
(0,0,0)
(0,0,0)
(0,0,0)
(0,0,0)
(0,0,0)
(0,0,0)
(0,0,0)
(0,0,0)
(0,0,0)
(0,0,0)
(0,0,0)
(0,0,0)
(0,0,0)
(0,0,0)
(0,0,0)
(0,0,0)
(0,0,0)
(0,0,0)
(0,0,0)
(0,0,0)
(0,0,0)
(0,0,0)
(0,0,0)
(0,0,0)
(0,0,0)
(0,0,0)
(0,0,0)
(0,0,0)
(0,0,0)
(0,0,0)
(0,0,0)
(0,0,0)
(0,0,0)
(0,0,0)
(0,0,0)
(0,0,0)
(0,0,0)
(0,0,0)
(0,0,0)
(0,0,0)
(0,0,0)
(0,0,0)
(0,0,0)
(0,0,0)
(0,0,0)
(0,0,0)
(0,0,0)
(0,0,0)
(0,0,0)
(0,0,0)
(0,0,0)
(0,0,0)
(0,0,0)
(0,0,0)
(0,0,0)
(0,0,0)
(0,0,0)
(0,0,0)
(0,0,0)
(0,0,0)
(0,0,0)
(0,0,0)
(0,0,0)
(0,0,0)
(0,0,0)
(0,0,0)
(0,0,0)
(0,0,0)
(0,0,0)
(0,0,0)
(0,0,0)
(0,0,0)
(0,0,0)
(0,0,0)
(0,0,0)
(0,0,0)
(0,0,0)
(0,0,0)
(0,0,0)
(0,0,0)
(0,0,0)
(0,0,0)
(0,0,0)
(0,0,0)
(0,0,0)
(0,0,0)
(0,0,0)
(0,0,0)
(0,0,0)
(0,0,0)
(0,0,0)
(0,0,0)
(0,0,0)
(0,0,0)
(0,0,0)
(0,0,0)
(0,0,0)
(0,0,0)
(0,0,0)
(0,0,0)
(0,0,0)
(0,0,0)
(0,0,0)
(0,0,0)
(0,0,0)
(0,0,0)
(0,0,0)
(0,0,0)
(0,0,0)
(0,0,0)
(0,0,0)
(0,0,0)
(0,0,0)
(0,0,0)
(0,0,0)
(0,0,0)
(0,0,0)
(0,0,0)
(0,0,0)
(0,0,0)
(0,0,0)
(0,0,0)
(0,0,0)
(0,0,0)
(0,0,0)
(0,0,0)
(0,0,0)
(0,0,0)
(0,0,0)
(0,0,0)
(0,0,0)
(0,0,0)
(0,0,0)
(0,0,0)
(0,0,0)
(0,0,0)
(0,0,0)
(0,0,0)
(0,0,0)
(0,0,0)
(0,0,0)
(0,0,0)
(0,0,0)
(0,0,0)
(0,0,0)
(0,0,0)
(0,0,0)
(0,0,0)
(0,0,0)
(0,0,0)
(0,0,0)
(0,0,0)
(0,0,0)
(0,0,0)
(0,0,0)
(0,0,0)
(0,0,0)
(0,0,0)
(0,0,0)
(0,0,0)
(0,0,0)
(0,0,0)
(0,0,0)
(0,0,0)
(0,0,0)
(0,0,0)
(0,0,0)
(0,0,0)
(0,0,0)
(0,0,0)
(0,0,0)
(0,0,0)
(0,0,0)
(0,0,0)
(0,0,0)
(0,0,0)
(0,0,0)
(0,0,0)
(0,0,0)
(0,0,0)
(0,0,0)
(0,0,0)
(0,0,0)
(0,0,0)
(0,0,0)
(0,0,0)
(0,0,0)
(0,0,0)
(0,0,0)
(0,0,0)
(0,0,0)
(0,0,0)
(0,0,0)
(0,0,0)
(0,0,0)
(0,0,0)
(0,0,0)
(0,0,0)
(0,0,0)
(0,0,0)
(0,0,0)
(0,0,0)
(0,0,0)
(0,0,0)
(0,0,0)
(0,0,0)
(0,0,0)
(0,0,0)
(0,0,0)
(0,0,0)
(0,0,0)
(0,0,0)
(0,0,0)
(0,0,0)
(0,0,0)
(0,0,0)
(0,0,0)
(0,0,0)
(0,0,0)
(0,0,0)
(0,0,0)
(0,0,0)
(0,0,0)
(0,0,0)
(0,0,0)
(0,0,0)
(0,0,0)
(0,0,0)
(0,0,0)
(0,0,0)
(0,0,0)
(0,0,0)
(0,0,0)
(0,0,0)
(0,0,0)
(0,0,0)
(0,0,0)
(0,0,0)
(0,0,0)
(0,0,0)
(0,0,0)
(0,0,0)
(0,0,0)
(0,0,0)
(0,0,0)
(0,0,0)
(0,0,0)
(0,0,0)
(0,0,0)
(0,0,0)
(0,0,0)
(0,0,0)
(0,0,0)
(0,0,0)
(0,0,0)
(0,0,0)
(0,0,0)
(0,0,0)
(0,0,0)
(0,0,0)
(0,0,0)
(0,0,0)
(0,0,0)
(0,0,0)
(0,0,0)
(0,0,0)
(0,0,0)
(0,0,0)
(0,0,0)
(0,0,0)
(0,0,0)
(0,0,0)
(0,0,0)
(0,0,0)
(0,0,0)
(0,0,0)
(0,0,0)
(0,0,0)
(0,0,0)
(0,0,0)
(0,0,0)
(0,0,0)
(0,0,0)
(0,0,0)
(0,0,0)
(0,0,0)
(0,0,0)
(0,0,0)
(0,0,0)
(0,0,0)
(0,0,0)
(0,0,0)
(0,0,0)
(0,0,0)
(0,0,0)
(0,0,0)
(0,0,0)
(0,0,0)
(0,0,0)
(0,0,0)
(0,0,0)
(0,0,0)
(0,0,0)
(0,0,0)
(0,0,0)
(0,0,0)
(0,0,0)
(0,0,0)
(0,0,0)
(0,0,0)
(0,0,0)
(0,0,0)
(0,0,0)
(0,0,0)
(0,0,0)
(0,0,0)
(0,0,0)
(0,0,0)
(0,0,0)
(0,0,0)
(0,0,0)
(0,0,0)
(0,0,0)
(0,0,0)
(0,0,0)
(0,0,0)
(0,0,0)
(0,0,0)
(0,0,0)
(0,0,0)
(0,0,0)
(-185769.358690888,98723.9279257488,87045.4307651389)
(-196526.14532883,94671.4981654621,188900.077928507)
(-221361.060595122,86185.0561245089,324076.082399121)
(-268218.730281523,72875.3875459786,519419.425134667)
(-352705.428278202,54899.0552908219,817225.798122055)
(-504320.826945958,34235.9308383485,1287310.69422965)
(-778815.441478086,15458.4719875803,2050667.66372019)
(-1274926.09749663,3948.20348840511,3321645.55772841)
(-2102662.79422316,57.7680181978065,5424250.58393341)
(-2929543.05400619,-315.549723615554,8354109.18766322)
(0,0,0)
(0,0,0)
(0,0,0)
(0,0,0)
(0,0,0)
(0,0,0)
(-196544.75482501,212282.984011813,82985.6987389451)
(-207391.428757354,204639.4247258,180409.200935965)
(-232611.002628302,188474.76029064,310730.499398132)
(-280550.529930092,162728.033456267,501428.383417942)
(-367384.088844439,127177.365938835,796534.161614363)
(-522630.51519181,84902.3210945381,1268498.28654999)
(-800131.226042358,44941.5527603185,2039146.43181958)
(-1294359.46374234,19636.3669439446,3317817.73210634)
(-2115638.25173047,9614.2063804122,5423899.54547466)
(-2935610.6103339,4866.53881222096,8354328.06727266)
(0,0,0)
(0,0,0)
(0,0,0)
(0,0,0)
(0,0,0)
(0,0,0)
(-221133.481626105,358117.778570413,75298.6870675044)
(-232156.374730161,347809.120476174,164285.366047292)
(-258165.651517819,325892.767448344,285033.010407412)
(-308482.664141989,290354.356064875,465889.351940795)
(-400840.649770147,239693.871057465,754213.49659231)
(-565707.959140528,176418.017553968,1228405.75927341)
(-852745.091481046,112362.952399334,2013729.45111544)
(-1342783.96758067,68385.6970388268,3307764.0886012)
(-2146826.18884791,45106.2507569151,5419098.23307269)
(-2949750.00139733,24417.7342605052,8349297.03902169)
(0,0,0)
(0,0,0)
(0,0,0)
(0,0,0)
(0,0,0)
(0,0,0)
(-266886.70176552,559975.632029285,65028.8483066498)
(-278078.177583202,548459.216425948,142456.929940081)
(-305052.171575811,523876.410146467,249525.458817763)
(-358821.130444003,483501.904350093,415199.040976542)
(-460313.756634895,424379.907160609,690826.761508296)
(-643665.608536009,346727.083412643,1164183.30418563)
(-953503.954575425,260479.513949869,1969570.69721053)
(-1436493.65706989,190066.60665707,3284383.44466214)
(-2203982.1469726,135106.494367402,5398365.34802421)
(-2974679.9620847,72665.7102432722,8324797.33412625)
(0,0,0)
(0,0,0)
(0,0,0)
(0,0,0)
(0,0,0)
(0,0,0)
(-348779.261991954,855179.281507526,53575.6125137104)
(-359914.671272285,843976.709437987,117972.790773955)
(-387395.938212869,820061.049390775,209184.089742515)
(-444071.842217449,780710.691064473,356047.145245587)
(-555019.614230682,722419.886440656,613026.780196228)
(-761276.733785276,643257.305183292,1077773.29221084)
(-1106965.98405879,546237.164616125,1898981.62560337)
(-1579162.47377157,438872.431366686,3229338.27466536)
(-2287034.06151402,315536.750603557,5335942.07994327)
(-3010725.04944643,167231.065301411,8252101.77433155)
(0,0,0)
(0,0,0)
(0,0,0)
(0,0,0)
(0,0,0)
(0,0,0)
(-496591.71772463,1309361.77867088,42409.2205612749)
(-507165.346928581,1299413.01464326,94138.2622845772)
(-533732.49519724,1278115.70390255,169816.102970042)
(-589847.015802261,1242693.6122327,297680.19760408)
(-701980.179298071,1188420.50206696,533659.761275847)
(-912182.366627068,1108571.98939605,980527.443690163)
(-1258946.52473496,994232.588862984,1791478.54417829)
(-1709728.3019042,834116.118576367,3105963.1588728)
(-2377046.63956872,610816.79715399,5187729.75189113)
(-3056088.39648215,326073.229891788,8084975.9837828)
(0,0,0)
(0,0,0)
(0,0,0)
(0,0,0)
(0,0,0)
(0,0,0)
(-768002.538979896,2044886.55839896,32477.7592518246)
(-777340.248066933,2036306.70478732,72924.3171746966)
(-801181.06319885,2017804.13923214,134416.945043958)
(-852433.177373551,1986142.48349997,243401.251150244)
(-956584.141694171,1934739.18616904,453666.708742334)
(-1154098.70903065,1850381.46570695,865955.941462079)
(-1479559.45397769,1708492.27951385,1631255.70478892)
(-1889473.60459152,1472151.71663848,2882693.71131832)
(-2511181.50691214,1101544.21084835,4903147.80453605)
(-3130073.26818138,600194.555039122,7759099.74757015)
(0,0,0)
(0,0,0)
(0,0,0)
(0,0,0)
(0,0,0)
(0,0,0)
(-1264381.81875996,3285385.94017736,23882.4369815532)
(-1271834.93900918,3277597.77110323,54426.3096748281)
(-1291012.3450806,3260436.37542198,102806.418565601)
(-1332681.75104134,3229639.29177737,191991.361329522)
(-1418283.657358,3175857.73558936,369156.469267205)
(-1582482.32884208,3078234.26624037,723785.997575867)
(-1855046.38390072,2892577.02359205,1394747.63739837)
(-2186879.11268862,2541645.351906,2512133.11481949)
(-2754663.04151366,1966360.09542756,4401980.27175393)
(-3271536.33534512,1114576.15931827,7159135.00281985)
(0,0,0)
(0,0,0)
(0,0,0)
(0,0,0)
(0,0,0)
(0,0,0)
(-2095503.32017658,5364831.01656339,16058.2437905353)
(-2100571.94751501,5357056.10258289,37171.8598259039)
(-2113583.39758246,5339202.99288226,71988.639948059)
(-2141613.10243485,5305116.47666352,138124.557496765)
(-2198164.97475321,5240831.88885645,271315.378982899)
(-2304419.92207607,5116031.89734471,537937.669954613)
(-2482825.94336096,4869580.52464887,1043760.11225875)
(-2747870.80728114,4396322.57171439,1936953.6997315)
(-3203744.2900212,3556674.47899213,3550383.6061881)
(-3518272.46067802,2138441.48157906,6044790.74460533)
(0,0,0)
(0,0,0)
(0,0,0)
(0,0,0)
(0,0,0)
(0,0,0)
(-2926265.53781424,8282901.07270279,8195.48167483789)
(-2928801.4443779,8274861.67416353,19191.3544721005)
(-2935269.97942165,8255850.19046833,37814.1363076949)
(-2949041.31152911,8218220.31722015,73751.6072801872)
(-2976420.5564461,8144664.18842969,146339.864153057)
(-3027606.79918906,7998578.36690904,291400.193777786)
(-3116892.25894394,7707330.09744019,570542.879930397)
(-3267327.67138966,7136754.60303447,1097438.51999994)
(-3517486.05491977,6039247.7264996,2132351.32741223)
(-3542438.57402804,3906699.10550576,3906532.27751357)
(0,0,0)
(0,0,0)
(0,0,0)
(0,0,0)
(0,0,0)
(0,0,0)
(0,0,0)
(0,0,0)
(0,0,0)
(0,0,0)
(0,0,0)
(0,0,0)
(0,0,0)
(0,0,0)
(0,0,0)
(0,0,0)
(0,0,0)
(0,0,0)
(0,0,0)
(0,0,0)
(0,0,0)
(0,0,0)
(0,0,0)
(0,0,0)
(0,0,0)
(0,0,0)
(0,0,0)
(0,0,0)
(0,0,0)
(0,0,0)
(0,0,0)
(0,0,0)
(0,0,0)
(0,0,0)
(0,0,0)
(0,0,0)
(0,0,0)
(0,0,0)
(0,0,0)
(0,0,0)
(0,0,0)
(0,0,0)
(0,0,0)
(0,0,0)
(0,0,0)
(0,0,0)
(0,0,0)
(0,0,0)
(0,0,0)
(0,0,0)
(0,0,0)
(0,0,0)
(0,0,0)
(0,0,0)
(0,0,0)
(0,0,0)
(0,0,0)
(0,0,0)
(0,0,0)
(0,0,0)
(0,0,0)
(0,0,0)
(0,0,0)
(0,0,0)
(0,0,0)
(0,0,0)
(0,0,0)
(0,0,0)
(0,0,0)
(0,0,0)
(0,0,0)
(0,0,0)
(0,0,0)
(0,0,0)
(0,0,0)
(0,0,0)
(0,0,0)
(0,0,0)
(0,0,0)
(0,0,0)
(0,0,0)
(0,0,0)
(0,0,0)
(0,0,0)
(0,0,0)
(0,0,0)
(0,0,0)
(0,0,0)
(0,0,0)
(0,0,0)
(0,0,0)
(0,0,0)
(0,0,0)
(0,0,0)
(0,0,0)
(0,0,0)
(0,0,0)
(0,0,0)
(0,0,0)
(0,0,0)
(0,0,0)
(0,0,0)
(27473680.2492624,88028.7943531014,76371.9272604318)
(27455692.9624643,83846.0153197827,164157.133714317)
(27414413.9663841,74953.7939345799,277278.642367166)
(27337384.5417864,60554.8073581186,434970.892507859)
(27200253.8018036,40253.8187800233,665608.173212811)
(26956421.4501869,15949.3521964614,1012766.87345011)
(26509154.4434756,-5872.23310024748,1554519.55116336)
(25625193.8389925,-15510.61550901,2493760.55974993)
(23630775.6769022,-12911.2472274586,4597083.66541877)
(18214488.4038757,-6346.44510314434,11283248.9822068)
(0,0,0)
(0,0,0)
(0,0,0)
(0,0,0)
(0,0,0)
(0,0,0)
(27455310.3612127,187820.807039158,72203.2008430548)
(27437305.0284421,179936.21129603,155266.877234158)
(27395676.3681336,162959.270928288,262824.359045303)
(27317213.7644397,134836.864262676,414628.337337692)
(27176329.2015075,93751.720384836,641267.474947758)
(26925669.122382,41855.951145746,990911.567991473)
(26471573.6022671,-7676.07188735448,1544860.90803596)
(25591287.3641605,-28828.5442632774,2496382.33845421)
(23609682.5187494,-21599.9678141416,4603600.61812766)
(18205235.4848304,-9238.55694678587,11289496.9643737)
(0,0,0)
(0,0,0)
(0,0,0)
(0,0,0)
(0,0,0)
(0,0,0)
(27413761.2612234,312436.337099718,64340.0566567119)
(27395714.3549023,301910.358869752,138345.509017339)
(27353294.3157578,278977.649199316,234717.493037497)
(27271413.3276997,239976.915192907,373531.779832378)
(27120802.5320555,180162.31671098,589328.331247231)
(26849616.5221653,98420.4252656846,941289.705388249)
(26369527.8843937,11574.8177942025,1523616.16939877)
(25497639.658697,-25371.8419270713,2503586.17035175)
(23555219.9693023,-12101.2827236958,4615891.65667776)
(18182628.1171643,-505.491927050701,11298630.8026632)
(0,0,0)
(0,0,0)
(0,0,0)
(0,0,0)
(0,0,0)
(0,0,0)
(27337493.5585736,478035.594261704,53870.8120656407)
(27319505.6534376,466554.424327934,115493.245153446)
(27276114.5079138,441436.825829864,195717.718600098)
(27188893.736931,398155.325107671,313674.770877138)
(27020338.2867869,329577.298619104,507458.075113926)
(26702709.8766309,229051.890575731,854301.454203706)
(26142740.8215084,106965.891141572,1486515.9343393)
(25284440.9706859,47303.5052709865,2516756.28895224)
(23445162.7537526,51968.3405159453,4627392.09455412)
(18140363.4167528,36627.1682258366,11299066.3851305)
(0,0,0)
(0,0,0)
(0,0,0)
(0,0,0)
(0,0,0)
(0,0,0)
(27203388.4068361,707280.153616359,42438.1013840235)
(27185836.2409762,696643.897339133,90448.0456910366)
(27142255.2004608,673624.897401634,152459.165012469)
(27050482.0354372,634831.890302932,245079.051729315)
(26861363.2877872,575363.805834913,406759.972062454)
(26474066.9331078,492285.590379503,732032.9349324)
(25734989.0398577,394209.335510618,1426684.79621365)
(24889120.8095758,308242.365744804,2521312.98195926)
(23272621.7633771,225470.965561649,4612004.86158907)
(18077455.5714753,121869.641649076,11262432.0968109)
(0,0,0)
(0,0,0)
(0,0,0)
(0,0,0)
(0,0,0)
(0,0,0)
(26964800.3926345,1037925.89460161,31812.4782224316)
(26948450.0104671,1029187.9868408,67503.360891835)
(26906965.6274367,1010605.77840195,113674.686824375)
(26816884.4024656,980049.595012818,185575.893413446)
(26625559.1025696,933762.235869461,323488.511078033)
(26227126.2147507,866590.184963285,633725.664683211)
(25478670.0846839,773562.763749641,1340605.95659207)
(24670148.2517274,654301.259285702,2438520.83898623)
(23125700.704442,476615.569705087,4508479.22039881)
(18005371.1674079,252059.911978859,11140679.7157457)
(0,0,0)
(0,0,0)
(0,0,0)
(0,0,0)
(0,0,0)
(0,0,0)
(26522165.4508555,1548519.5728117,23088.6615212943)
(26507958.01722,1541806.07325968,49022.6393822645)
(26471219.0547179,1527926.5709621,83152.0584721882)
(26389477.5809256,1505852.92520693,139288.299545672)
(26211102.9498454,1473013.48758338,256200.285858937)
(25830104.3895848,1421930.77627825,540506.925495228)
(25104166.9693039,1332902.02781013,1221291.56771993)
(24374490.6931001,1174599.00635995,2260879.85252079)
(22908166.6057245,857949.843447699,4284047.79570826)
(17882420.9628793,458676.341053318,10888787.46514)
(0,0,0)
(0,0,0)
(0,0,0)
(0,0,0)
(0,0,0)
(0,0,0)
(25637433.4203422,2454197.12712853,16357.5361478521)
(25626239.6605219,2448791.71517617,35147.6242670815)
(25597021.659508,2437787.5862769,61102.9339304387)
(25531030.7184414,2420661.79326192,106431.925959508)
(25384066.0452844,2395932.6873798,205013.353087413)
(25060865.4661071,2356186.305787,451260.358196319)
(24425449.5932988,2264628.76505167,1062887.97332198)
(23949689.3998063,1980485.06804702,1944283.72870674)
(22469376.4754446,1517144.35516212,3884900.02960076)
(17597824.5691908,867756.517123311,10430309.2785615)
(0,0,0)
(0,0,0)
(0,0,0)
(0,0,0)
(0,0,0)
(0,0,0)
(23637834.9945255,4533812.77762544,10896.3643677115)
(23630327.4370527,4528591.66431849,24047.360224466)
(23610842.1120259,4517324.96882365,43934.7976360957)
(23567689.2221044,4497529.75120491,81614.8447205076)
(23475705.5309837,4462422.09805141,165105.257878751)
(23288539.1671809,4392635.20928914,359547.594686399)
(22951231.0920984,4235276.2779154,778693.375930119)
(22477456.9032893,3876674.95505668,1481026.10791679)
(21139818.9427008,3242789.05112154,3235668.50880212)
(16732019.2581088,2114207.22225327,9562776.41445205)
(0,0,0)
(0,0,0)
(0,0,0)
(0,0,0)
(0,0,0)
(0,0,0)
(18217020.0858963,11208778.5854233,5598.89805837015)
(18213294.8978201,11203281.0420563,12663.5076892318)
(18203739.2620513,11190788.4638663,24041.1007403912)
(18183015.2717542,11166967.0849461,46397.5132827448)
(18140254.3365394,11120805.7169814,95189.3309340527)
(18056129.7249671,11025811.1596746,202127.185959198)
(17900448.1940874,10823814.644276,420098.696133946)
(17602307.1343714,10403746.927292,847242.247704319)
(16732666.4721067,9556453.37244298,2107275.72892312)
(13605165.6275626,7448961.41616926,7448767.66298313)
(0,0,0)
(0,0,0)
(0,0,0)
(0,0,0)
(0,0,0)
(0,0,0)
(0,0,0)
(0,0,0)
(0,0,0)
(0,0,0)
(0,0,0)
(0,0,0)
(0,0,0)
(0,0,0)
(0,0,0)
(0,0,0)
(0,0,0)
(0,0,0)
(0,0,0)
(0,0,0)
(0,0,0)
(0,0,0)
(0,0,0)
(0,0,0)
(0,0,0)
(0,0,0)
(0,0,0)
(0,0,0)
(0,0,0)
(0,0,0)
(0,0,0)
(0,0,0)
(0,0,0)
(0,0,0)
(0,0,0)
(0,0,0)
(0,0,0)
(0,0,0)
(0,0,0)
(0,0,0)
(0,0,0)
(0,0,0)
(0,0,0)
(0,0,0)
(0,0,0)
(0,0,0)
(0,0,0)
(0,0,0)
(0,0,0)
(0,0,0)
(0,0,0)
(0,0,0)
(0,0,0)
(0,0,0)
(0,0,0)
(0,0,0)
(0,0,0)
(0,0,0)
(0,0,0)
(0,0,0)
(0,0,0)
(0,0,0)
(0,0,0)
(0,0,0)
(0,0,0)
(0,0,0)
(0,0,0)
(0,0,0)
(0,0,0)
(0,0,0)
(0,0,0)
(0,0,0)
(0,0,0)
(0,0,0)
(0,0,0)
(0,0,0)
(0,0,0)
(0,0,0)
(0,0,0)
(0,0,0)
(0,0,0)
(0,0,0)
(0,0,0)
(0,0,0)
(0,0,0)
(0,0,0)
(0,0,0)
(0,0,0)
(0,0,0)
(0,0,0)
(0,0,0)
(0,0,0)
(0,0,0)
(0,0,0)
(0,0,0)
(0,0,0)
(0,0,0)
(0,0,0)
(0,0,0)
(0,0,0)
(0,0,0)
(0,0,0)
(-478371.831869575,69769.5696093261,58432.1819558291)
(-498215.115395814,65533.9380023399,122955.992246804)
(-543038.189750609,56263.9621021324,200293.856712727)
(-624497.651902941,40407.774774703,297917.946060632)
(-763828.16545447,16352.8634120528,421796.720339874)
(-996270.132653043,-14809.7047276082,565447.6783408)
(-1376320.07399144,-43486.6115608854,670558.477802009)
(-1977820.69195435,-49448.551879595,499171.231061773)
(-2840218.6370094,-34007.1941482656,-819677.590445178)
(-3481447.31293397,-15572.441977253,-6932019.76122497)
(0,0,0)
(0,0,0)
(0,0,0)
(0,0,0)
(0,0,0)
(0,0,0)
(-499408.993311596,146409.374951326,54229.2196154752)
(-518911.553729762,138426.632493848,113702.777729024)
(-563244.850904681,120638.08586773,184399.543434951)
(-644743.264783658,89091.0836495962,273822.934216676)
(-786177.993906577,38234.4507625178,390598.212713481)
(-1024888.05551399,-34215.9514099111,536711.307724954)
(-1413829.95687496,-109759.54116309,664537.4669024)
(-2009518.33261579,-122547.994163385,514592.27639565)
(-2856120.63064469,-76123.3788337971,-801338.719091354)
(-3487089.54959988,-31855.5176371465,-6916580.93856798)
(0,0,0)
(0,0,0)
(0,0,0)
(0,0,0)
(0,0,0)
(0,0,0)
(-546268.061790299,236271.163239024,46317.2051592211)
(-565100.893697382,225726.477211957,95982.2794739832)
(-608584.840228541,201769.769461629,152879.422299615)
(-690832.783796267,157405.158323424,222961.129554951)
(-839558.800558909,79603.1327562376,318103.450608988)
(-1102831.88678225,-48596.6825682691,461082.261148103)
(-1539356.47604995,-215302.144303159,651658.895165007)
(-2119392.14948385,-238688.44207485,560980.821690465)
(-2904341.7902579,-122279.719940174,-757151.407209606)
(-3502568.74403541,-42833.6969511457,-6884826.69626264)
(0,0,0)
(0,0,0)
(0,0,0)
(0,0,0)
(0,0,0)
(0,0,0)
(-629833.742225677,343869.99328522,35878.141186335)
(-647626.290929152,332772.332016064,72113.9011821928)
(-689829.623757936,307457.322907658,108520.14984109)
(-773750.896372708,259614.449100207,145105.162801202)
(-939031.574589543,170468.430263377,189759.397103797)
(-1274476.36213096,280.247756809456,294218.375973851)
(-1929423.88893579,-300889.708438162,628120.320986267)
(-2479085.83842285,-348162.208572149,677270.56702553)
(-3025164.22688569,-120690.96702304,-677841.534820043)
(-3535738.7472473,-26311.4487391541,-6842111.94859871)
(0,0,0)
(0,0,0)
(0,0,0)
(0,0,0)
(0,0,0)
(0,0,0)
(-770031.871137253,468556.778439045,24883.1632527909)
(-786331.242276728,459105.68051914,46866.9684359406)
(-826166.906468934,438198.675108946,60697.3935975132)
(-910092.631398944,401100.925140658,55935.2548264554)
(-1094956.40103502,339462.076727289,19410.9676179314)
(-1568234.76266846,245268.076576553,-7125.49499234306)
(-3115390.43329023,137800.484223139,580713.455927487)
(-3695952.74800835,89143.3070849253,904631.168287775)
(-3262212.98781599,78461.2022835656,-583536.579392396)
(-3590151.56939852,49747.3252085305,-6815838.54203294)
(0,0,0)
(0,0,0)
(0,0,0)
(0,0,0)
(0,0,0)
(0,0,0)
(-1001127.17019284,595196.236174527,15437.7755250507)
(-1015393.80845569,588571.739203955,25965.2061962665)
(-1051059.72748643,574759.012247907,23579.8944136404)
(-1129102.34315416,552550.863330252,-5733.62772300742)
(-1308871.16440486,519224.32766265,-74915.9412507117)
(-1781063.3702781,469448.582639044,-114757.191851123)
(-3253061.73305188,398918.659704216,532006.120836812)
(-3784972.14588186,358487.185901434,893932.310062893)
(-3372507.39239065,258945.210944662,-612193.931332316)
(-3644427.29749201,129017.627395529,-6865516.09818606)
(0,0,0)
(0,0,0)
(0,0,0)
(0,0,0)
(0,0,0)
(0,0,0)
(-1379003.79591146,663717.007932214,8798.14544248063)
(-1390727.9804295,660026.798312866,12178.7544162935)
(-1420701.00541285,653647.778670975,1359.71855713714)
(-1488704.62465572,647316.795256872,-39074.3373549134)
(-1653759.84849774,645906.837324218,-124744.378240088)
(-2116233.00198836,652582.321998367,-185391.055592953)
(-3651803.54831642,654052.397642585,491595.394522224)
(-4143323.30839012,749598.587997028,794447.664350129)
(-3539250.33745031,418988.529977214,-742029.041074339)
(-3733974.28228191,173971.678589313,-6994438.1766738)
(0,0,0)
(0,0,0)
(0,0,0)
(0,0,0)
(0,0,0)
(0,0,0)
(-1982192.4220984,454424.116689708,5068.40411627018)
(-1991014.17729046,452710.207731784,5788.50294292266)
(-2013863.73961344,451447.926616411,-4976.57544782438)
(-2067164.31474263,457204.203982205,-40519.2805559203)
(-2203756.99704558,487478.382282948,-118118.112751415)
(-2628144.47259103,583707.863931058,-184084.045552791)
(-4305785.01849157,790198.90747259,587153.726840862)
(-3509330.42302345,507999.41900457,463922.389096291)
(-3671964.49422316,187357.488868545,-986955.929693964)
(-3872553.26300277,1802.51390643463,-7168259.26238417)
(0,0,0)
(0,0,0)
(0,0,0)
(0,0,0)
(0,0,0)
(0,0,0)
(-2847406.35532979,-887453.351258754,3268.48823704037)
(-2853106.08807071,-888849.494030863,4411.38555629934)
(-2867717.56723827,-890118.406515265,687.068385392957)
(-2900480.87202142,-887425.780105981,-10363.1829672798)
(-2975726.55315735,-873317.568805714,-21985.4773043269)
(-3155728.34401298,-840146.627280773,22286.1955346067)
(-3549154.73651836,-815909.204813137,304929.806870289)
(-3677940.2647769,-998861.395710366,143337.46008463)
(-4016244.55562911,-1164699.01313363,-1172392.86915005)
(-4079713.80296265,-1012832.49493691,-7169875.12880197)
(0,0,0)
(0,0,0)
(0,0,0)
(0,0,0)
(0,0,0)
(0,0,0)
(-3486987.74568787,-7009093.94056846,1798.09132709541)
(-3489764.35339239,-7010851.64361496,3009.16255690986)
(-3496759.22053439,-7013705.8671914,3244.7762520057)
(-3511902.25721176,-7016744.25211274,3630.44765789574)
(-3544232.88845405,-7020174.83408615,11124.6083650302)
(-3612041.61011311,-7031171.90717735,46470.8937750835)
(-3737288.56704511,-7077506.51892483,121954.639452602)
(-3876607.77070967,-7199396.80782391,-22445.3729195495)
(-4080935.79231386,-7176989.3674992,-1020403.0837001)
(-3938253.00940124,-6156761.77640815,-6156905.49483167)
(0,0,0)
(0,0,0)
(0,0,0)
(0,0,0)
(0,0,0)
(0,0,0)
(0,0,0)
(0,0,0)
(0,0,0)
(0,0,0)
(0,0,0)
(0,0,0)
(0,0,0)
(0,0,0)
(0,0,0)
(0,0,0)
(0,0,0)
(0,0,0)
(0,0,0)
(0,0,0)
(0,0,0)
(0,0,0)
(0,0,0)
(0,0,0)
(0,0,0)
(0,0,0)
(0,0,0)
(0,0,0)
(0,0,0)
(0,0,0)
(0,0,0)
(0,0,0)
(0,0,0)
(0,0,0)
(0,0,0)
(0,0,0)
(0,0,0)
(0,0,0)
(0,0,0)
(0,0,0)
(0,0,0)
(0,0,0)
(0,0,0)
(0,0,0)
(0,0,0)
(0,0,0)
(0,0,0)
(0,0,0)
(0,0,0)
(0,0,0)
(0,0,0)
(0,0,0)
(0,0,0)
(0,0,0)
(0,0,0)
(0,0,0)
(0,0,0)
(0,0,0)
(0,0,0)
(0,0,0)
(0,0,0)
(0,0,0)
(0,0,0)
(0,0,0)
(0,0,0)
(0,0,0)
(0,0,0)
(0,0,0)
(0,0,0)
(0,0,0)
(0,0,0)
(0,0,0)
(0,0,0)
(0,0,0)
(0,0,0)
(0,0,0)
(0,0,0)
(0,0,0)
(0,0,0)
(0,0,0)
(0,0,0)
(0,0,0)
(0,0,0)
(0,0,0)
(0,0,0)
(0,0,0)
(0,0,0)
(0,0,0)
(0,0,0)
(0,0,0)
(0,0,0)
(0,0,0)
(0,0,0)
(0,0,0)
(0,0,0)
(0,0,0)
(0,0,0)
(0,0,0)
(0,0,0)
(0,0,0)
(0,0,0)
(0,0,0)
(-565996.751530597,48902.8026041709,38722.1170568523)
(-582812.462429231,45005.7276709495,78313.7364193186)
(-619878.430287132,36184.3430905355,118969.633865307)
(-684465.072793971,20230.1929986824,158706.861757653)
(-788599.646208922,-5962.92129849467,189441.263810602)
(-948736.191235537,-43446.7345564325,185354.05694953)
(-1178880.44619498,-81024.6633164797,68939.0924695499)
(-1464214.49759233,-81183.0630037672,-363484.0388887)
(-1692372.33375865,-49927.8902169737,-1461402.45192246)
(-1470521.57150977,-21188.6933499223,-3451139.49999674)
(0,0,0)
(0,0,0)
(0,0,0)
(0,0,0)
(0,0,0)
(0,0,0)
(-585118.929933474,99786.8226060337,34825.9166200145)
(-601001.513832879,92439.4185289021,69482.1858651755)
(-635981.783452681,75434.7622780214,102968.699225691)
(-697094.560344472,43089.0002586429,132461.187526543)
(-796466.086512812,-15098.5740180722,151884.932852352)
(-951942.764058198,-112164.674753424,147657.581593563)
(-1180577.6871342,-235313.537070192,68694.1856065235)
(-1457261.0532535,-232480.258925532,-332265.897833987)
(-1681148.48894426,-124398.814005103,-1432767.1157463)
(-1463629.97439702,-47340.3015636814,-3430075.08273542)
(0,0,0)
(0,0,0)
(0,0,0)
(0,0,0)
(0,0,0)
(0,0,0)
(-626871.429488638,152838.303860191,27551.8864441865)
(-640931.093748109,143269.050149396,52552.4548744141)
(-671789.773220275,120530.037371991,70662.1127721763)
(-725819.875398118,74477.5427925729,74260.6618401008)
(-815266.636544449,-19880.0285250132,54749.9523325794)
(-964350.703758164,-220293.446443743,24397.5409988056)
(-1216264.0052066,-605447.868491896,71439.4015771568)
(-1457730.54368117,-598476.009738527,-224226.453412528)
(-1653958.52970361,-243200.52305028,-1355808.00492165)
(-1446818.44893312,-76049.7151050161,-3382848.88648261)
(0,0,0)
(0,0,0)
(0,0,0)
(0,0,0)
(0,0,0)
(0,0,0)
(-698726.864307111,203635.259530098,18096.166411533)
(-710179.811638723,193998.662531421,29920.0747390832)
(-735031.311144926,171031.54105204,24620.2584460274)
(-777627.866810374,123169.642170695,-20194.8704944286)
(-847735.992142534,14451.6468526616,-145822.128319107)
(-986094.628007915,-293586.553824932,-360910.755060965)
(-1487080.9522794,-1486963.29972355,78261.7395142937)
(-1565105.79727737,-1565137.83822446,130943.526854754)
(-1590784.99341686,-357832.192373949,-1188804.03729042)
(-1412907.69940797,-80752.5661225315,-3306932.23411224)
(0,0,0)
(0,0,0)
(0,0,0)
(0,0,0)
(0,0,0)
(0,0,0)
(-812294.423945493,237338.289873975,8559.52246436295)
(-820722.665856307,229930.213101244,7019.39547411841)
(-838081.014308582,213186.342911616,-23221.2985458093)
(-863152.102527398,181955.465681769,-128947.65092843)
(-880932.796924744,125437.932590531,-453957.540776574)
(-793735.716205461,32338.3606740759,-1554381.50173858)
(-6.63563584611955e-05,-1.65482966060431e-05,4.20221742097242e-05)