/*--------------------------------*- C++ -*----------------------------------*\
| =========                 |                                                 |
| \\      /  F ield         | foam-extend: Open Source CFD                    |
|  \\    /   O peration     | Version:     4.0                                |
|   \\  /    A nd           | Web:         http://www.foam-extend.org         |
|    \\/     M anipulation  |                                                 |
\*---------------------------------------------------------------------------*/
FoamFile
{
    version 2.0;
    format ascii;
    class volVectorField;
    location "3509";
    object      E;
}
// * * * * * * * * * * * * * * * * * * * * * * * * * * * * * * * * * * * * * //

dimensions      [0 1 -1 0 0 0 0];

internalField   nonuniform List<vector>
4096
(
(0,0,0)
(0,0,0)
(0,0,0)
(0,0,0)
(0,0,0)
(0,0,0)
(0,0,0)
(0,0,0)
(0,0,0)
(0,0,0)
(0,0,0)
(0,0,0)
(0,0,0)
(0,0,0)
(0,0,0)
(0,0,0)
(0,0,0)
(0,0,0)
(0,0,0)
(0,0,0)
(0,0,0)
(0,0,0)
(0,0,0)
(0,0,0)
(0,0,0)
(0,0,0)
(0,0,0)
(0,0,0)
(0,0,0)
(0,0,0)
(0,0,0)
(0,0,0)
(0,0,0)
(0,0,0)
(0,0,0)
(0,0,0)
(0,0,0)
(0,0,0)
(0,0,0)
(0,0,0)
(0,0,0)
(0,0,0)
(0,0,0)
(0,0,0)
(0,0,0)
(0,0,0)
(0,0,0)
(0,0,0)
(0,0,0)
(0,0,0)
(0,0,0)
(0,0,0)
(0,0,0)
(0,0,0)
(0,0,0)
(0,0,0)
(0,0,0)
(0,0,0)
(0,0,0)
(0,0,0)
(0,0,0)
(0,0,0)
(0,0,0)
(0,0,0)
(0,0,0)
(0,0,0)
(0,0,0)
(0,0,0)
(0,0,0)
(0,0,0)
(0,0,0)
(0,0,0)
(0,0,0)
(0,0,0)
(0,0,0)
(0,0,0)
(0,0,0)
(0,0,0)
(0,0,0)
(0,0,0)
(0,0,0)
(0,0,0)
(0,0,0)
(0,0,0)
(0,0,0)
(0,0,0)
(0,0,0)
(0,0,0)
(0,0,0)
(0,0,0)
(0,0,0)
(0,0,0)
(0,0,0)
(0,0,0)
(0,0,0)
(0,0,0)
(0,0,0)
(0,0,0)
(0,0,0)
(0,0,0)
(0,0,0)
(0,0,0)
(0,0,0)
(0,0,0)
(0,0,0)
(0,0,0)
(0,0,0)
(0,0,0)
(0,0,0)
(0,0,0)
(0,0,0)
(0,0,0)
(0,0,0)
(0,0,0)
(0,0,0)
(0,0,0)
(0,0,0)
(0,0,0)
(0,0,0)
(0,0,0)
(0,0,0)
(0,0,0)
(0,0,0)
(0,0,0)
(0,0,0)
(0,0,0)
(0,0,0)
(0,0,0)
(0,0,0)
(0,0,0)
(0,0,0)
(0,0,0)
(0,0,0)
(0,0,0)
(0,0,0)
(0,0,0)
(0,0,0)
(0,0,0)
(0,0,0)
(0,0,0)
(0,0,0)
(0,0,0)
(0,0,0)
(0,0,0)
(0,0,0)
(0,0,0)
(0,0,0)
(0,0,0)
(0,0,0)
(0,0,0)
(0,0,0)
(0,0,0)
(0,0,0)
(0,0,0)
(0,0,0)
(0,0,0)
(0,0,0)
(0,0,0)
(0,0,0)
(0,0,0)
(0,0,0)
(0,0,0)
(0,0,0)
(0,0,0)
(0,0,0)
(0,0,0)
(0,0,0)
(0,0,0)
(0,0,0)
(0,0,0)
(0,0,0)
(0,0,0)
(0,0,0)
(0,0,0)
(0,0,0)
(0,0,0)
(0,0,0)
(0,0,0)
(0,0,0)
(0,0,0)
(0,0,0)
(0,0,0)
(0,0,0)
(0,0,0)
(0,0,0)
(0,0,0)
(0,0,0)
(0,0,0)
(0,0,0)
(0,0,0)
(0,0,0)
(0,0,0)
(0,0,0)
(0,0,0)
(0,0,0)
(0,0,0)
(0,0,0)
(0,0,0)
(0,0,0)
(0,0,0)
(0,0,0)
(0,0,0)
(0,0,0)
(0,0,0)
(0,0,0)
(0,0,0)
(0,0,0)
(0,0,0)
(0,0,0)
(0,0,0)
(0,0,0)
(0,0,0)
(0,0,0)
(0,0,0)
(0,0,0)
(0,0,0)
(0,0,0)
(0,0,0)
(0,0,0)
(0,0,0)
(0,0,0)
(0,0,0)
(0,0,0)
(0,0,0)
(0,0,0)
(0,0,0)
(0,0,0)
(0,0,0)
(0,0,0)
(0,0,0)
(0,0,0)
(0,0,0)
(0,0,0)
(0,0,0)
(0,0,0)
(0,0,0)
(0,0,0)
(0,0,0)
(0,0,0)
(0,0,0)
(0,0,0)
(0,0,0)
(0,0,0)
(0,0,0)
(0,0,0)
(0,0,0)
(0,0,0)
(0,0,0)
(0,0,0)
(0,0,0)
(0,0,0)
(0,0,0)
(0,0,0)
(0,0,0)
(0,0,0)
(0,0,0)
(0,0,0)
(0,0,0)
(0,0,0)
(0,0,0)
(0,0,0)
(0,0,0)
(0,0,0)
(0,0,0)
(0,0,0)
(0,0,0)
(0,0,0)
(0,0,0)
(0,0,0)
(0,0,0)
(0,0,0)
(0,0,0)
(0,0,0)
(0,0,0)
(0,0,0)
(0,0,0)
(0,0,0)
(0,0,0)
(0,0,0)
(0,0,0)
(0,0,0)
(0,0,0)
(0,0,0)
(0,0,0)
(0,0,0)
(0,0,0)
(0,0,0)
(0,0,0)
(0,0,0)
(0,0,0)
(0,0,0)
(0,0,0)
(0,0,0)
(0,0,0)
(0,0,0)
(0,0,0)
(0,0,0)
(0,0,0)
(0,0,0)
(0,0,0)
(0,0,0)
(0,0,0)
(0,0,0)
(0,0,0)
(0,0,0)
(0,0,0)
(0,0,0)
(0,0,0)
(0,0,0)
(0,0,0)
(0,0,0)
(0,0,0)
(0,0,0)
(0,0,0)
(0,0,0)
(0,0,0)
(0,0,0)
(0,0,0)
(0,0,0)
(0,0,0)
(0,0,0)
(0,0,0)
(0,0,0)
(0,0,0)
(0,0,0)
(0,0,0)
(0,0,0)
(0,0,0)
(0,0,0)
(0,0,0)
(0,0,0)
(0,0,0)
(0,0,0)
(0,0,0)
(0,0,0)
(0,0,0)
(0,0,0)
(0,0,0)
(0,0,0)
(0,0,0)
(0,0,0)
(0,0,0)
(0,0,0)
(0,0,0)
(0,0,0)
(0,0,0)
(0,0,0)
(0,0,0)
(0,0,0)
(0,0,0)
(0,0,0)
(0,0,0)
(0,0,0)
(0,0,0)
(0,0,0)
(0,0,0)
(0,0,0)
(0,0,0)
(0,0,0)
(0,0,0)
(0,0,0)
(0,0,0)
(0,0,0)
(0,0,0)
(0,0,0)
(0,0,0)
(0,0,0)
(0,0,0)
(0,0,0)
(0,0,0)
(0,0,0)
(0,0,0)
(0,0,0)
(0,0,0)
(0,0,0)
(0,0,0)
(0,0,0)
(0,0,0)
(0,0,0)
(0,0,0)
(0,0,0)
(0,0,0)
(0,0,0)
(0,0,0)
(0,0,0)
(0,0,0)
(0,0,0)
(0,0,0)
(0,0,0)
(0,0,0)
(0,0,0)
(0,0,0)
(0,0,0)
(0,0,0)
(0,0,0)
(0,0,0)
(0,0,0)
(0,0,0)
(0,0,0)
(0,0,0)
(0,0,0)
(0,0,0)
(0,0,0)
(0,0,0)
(0,0,0)
(0,0,0)
(0,0,0)
(0,0,0)
(0,0,0)
(0,0,0)
(0,0,0)
(0,0,0)
(0,0,0)
(0,0,0)
(0,0,0)
(0,0,0)
(0,0,0)
(0,0,0)
(0,0,0)
(0,0,0)
(0,0,0)
(0,0,0)
(0,0,0)
(0,0,0)
(0,0,0)
(0,0,0)
(0,0,0)
(0,0,0)
(0,0,0)
(0,0,0)
(0,0,0)
(0,0,0)
(0,0,0)
(0,0,0)
(0,0,0)
(0,0,0)
(0,0,0)
(0,0,0)
(0,0,0)
(0,0,0)
(0,0,0)
(0,0,0)
(0,0,0)
(0,0,0)
(0,0,0)
(0,0,0)
(0,0,0)
(0,0,0)
(0,0,0)
(0,0,0)
(0,0,0)
(0,0,0)
(0,0,0)
(0,0,0)
(0,0,0)
(0,0,0)
(0,0,0)
(0,0,0)
(0,0,0)
(0,0,0)
(0,0,0)
(0,0,0)
(0,0,0)
(0,0,0)
(0,0,0)
(0,0,0)
(0,0,0)
(0,0,0)
(0,0,0)
(0,0,0)
(0,0,0)
(0,0,0)
(0,0,0)
(0,0,0)
(0,0,0)
(0,0,0)
(0,0,0)
(0,0,0)
(0,0,0)
(0,0,0)
(0,0,0)
(0,0,0)
(0,0,0)
(0,0,0)
(0,0,0)
(0,0,0)
(0,0,0)
(0,0,0)
(0,0,0)
(0,0,0)
(0,0,0)
(0,0,0)
(0,0,0)
(0,0,0)
(0,0,0)
(0,0,0)
(0,0,0)
(0,0,0)
(0,0,0)
(0,0,0)
(0,0,0)
(0,0,0)
(0,0,0)
(0,0,0)
(0,0,0)
(0,0,0)
(0,0,0)
(0,0,0)
(0,0,0)
(0,0,0)
(0,0,0)
(0,0,0)
(0,0,0)
(0,0,0)
(0,0,0)
(0,0,0)
(0,0,0)
(0,0,0)
(0,0,0)
(0,0,0)
(0,0,0)
(0,0,0)
(0,0,0)
(0,0,0)
(0,0,0)
(0,0,0)
(0,0,0)
(0,0,0)
(0,0,0)
(0,0,0)
(0,0,0)
(0,0,0)
(0,0,0)
(0,0,0)
(0,0,0)
(0,0,0)
(0,0,0)
(0,0,0)
(0,0,0)
(0,0,0)
(0,0,0)
(0,0,0)
(0,0,0)
(0,0,0)
(0,0,0)
(0,0,0)
(0,0,0)
(0,0,0)
(0,0,0)
(0,0,0)
(0,0,0)
(0,0,0)
(0,0,0)
(0,0,0)
(0,0,0)
(0,0,0)
(0,0,0)
(0,0,0)
(0,0,0)
(0,0,0)
(0,0,0)
(0,0,0)
(0,0,0)
(0,0,0)
(0,0,0)
(0,0,0)
(0,0,0)
(0,0,0)
(0,0,0)
(0,0,0)
(0,0,0)
(0,0,0)
(0,0,0)
(0,0,0)
(0,0,0)
(0,0,0)
(0,0,0)
(0,0,0)
(0,0,0)
(0,0,0)
(0,0,0)
(0,0,0)
(0,0,0)
(0,0,0)
(0,0,0)
(0,0,0)
(0,0,0)
(0,0,0)
(0,0,0)
(0,0,0)
(0,0,0)
(0,0,0)
(0,0,0)
(0,0,0)
(0,0,0)
(0,0,0)
(0,0,0)
(0,0,0)
(0,0,0)
(0,0,0)
(0,0,0)
(0,0,0)
(0,0,0)
(0,0,0)
(0,0,0)
(0,0,0)
(0,0,0)
(0,0,0)
(0,0,0)
(0,0,0)
(0,0,0)
(0,0,0)
(0,0,0)
(0,0,0)
(0,0,0)
(0,0,0)
(0,0,0)
(0,0,0)
(0,0,0)
(0,0,0)
(0,0,0)
(0,0,0)
(0,0,0)
(0,0,0)
(0,0,0)
(0,0,0)
(0,0,0)
(0,0,0)
(0,0,0)
(0,0,0)
(0,0,0)
(0,0,0)
(0,0,0)
(0,0,0)
(0,0,0)
(0,0,0)
(0,0,0)
(0,0,0)
(0,0,0)
(0,0,0)
(0,0,0)
(0,0,0)
(0,0,0)
(0,0,0)
(0,0,0)
(0,0,0)
(0,0,0)
(0,0,0)
(0,0,0)
(0,0,0)
(0,0,0)
(0,0,0)
(0,0,0)
(0,0,0)
(0,0,0)
(0,0,0)
(0,0,0)
(0,0,0)
(0,0,0)
(0,0,0)
(0,0,0)
(0,0,0)
(0,0,0)
(0,0,0)
(0,0,0)
(0,0,0)
(0,0,0)
(0,0,0)
(0,0,0)
(0,0,0)
(0,0,0)
(0,0,0)
(0,0,0)
(0,0,0)
(0,0,0)
(0,0,0)
(0,0,0)
(0,0,0)
(0,0,0)
(0,0,0)
(0,0,0)
(0,0,0)
(0,0,0)
(0,0,0)
(0,0,0)
(0,0,0)
(0,0,0)
(0,0,0)
(0,0,0)
(0,0,0)
(0,0,0)
(0,0,0)
(0,0,0)
(0,0,0)
(0,0,0)
(0,0,0)
(0,0,0)
(0,0,0)
(0,0,0)
(0,0,0)
(0,0,0)
(0,0,0)
(0,0,0)
(0,0,0)
(0,0,0)
(0,0,0)
(0,0,0)
(0,0,0)
(0,0,0)
(0,0,0)
(0,0,0)
(0,0,0)
(0,0,0)
(0,0,0)
(0,0,0)
(0,0,0)
(0,0,0)
(0,0,0)
(0,0,0)
(0,0,0)
(0,0,0)
(0,0,0)
(0,0,0)
(0,0,0)
(0,0,0)
(0,0,0)
(0,0,0)
(0,0,0)
(0,0,0)
(0,0,0)
(0,0,0)
(0,0,0)
(0,0,0)
(0,0,0)
(0,0,0)
(0,0,0)
(0,0,0)
(0,0,0)
(0,0,0)
(0,0,0)
(0,0,0)
(0,0,0)
(0,0,0)
(0,0,0)
(0,0,0)
(0,0,0)
(0,0,0)
(0,0,0)
(0,0,0)
(0,0,0)
(0,0,0)
(0,0,0)
(0,0,0)
(0,0,0)
(0,0,0)
(0,0,0)
(0,0,0)
(0,0,0)
(0,0,0)
(0,0,0)
(0,0,0)
(0,0,0)
(0,0,0)
(0,0,0)
(0,0,0)
(0,0,0)
(0,0,0)
(0,0,0)
(0,0,0)
(0,0,0)
(0,0,0)
(0,0,0)
(0,0,0)
(0,0,0)
(0,0,0)
(0,0,0)
(0,0,0)
(0,0,0)
(0,0,0)
(0,0,0)
(0,0,0)
(0,0,0)
(0,0,0)
(0,0,0)
(0,0,0)
(0,0,0)
(0,0,0)
(0,0,0)
(0,0,0)
(0,0,0)
(0,0,0)
(0,0,0)
(0,0,0)
(0,0,0)
(0,0,0)
(0,0,0)
(0,0,0)
(0,0,0)
(0,0,0)
(0,0,0)
(0,0,0)
(0,0,0)
(0,0,0)
(0,0,0)
(0,0,0)
(0,0,0)
(0,0,0)
(0,0,0)
(0,0,0)
(0,0,0)
(0,0,0)
(0,0,0)
(0,0,0)
(0,0,0)
(0,0,0)
(0,0,0)
(0,0,0)
(0,0,0)
(0,0,0)
(-190207.367787915,100878.517718666,89328.8500692484)
(-201185.770680608,96752.346538879,193762.274210976)
(-226583.012629664,88150.0619349852,332195.224905651)
(-274627.474083888,74591.3101405136,532231.388849036)
(-361315.427905452,56232.6601865809,837314.156567906)
(-516863.06092011,35067.8880734286,1319109.32941459)
(-798404.531518196,15794.2352448945,2101719.62568791)
(-1307141.07846876,3981.6497035076,3404879.05445318)
(-2155971.83665128,54.9547338677633,5560795.93637055)
(-3003959.81250849,-272.687128035839,8565028.43600716)
(0,0,0)
(0,0,0)
(0,0,0)
(0,0,0)
(0,0,0)
(0,0,0)
(-201242.768899382,216975.088242052,85146.1983759951)
(-212340.492437849,209207.25799739,185031.779355335)
(-238153.134551599,192842.708074644,318492.267767272)
(-287320.102410044,166633.121701445,513770.558616384)
(-376382.770515415,130294.446464068,816091.54285431)
(-535634.337944607,86973.4255948769,1299820.34327746)
(-820290.672328367,45984.8371169756,2089920.41373374)
(-1327095.61779453,20022.9939896731,3400974.68724206)
(-2169271.81662621,9808.14147091781,5560493.31713127)
(-3010174.44048995,5001.81343337569,8565393.2570597)
(0,0,0)
(0,0,0)
(0,0,0)
(0,0,0)
(0,0,0)
(0,0,0)
(-226470.971545974,366234.184155591,77211.8756324349)
(-237732.578256709,355793.243272619,168358.468613919)
(-264351.418417324,333582.093297203,291970.501808689)
(-315974.402483301,297370.222300156,477207.803693278)
(-410724.527326981,245575.389158485,772651.388325829)
(-579817.625971331,180709.970401335,1258732.46949071)
(-874234.805312992,115046.846220259,2063905.26570042)
(-1376758.41808104,69927.4050337146,3390759.27273737)
(-2201256.76118276,46114.7760330768,5555709.39935804)
(-3024661.48442143,24977.7759333922,8560394.92127949)
(0,0,0)
(0,0,0)
(0,0,0)
(0,0,0)
(0,0,0)
(0,0,0)
(-273414.525278678,573065.633604908,66583.0758293613)
(-284848.259856631,561391.019888381,145833.559070232)
(-312497.519403394,536433.454651761,255479.71711906)
(-367670.454010931,495303.359212533,425217.034217605)
(-471801.157685861,434884.975532785,707708.605529181)
(-659850.546927782,355294.321361337,1192974.80149695)
(-977604.519871001,266866.09623848,2018760.07134972)
(-1472879.49732472,194632.602602012,3366934.37110613)
(-2259884.27258166,138320.427881358,5534612.99183943)
(-3050223.56521943,74402.1622980771,8535412.17069438)
(0,0,0)
(0,0,0)
(0,0,0)
(0,0,0)
(0,0,0)
(0,0,0)
(-357429.963597664,875755.120352053,54740.4768505124)
(-368854.480392895,864375.313633024,120610.663498762)
(-397081.26074983,840103.820659346,214021.558241006)
(-455214.569884022,799997.415797815,364542.071539746)
(-569002.672542418,740433.68768646,627996.031928489)
(-780514.802862956,659331.277902217,1104473.87825055)
(-1134992.70090805,559811.949725043,1946520.72567204)
(-1619194.9254908,449704.417281113,3310643.83648377)
(-2345053.41545507,323275.815509076,5470741.86431124)
(-3087165.47070824,171330.282372102,8460979.21494546)
(0,0,0)
(0,0,0)
(0,0,0)
(0,0,0)
(0,0,0)
(0,0,0)
(-509024.374686007,1341548.48154289,43231.0134951758)
(-519903.993342797,1331426.23204562,96084.088425372)
(-547233.708589866,1309800.91290336,173620.704771228)
(-604793.283920146,1273664.09984803,304747.304641155)
(-719753.43958681,1218217.83391842,546716.597996019)
(-935255.758149047,1136428.32075078,1004875.31329652)
(-1290790.02008754,1019099.59512893,1836377.68798017)
(-1753039.71980986,854886.733328303,3184235.09174285)
(-2437312.25956284,625973.145475072,5318850.02133974)
(-3133652.70709139,334164.094434738,8289668.91636846)
(0,0,0)
(0,0,0)
(0,0,0)
(0,0,0)
(0,0,0)
(0,0,0)
(-787344.448727649,2095847.81859135,33045.111679188)
(-796989.211934062,2087136.81452739,74323.7411314876)
(-821512.34990652,2068290.587927,137346.416014367)
(-874091.451457381,2035966.82853516,249135.138784609)
(-980850.138027697,1983422.53967451,464780.571056213)
(-1183304.0962179,1896981.83989133,887531.148133571)
(-1516945.44965579,1751365.40880665,1672210.78411166)
(-1937280.84009281,1508977.54068699,2955400.81684578)
(-2574822.31761815,1129056.82424618,5027139.45569278)
(-3209512.74577983,615199.757393634,7955616.53851381)
(0,0,0)
(0,0,0)
(0,0,0)
(0,0,0)
(0,0,0)
(0,0,0)
(-1296303.31503186,3367923.76436762,24227.3692555682)
(-1304009.22487922,3359998.24851336,55375.1601488262)
(-1323751.12761306,3342459.92470246,104956.950986442)
(-1366519.38479453,3311008.38006265,196434.784253467)
(-1454268.31991807,3255939.7938129,378185.850033141)
(-1622561.39122705,3155809.96836489,741919.112786617)
(-1901954.27652607,2965338.41715143,1429900.38096785)
(-2242239.05708352,2605500.23611363,2575616.74262476)
(-2824499.6069399,2015761.63113463,4513411.54267619)
(-3354592.73269936,1142609.55854283,7340594.47422631)
(0,0,0)
(0,0,0)
(0,0,0)
(0,0,0)
(0,0,0)
(0,0,0)
(-2148559.82813834,5500266.87640445,16216.7161015046)
(-2153822.14107406,5492298.2096554,37738.8960335089)
(-2167239.45906836,5474021.83642961,73416.4433746763)
(-2195995.14111322,5439130.11650254,141289.848047981)
(-2253965.41212732,5373235.37159998,277959.682388237)
(-2362855.26253197,5245207.22560013,551417.687684987)
(-2545753.24770784,4992421.43758404,1070087.91496024)
(-2817553.68702538,4507206.9794694,1985934.85862988)
(-3285048.59037068,3646440.46148408,3640304.61865099)
(-3607640.55885275,2192478.3632429,6198076.37280368)
(0,0,0)
(0,0,0)
(0,0,0)
(0,0,0)
(0,0,0)
(0,0,0)
(-3000530.54423523,8492534.64953103,8262.77110864502)
(-3003170.87072978,8484262.55074197,19469.3007518371)
(-3009844.36310934,8464814.13167014,38521.3686206641)
(-3023967.95470105,8426224.91053064,75394.5292936745)
(-3052047.07464111,8350765.65164625,149911.323888533)
(-3104492.81637599,8200920.09913396,298691.266730635)
(-3196029.65556949,7902216.10066838,584926.259215751)
(-3350297.99278908,7317249.88988344,1125181.34159077)
(-3606811.83319729,6192039.55728147,2186394.07899059)
(-3632441.96726842,4005646.69877562,4005667.71072633)
(0,0,0)
(0,0,0)
(0,0,0)
(0,0,0)
(0,0,0)
(0,0,0)
(0,0,0)
(0,0,0)
(0,0,0)
(0,0,0)
(0,0,0)
(0,0,0)
(0,0,0)
(0,0,0)
(0,0,0)
(0,0,0)
(0,0,0)
(0,0,0)
(0,0,0)
(0,0,0)
(0,0,0)
(0,0,0)
(0,0,0)
(0,0,0)
(0,0,0)
(0,0,0)
(0,0,0)
(0,0,0)
(0,0,0)
(0,0,0)
(0,0,0)
(0,0,0)
(0,0,0)
(0,0,0)
(0,0,0)
(0,0,0)
(0,0,0)
(0,0,0)
(0,0,0)
(0,0,0)
(0,0,0)
(0,0,0)
(0,0,0)
(0,0,0)
(0,0,0)
(0,0,0)
(0,0,0)
(0,0,0)
(0,0,0)
(0,0,0)
(0,0,0)
(0,0,0)
(0,0,0)
(0,0,0)
(0,0,0)
(0,0,0)
(0,0,0)
(0,0,0)
(0,0,0)
(0,0,0)
(0,0,0)
(0,0,0)
(0,0,0)
(0,0,0)
(0,0,0)
(0,0,0)
(0,0,0)
(0,0,0)
(0,0,0)
(0,0,0)
(0,0,0)
(0,0,0)
(0,0,0)
(0,0,0)
(0,0,0)
(0,0,0)
(0,0,0)
(0,0,0)
(0,0,0)
(0,0,0)
(0,0,0)
(0,0,0)
(0,0,0)
(0,0,0)
(0,0,0)
(0,0,0)
(0,0,0)
(0,0,0)
(0,0,0)
(0,0,0)
(0,0,0)
(0,0,0)
(0,0,0)
(0,0,0)
(0,0,0)
(0,0,0)
(0,0,0)
(0,0,0)
(0,0,0)
(0,0,0)
(0,0,0)
(0,0,0)
(28172730.3254165,89943.9878553083,78318.9244405673)
(28154357.5875832,85704.6512872864,168271.520389879)
(28112102.8644483,76692.5668418312,284093.681970254)
(28033097.3446779,61989.9876101665,445579.481098523)
(27892425.2066817,41198.4069788295,681841.045032709)
(27642282.5954046,16274.7927386514,1037621.20146956)
(27183506.3062461,-6097.63990398611,1593008.60910938)
(26277033.8708285,-15966.1648506852,2556000.43016306)
(24231834.2360422,-13265.7226295409,4712660.68559947)
(18677649.9199568,-6511.59131123389,11568763.1499458)
(0,0,0)
(0,0,0)
(0,0,0)
(0,0,0)
(0,0,0)
(0,0,0)
(28153911.5301291,191963.702278586,74026.5920484981)
(28135476.3655759,183969.709578631,159145.281243722)
(28092834.9574454,166754.97736594,269295.384222893)
(28012357.4883329,138060.026127797,424748.360462656)
(27867871.9315832,95993.3706693744,656899.300173848)
(27610738.9770811,42775.0071279064,1015226.37625917)
(27144908.9933999,-8002.25982766676,1583131.93595501)
(26242199.1157581,-29668.4431578864,2558740.08620978)
(24210191.8109295,-22221.8427898374,4719433.18431449)
(18668186.4359385,-9521.78776284925,11575283.1098378)
(0,0,0)
(0,0,0)
(0,0,0)
(0,0,0)
(0,0,0)
(0,0,0)
(28111261.4645349,319519.450898557,65912.4207992707)
(28092800.7430512,308853.978456625,141695.436113563)
(28049347.3037863,285577.075317705,240375.221458479)
(27965368.6378639,245758.348542902,382534.464196524)
(27810873.4720735,184530.764203556,603599.67676216)
(27532695.599685,100705.553198668,964356.510535407)
(27040229.3020747,11683.8901701588,1561406.8586502)
(26146123.302538,-26179.1852092151,2566236.48558288)
(24154306.2474161,-12530.4418867899,4732182.68158104)
(18645006.6272889,-605.966418579925,11584799.3540267)
(0,0,0)
(0,0,0)
(0,0,0)
(0,0,0)
(0,0,0)
(0,0,0)
(28033020.0461596,489164.531640782,55120.9533197372)
(28014605.9779846,477532.004691593,118189.294743794)
(27970090.7245921,452026.314451494,200352.417114796)
(27880615.4400561,407863.063736366,321162.413354602)
(27707682.7457066,337714.105314076,519695.774351984)
(27381866.9069199,234645.171823314,875239.30737998)
(26807555.5675289,109473.971040495,1523489.74461009)
(25927437.2459852,48321.7251228068,2579872.69646856)
(24041400.6971777,53136.1077247976,4744121.78259771)
(18601650.7048835,37457.9841556111,11585384.167421)
(0,0,0)
(0,0,0)
(0,0,0)
(0,0,0)
(0,0,0)
(0,0,0)
(27895416.7155393,724175.266524847,43343.1914792342)
(27877395.7908566,713370.708164383,92454.8222571613)
(27832641.261246,690024.179253599,155935.040959626)
(27738511.1127401,650468.197836646,250804.82973537)
(27544524.9171952,589671.278843647,416520.671968525)
(27147319.6505359,504527.660563708,750004.335329657)
(26389442.7840157,403936.011750505,1462307.41519618)
(25522121.6262934,315816.693435746,2584696.50059935)
(23864518.4717983,230992.351309764,4728468.97526114)
(18537194.9541175,124847.745921054,11547919.3941701)
(0,0,0)
(0,0,0)
(0,0,0)
(0,0,0)
(0,0,0)
(0,0,0)
(27650731.2079284,1063205.71448569,32414.5749249201)
(27633896.1038655,1054323.59707071,68862.1943104848)
(27591239.1868342,1035497.79538211,116116.28825828)
(27498835.7979004,1004339.81603685,189816.193737943)
(27302645.8983046,957041.662469066,331247.077721386)
(26894126.7809137,888246.014859073,649346.789863468)
(26126732.6523814,792819.57822733,1374141.15641806)
(25297682.5871736,670565.464161317,2499870.68420931)
(23713967.4723031,488440.1519738,4622343.75717965)
(18463342.5473597,258308.922888494,11423087.9312613)
(0,0,0)
(0,0,0)
(0,0,0)
(0,0,0)
(0,0,0)
(0,0,0)
(27196809.9981149,1586806.56883419,23445.3043091952)
(27182135.2881911,1579985.36879554,49859.6379594396)
(27144343.8489617,1565892.45197084,84809.3880028589)
(27060481.4757404,1543383.08421636,142393.798125837)
(26877609.4203197,1509846.00704172,262330.500706038)
(26487046.6349417,1457565.08279218,553861.307113486)
(25742867.346502,1366220.07868482,1251848.61599842)
(24994717.7701571,1203887.8656629,2317728.20974725)
(23490999.8747957,879312.157622685,4392234.6171846)
(18337288.0722281,470096.201869673,11164847.1256958)
(0,0,0)
(0,0,0)
(0,0,0)
(0,0,0)
(0,0,0)
(0,0,0)
(26289592.8083559,2515568.69274613,16542.3582005689)
(26278029.5871456,2510058.43555514,35631.0849163371)
(26247934.0120128,2498839.97691268,62199.0258489682)
(26180192.3239255,2481366.22722893,108704.779616591)
(26029543.4646336,2456059.23898675,209880.368620048)
(25698303.0614596,2415321.07774599,462460.526479936)
(25047038.353305,2321369.13345936,1089519.44737463)
(24559099.1424399,2030051.55486846,1993218.16414582)
(23041008.9229646,1555121.96762112,3983100.42974307)
(18045409.2462764,889511.380194647,10694883.8779426)
(0,0,0)
(0,0,0)
(0,0,0)
(0,0,0)
(0,0,0)
(0,0,0)
(24239104.6523186,4648127.64407798,10977.1737115623)
(24231324.9158983,4642778.20091706,24310.9568775659)
(24211216.3962023,4631243.38730315,44652.2967166416)
(24166924.7950324,4610965.82298988,83333.3703103375)
(24072646.2483866,4574943.09321115,169038.461072195)
(23880872.1407026,4503358.52020204,368474.220881956)
(23535126.8590346,4341953.71155086,798210.141548346)
(23049255.4691003,3974311.80873304,1518341.33705839)
(21677517.8911345,3324540.96156682,3317556.46710782)
(17157513.5880872,2167609.88332225,9805504.42254049)
(0,0,0)
(0,0,0)
(0,0,0)
(0,0,0)
(0,0,0)
(0,0,0)
(18680320.5363387,11492842.7349354,5634.43406889344)
(18676458.6306728,11487194.8314652,12788.9076182295)
(18666597.0945923,11474392.3459044,24399.0968156509)
(18645333.6893937,11449921.9705614,47341.910649848)
(18601494.5677358,11402484.5776974,97459.3892870351)
(18515312.3055767,11305070.6218982,207142.771138569)
(18355707.9204216,11097937.7561538,430621.756044818)
(18049970.0631573,10667274.0617248,868592.052607143)
(17158207.1289327,9798630.05250421,2160684.60504011)
(13951124.2337779,7637941.80122136,7637987.09159494)
(0,0,0)
(0,0,0)
(0,0,0)
(0,0,0)
(0,0,0)
(0,0,0)
(0,0,0)
(0,0,0)
(0,0,0)
(0,0,0)
(0,0,0)
(0,0,0)
(0,0,0)
(0,0,0)
(0,0,0)
(0,0,0)
(0,0,0)
(0,0,0)
(0,0,0)
(0,0,0)
(0,0,0)
(0,0,0)
(0,0,0)
(0,0,0)
(0,0,0)
(0,0,0)
(0,0,0)
(0,0,0)
(0,0,0)
(0,0,0)
(0,0,0)
(0,0,0)
(0,0,0)
(0,0,0)
(0,0,0)
(0,0,0)
(0,0,0)
(0,0,0)
(0,0,0)
(0,0,0)
(0,0,0)
(0,0,0)
(0,0,0)
(0,0,0)
(0,0,0)
(0,0,0)
(0,0,0)
(0,0,0)
(0,0,0)
(0,0,0)
(0,0,0)
(0,0,0)
(0,0,0)
(0,0,0)
(0,0,0)
(0,0,0)
(0,0,0)
(0,0,0)
(0,0,0)
(0,0,0)
(0,0,0)
(0,0,0)
(0,0,0)
(0,0,0)
(0,0,0)
(0,0,0)
(0,0,0)
(0,0,0)
(0,0,0)
(0,0,0)
(0,0,0)
(0,0,0)
(0,0,0)
(0,0,0)
(0,0,0)
(0,0,0)
(0,0,0)
(0,0,0)
(0,0,0)
(0,0,0)
(0,0,0)
(0,0,0)
(0,0,0)
(0,0,0)
(0,0,0)
(0,0,0)
(0,0,0)
(0,0,0)
(0,0,0)
(0,0,0)
(0,0,0)
(0,0,0)
(0,0,0)
(0,0,0)
(0,0,0)
(0,0,0)
(0,0,0)
(0,0,0)
(0,0,0)
(0,0,0)
(0,0,0)
(0,0,0)
(-489637.648058815,71269.1192405336,59898.2487344908)
(-509905.810027208,66997.1201536278,125963.920690861)
(-555805.432203098,57595.7974464568,205075.814395636)
(-639369.55250526,41367.7366864548,304974.369392112)
(-782333.534973999,16698.6697645619,431833.83578309)
(-1020831.11262905,-15253.8404009033,579000.778717416)
(-1410705.95594011,-44643.3092271803,686655.744630638)
(-2027585.08689821,-50744.8005577809,510818.897414864)
(-2912029.31589098,-34911.9221123929,-841606.234039899)
(-3569804.89461149,-15999.1715487518,-7109352.85342309)
(0,0,0)
(0,0,0)
(0,0,0)
(0,0,0)
(0,0,0)
(0,0,0)
(-511207.788311383,149614.176968194,55573.6552125617)
(-531155.572954426,141547.058749485,116455.049646711)
(-576572.519316611,123465.007322522,188792.711032379)
(-660189.455100352,91206.6399818549,280300.145669895)
(-805290.90183333,39088.5488405307,399872.494510119)
(-1050211.61521197,-35206.6594000726,549575.300302078)
(-1449241.36661555,-112657.163793928,680538.909383869)
(-2060175.5734296,-125743.966852203,526712.159365756)
(-2928378.67130026,-78134.7099779904,-822695.17603898)
(-3575572.18865942,-32729.7485557825,-7093406.57993419)
(0,0,0)
(0,0,0)
(0,0,0)
(0,0,0)
(0,0,0)
(0,0,0)
(-559294.792270018,241556.253977745,47413.5742952523)
(-578549.35351686,230893.247585213,98216.876527385)
(-623123.903453574,206529.714141361,156422.771448113)
(-707507.200463463,161170.659258751,228133.984998242)
(-860104.725293797,81463.0680876596,325537.057618102)
(-1130233.79385327,-49998.3293266634,472057.51558262)
(-1578066.41104908,-220934.801899008,667430.261311162)
(-2172953.62300849,-244862.986838582,574425.601343658)
(-2977898.20967552,-125460.045605476,-777245.211437307)
(-3591460.32897308,-43987.2326285752,-7060721.37660283)
(0,0,0)
(0,0,0)
(0,0,0)
(0,0,0)
(0,0,0)
(0,0,0)
(-645031.709491601,351760.769581734,36646.6345469661)
(-663261.55344413,340530.683676086,73676.1243845668)
(-706603.00218922,314769.352913336,110929.606893621)
(-792715.730424086,265878.704135982,148352.126996274)
(-962304.070064016,174587.5531082,194013.852245994)
(-1306463.23224198,93.5098184444,301051.546762465)
(-1978267.64837628,-308699.603262234,643438.958530517)
(-2541911.24351683,-357062.4377949,693786.293488469)
(-3101837.47422544,-123804.706154856,-695831.48005912)
(-3625486.36689186,-27030.0342777208,-7016852.21213497)
(0,0,0)
(0,0,0)
(0,0,0)
(0,0,0)
(0,0,0)
(0,0,0)
(-788907.661606761,479572.701307427,25311.8399201032)
(-805663.727847905,469957.698043981,47743.7387564977)
(-846608.019165224,448698.521840884,61863.2447397675)
(-932729.084452409,410844.031081404,56937.5094867095)
(-1122377.4558235,347776.390732167,19450.4393811)
(-1607802.7128037,251250.571643283,-7784.86460451174)
(-3194339.49242023,141089.503213828,595007.699855034)
(-3789365.27063949,91245.0278510266,926986.525641723)
(-3344736.04437375,80341.0282041093,-599105.298045344)
(-3681206.40764743,50949.103832554,-6989883.6798909)
(0,0,0)
(0,0,0)
(0,0,0)
(0,0,0)
(0,0,0)
(0,0,0)
(-1025936.13603771,609388.816730613,15650.6230427559)
(-1040649.49923842,602630.751591376,26322.567099105)
(-1077355.33570134,588615.50626793,23799.4997072294)
(-1157445.39092894,565991.902071129,-6267.78795356152)
(-1341819.0071712,531938.023051251,-77165.1202971137)
(-1826009.23486059,481007.868297231,-117987.006676962)
(-3335265.49059641,408762.082702402,545137.951311901)
(-3880566.77137211,367408.057603137,916023.67460515)
(-3457677.76381761,265345.381045742,-628536.047616155)
(-3736792.13376118,132196.85156865,-7040849.71973155)
(0,0,0)
(0,0,0)
(0,0,0)
(0,0,0)
(0,0,0)
(0,0,0)
(-1413480.69820986,679625.520333616,8853.38722149574)
(-1425609.49032176,675842.713543255,12185.5982822371)
(-1456473.23783508,669380.518058108,1037.06778844617)
(-1526279.40620604,662989.043825532,-40399.7975197803)
(-1695515.35291628,661632.711352468,-128170.318085255)
(-2169606.50293161,668600.817863135,-190310.735277991)
(-3743681.58611126,670147.894535704,503651.780001766)
(-4247259.57833891,768010.956613546,813825.623987094)
(-3628403.74138552,429144.145029411,-761770.129315406)
(-3828549.71107088,178133.561723956,-7173069.66167206)
(0,0,0)
(0,0,0)
(0,0,0)
(0,0,0)
(0,0,0)
(0,0,0)
(-2032068.67797145,465056.132883514,5030.26827719077)
(-2041208.11438052,463284.124545186,5625.95330120814)
(-2064795.57665961,462003.204499805,-5467.74996840495)
(-2119550.88938995,467936.299355629,-41872.3976832796)
(-2259552.81933507,498981.164587127,-121325.172449418)
(-2694420.09512292,597645.807288875,-188847.610792971)
(-4413520.42089019,809209.365130439,601449.087307177)
(-3597555.45231159,519982.850751988,474931.18241998)
(-3764735.65355767,191441.431553333,-1012822.13308177)
(-3970750.79786607,1500.87518634973,-7351230.0079019)
(0,0,0)
(0,0,0)
(0,0,0)
(0,0,0)
(0,0,0)
(0,0,0)
(-2919387.76681244,-910885.568992129,3233.51550633512)
(-2925318.37466102,-912315.86858321,4276.19369379568)
(-2940449.66476452,-913647.402697242,392.256357454219)
(-2974120.69136324,-910921.086809746,-10905.4765817945)
(-3051222.51134183,-896513.153072213,-22743.0046942172)
(-3235553.70875357,-862554.464264431,22682.51081487)
(-3638562.40183091,-837823.849990479,312204.381301019)
(-3770907.13695507,-1025281.00708638,146430.239694438)
(-4118044.03762319,-1195034.07955619,-1202732.9259386)
(-4183314.3482392,-1038936.01673319,-7352668.70319291)
(0,0,0)
(0,0,0)
(0,0,0)
(0,0,0)
(0,0,0)
(0,0,0)
(-3575455.2231088,-7188095.80592519,1785.39088026612)
(-3578333.81783278,-7189889.84078766,2951.20609002197)
(-3585570.77687427,-7192864.52688636,3135.59624547884)
(-3601128.67978554,-7196053.35337671,3529.62649126794)
(-3634264.98968314,-7199691.42124529,11266.8465829752)
(-3703691.87531906,-7210997.51734236,47513.4750562833)
(-3832031.76584709,-7258572.14244918,124800.848283398)
(-3974964.93855156,-7383452.81223178,-23292.950362826)
(-4184554.08060764,-7360200.42969326,-1046565.99618574)
(-4038320.47144046,-6313633.77973925,-6313624.13346168)
(0,0,0)
(0,0,0)
(0,0,0)
(0,0,0)
(0,0,0)
(0,0,0)
(0,0,0)
(0,0,0)
(0,0,0)
(0,0,0)
(0,0,0)
(0,0,0)
(0,0,0)
(0,0,0)
(0,0,0)
(0,0,0)
(0,0,0)
(0,0,0)
(0,0,0)
(0,0,0)
(0,0,0)
(0,0,0)
(0,0,0)
(0,0,0)
(0,0,0)
(0,0,0)
(0,0,0)
(0,0,0)
(0,0,0)
(0,0,0)
(0,0,0)
(0,0,0)
(0,0,0)
(0,0,0)
(0,0,0)
(0,0,0)
(0,0,0)
(0,0,0)
(0,0,0)
(0,0,0)
(0,0,0)
(0,0,0)
(0,0,0)
(0,0,0)
(0,0,0)
(0,0,0)
(0,0,0)
(0,0,0)
(0,0,0)
(0,0,0)
(0,0,0)
(0,0,0)
(0,0,0)
(0,0,0)
(0,0,0)
(0,0,0)
(0,0,0)
(0,0,0)
(0,0,0)
(0,0,0)
(0,0,0)
(0,0,0)
(0,0,0)
(0,0,0)
(0,0,0)
(0,0,0)
(0,0,0)
(0,0,0)
(0,0,0)
(0,0,0)
(0,0,0)
(0,0,0)
(0,0,0)
(0,0,0)
(0,0,0)
(0,0,0)
(0,0,0)
(0,0,0)
(0,0,0)
(0,0,0)
(0,0,0)
(0,0,0)
(0,0,0)
(0,0,0)
(0,0,0)
(0,0,0)
(0,0,0)
(0,0,0)
(0,0,0)
(0,0,0)
(0,0,0)
(0,0,0)
(0,0,0)
(0,0,0)
(0,0,0)
(0,0,0)
(0,0,0)
(0,0,0)
(0,0,0)
(0,0,0)
(0,0,0)
(0,0,0)
(-579076.697696759,49854.7600203576,39584.2896175869)
(-596307.650301251,45928.4474269285,80057.6824647054)
(-634318.455628332,36979.2266254466,121591.479264495)
(-700604.035740824,20642.9681087346,162182.994391322)
(-807500.392785354,-6205.10500587735,193554.957208556)
(-971920.436815684,-44651.9324074462,189296.213802638)
(-1208115.48030361,-83195.0727940513,69900.8109601984)
(-1500845.47598533,-83324.1162164636,-373514.68373621)
(-1734986.73051178,-51242.1155895778,-1499315.15352579)
(-1507713.23906093,-21764.5142645902,-3539642.29481174)
(0,0,0)
(0,0,0)
(0,0,0)
(0,0,0)
(0,0,0)
(0,0,0)
(-598723.0023401,101761.254389826,35608.7196592467)
(-615008.839776294,94371.2354096909,71019.1984983551)
(-650880.657703704,77086.2557560092,105220.307754889)
(-713619.849993048,43990.7247699085,135302.945986405)
(-815643.608804232,-15636.9383088817,155087.486260307)
(-975288.240749152,-115195.818156915,150707.997546958)
(-1209954.22791866,-241503.377877525,69729.1639335431)
(-1493815.43413493,-238544.975505235,-341410.116072351)
(-1723533.26030311,-127650.784694359,-1469846.8579647)
(-1500655.00172389,-48610.1217226826,-3517918.43744223)
(0,0,0)
(0,0,0)
(0,0,0)
(0,0,0)
(0,0,0)
(0,0,0)
(-641631.112518472,155983.213198275,28114.3614400076)
(-656037.674369433,146349.744386302,53624.1733159686)
(-687721.193843911,123237.878178273,72069.841284039)
(-743202.579519687,76133.0268817818,75622.9182283879)
(-835053.640273251,-20569.3921830655,55504.2870820238)
(-988170.457181558,-226111.499132182,24356.6313855614)
(-1246763.16184789,-621112.976721613,72662.9810284594)
(-1494504.03577266,-613847.122128765,-230484.459583853)
(-1695756.41915558,-249429.456687325,-1390847.57811084)
(-1483465.18030152,-78032.3695044828,-3469420.47900062)
(0,0,0)
(0,0,0)
(0,0,0)
(0,0,0)
(0,0,0)
(0,0,0)
(-715421.69325267,208006.370572908,18366.8263864449)
(-727202.530532782,198283.069037756,30374.478823649)
(-752786.231488646,174909.622700807,24885.9636005458)
(-796548.455467956,125977.771252458,-21126.0557262597)
(-868574.239583499,14606.3463819142,-150031.624771753)
(-1010753.87434567,-301215.521210021,-370636.960590237)
(-1525045.15661314,-1524853.64973489,79881.2206599003)
(-1605083.83054904,-1604634.3517285,133841.037291837)
(-1631057.45768017,-366782.619400311,-1219585.81654047)
(-1448715.78266517,-82778.7085794384,-3391610.06169228)
(0,0,0)
(0,0,0)
(0,0,0)
(0,0,0)
(0,0,0)
(0,0,0)
(-831984.890276809,242533.787701977,8549.81154097796)
(-840704.642537876,235008.694824621,6865.10044408548)
(-858637.736041958,217979.828631684,-24175.3886100466)
(-884443.769190703,186119.804243495,-132602.736862788)
(-902798.939454533,128304.527060239,-465879.433910081)
(-813615.352694133,32968.5675841441,-1594250.88281381)