/*--------------------------------*- C++ -*----------------------------------*\
| =========                 |                                                 |
| \\      /  F ield         | foam-extend: Open Source CFD                    |
|  \\    /   O peration     | Version:     4.0                                |
|   \\  /    A nd           | Web:         http://www.foam-extend.org         |
|    \\/     M anipulation  |                                                 |
\*---------------------------------------------------------------------------*/
FoamFile
{
    version 2.0;
    format ascii;
    class volVectorField;
    location "2787";
    object      H;
}
// * * * * * * * * * * * * * * * * * * * * * * * * * * * * * * * * * * * * * //

dimensions      [0 1 -1 0 0 0 0];

internalField   nonuniform List<vector>
4096
(
(0,0,0)
(0,0,0)
(0,0,0)
(0,0,0)
(0,0,0)
(0,0,0)
(0,0,0)
(0,0,0)
(0,0,0)
(0,0,0)
(0,0,0)
(0,0,0)
(0,0,0)
(0,0,0)
(0,0,0)
(0,0,0)
(0,0,0)
(0,0,0)
(0,0,0)
(0,0,0)
(0,0,0)
(0,0,0)
(0,0,0)
(0,0,0)
(0,0,0)
(0,0,0)
(0,0,0)
(0,0,0)
(0,0,0)
(0,0,0)
(0,0,0)
(0,0,0)
(0,0,0)
(0,0,0)
(0,0,0)
(0,0,0)
(0,0,0)
(0,0,0)
(0,0,0)
(0,0,0)
(0,0,0)
(0,0,0)
(0,0,0)
(0,0,0)
(0,0,0)
(0,0,0)
(0,0,0)
(0,0,0)
(0,0,0)
(0,0,0)
(0,0,0)
(0,0,0)
(0,0,0)
(0,0,0)
(0,0,0)
(0,0,0)
(0,0,0)
(0,0,0)
(0,0,0)
(0,0,0)
(0,0,0)
(0,0,0)
(0,0,0)
(0,0,0)
(0,0,0)
(0,0,0)
(0,0,0)
(0,0,0)
(0,0,0)
(0,0,0)
(0,0,0)
(0,0,0)
(0,0,0)
(0,0,0)
(0,0,0)
(0,0,0)
(0,0,0)
(0,0,0)
(0,0,0)
(0,0,0)
(0,0,0)
(0,0,0)
(0,0,0)
(0,0,0)
(0,0,0)
(0,0,0)
(0,0,0)
(0,0,0)
(0,0,0)
(0,0,0)
(0,0,0)
(0,0,0)
(0,0,0)
(0,0,0)
(0,0,0)
(0,0,0)
(0,0,0)
(0,0,0)
(0,0,0)
(0,0,0)
(0,0,0)
(0,0,0)
(0,0,0)
(0,0,0)
(0,0,0)
(0,0,0)
(0,0,0)
(0,0,0)
(0,0,0)
(0,0,0)
(0,0,0)
(0,0,0)
(0,0,0)
(0,0,0)
(0,0,0)
(0,0,0)
(0,0,0)
(0,0,0)
(0,0,0)
(0,0,0)
(0,0,0)
(0,0,0)
(0,0,0)
(0,0,0)
(0,0,0)
(0,0,0)
(0,0,0)
(0,0,0)
(0,0,0)
(0,0,0)
(0,0,0)
(0,0,0)
(0,0,0)
(0,0,0)
(0,0,0)
(0,0,0)
(0,0,0)
(0,0,0)
(0,0,0)
(0,0,0)
(0,0,0)
(0,0,0)
(0,0,0)
(0,0,0)
(0,0,0)
(0,0,0)
(0,0,0)
(0,0,0)
(0,0,0)
(0,0,0)
(0,0,0)
(0,0,0)
(0,0,0)
(0,0,0)
(0,0,0)
(0,0,0)
(0,0,0)
(0,0,0)
(0,0,0)
(0,0,0)
(0,0,0)
(0,0,0)
(0,0,0)
(0,0,0)
(0,0,0)
(0,0,0)
(0,0,0)
(0,0,0)
(0,0,0)
(0,0,0)
(0,0,0)
(0,0,0)
(0,0,0)
(0,0,0)
(0,0,0)
(0,0,0)
(0,0,0)
(0,0,0)
(0,0,0)
(0,0,0)
(0,0,0)
(0,0,0)
(0,0,0)
(0,0,0)
(0,0,0)
(0,0,0)
(0,0,0)
(0,0,0)
(0,0,0)
(0,0,0)
(0,0,0)
(0,0,0)
(0,0,0)
(0,0,0)
(0,0,0)
(0,0,0)
(0,0,0)
(0,0,0)
(0,0,0)
(0,0,0)
(0,0,0)
(0,0,0)
(0,0,0)
(0,0,0)
(0,0,0)
(0,0,0)
(0,0,0)
(0,0,0)
(0,0,0)
(0,0,0)
(0,0,0)
(0,0,0)
(0,0,0)
(0,0,0)
(0,0,0)
(0,0,0)
(0,0,0)
(0,0,0)
(0,0,0)
(0,0,0)
(0,0,0)
(0,0,0)
(0,0,0)
(0,0,0)
(0,0,0)
(0,0,0)
(0,0,0)
(0,0,0)
(0,0,0)
(0,0,0)
(0,0,0)
(0,0,0)
(0,0,0)
(0,0,0)
(0,0,0)
(0,0,0)
(0,0,0)
(0,0,0)
(0,0,0)
(0,0,0)
(0,0,0)
(0,0,0)
(0,0,0)
(0,0,0)
(0,0,0)
(0,0,0)
(0,0,0)
(0,0,0)
(0,0,0)
(0,0,0)
(0,0,0)
(0,0,0)
(0,0,0)
(0,0,0)
(0,0,0)
(0,0,0)
(0,0,0)
(0,0,0)
(0,0,0)
(0,0,0)
(0,0,0)
(0,0,0)
(0,0,0)
(0,0,0)
(0,0,0)
(0,0,0)
(0,0,0)
(0,0,0)
(0,0,0)
(0,0,0)
(0,0,0)
(0,0,0)
(0,0,0)
(0,0,0)
(0,0,0)
(0,0,0)
(0,0,0)
(0,0,0)
(0,0,0)
(0,0,0)
(0,0,0)
(0,0,0)
(0,0,0)
(0,0,0)
(0,0,0)
(0,0,0)
(0,0,0)
(0,0,0)
(0,0,0)
(0,0,0)
(0,0,0)
(0,0,0)
(0,0,0)
(0,0,0)
(0,0,0)
(0,0,0)
(0,0,0)
(0,0,0)
(0,0,0)
(0,0,0)
(0,0,0)
(0,0,0)
(0,0,0)
(0,0,0)
(0,0,0)
(0,0,0)
(0,0,0)
(0,0,0)
(0,0,0)
(0,0,0)
(0,0,0)
(0,0,0)
(0,0,0)
(0,0,0)
(0,0,0)
(0,0,0)
(0,0,0)
(0,0,0)
(0,0,0)
(0,0,0)
(0,0,0)
(0,0,0)
(0,0,0)
(0,0,0)
(0,0,0)
(0,0,0)
(0,0,0)
(0,0,0)
(0,0,0)
(0,0,0)
(0,0,0)
(0,0,0)
(0,0,0)
(0,0,0)
(0,0,0)
(0,0,0)
(0,0,0)
(0,0,0)
(0,0,0)
(0,0,0)
(0,0,0)
(0,0,0)
(0,0,0)
(0,0,0)
(0,0,0)
(0,0,0)
(0,0,0)
(0,0,0)
(0,0,0)
(0,0,0)
(0,0,0)
(0,0,0)
(0,0,0)
(0,0,0)
(0,0,0)
(0,0,0)
(0,0,0)
(0,0,0)
(0,0,0)
(0,0,0)
(0,0,0)
(0,0,0)
(0,0,0)
(0,0,0)
(0,0,0)
(0,0,0)
(0,0,0)
(0,0,0)
(0,0,0)
(0,0,0)
(0,0,0)
(0,0,0)
(0,0,0)
(0,0,0)
(0,0,0)
(0,0,0)
(0,0,0)
(0,0,0)
(0,0,0)
(0,0,0)
(0,0,0)
(0,0,0)
(0,0,0)
(0,0,0)
(0,0,0)
(0,0,0)
(0,0,0)
(0,0,0)
(0,0,0)
(0,0,0)
(0,0,0)
(0,0,0)
(0,0,0)
(0,0,0)
(0,0,0)
(0,0,0)
(0,0,0)
(0,0,0)
(0,0,0)
(0,0,0)
(0,0,0)
(0,0,0)
(0,0,0)
(0,0,0)
(0,0,0)
(0,0,0)
(0,0,0)
(0,0,0)
(0,0,0)
(0,0,0)
(0,0,0)
(0,0,0)
(0,0,0)
(0,0,0)
(0,0,0)
(0,0,0)
(0,0,0)
(0,0,0)
(0,0,0)
(0,0,0)
(0,0,0)
(0,0,0)
(0,0,0)
(0,0,0)
(0,0,0)
(0,0,0)
(0,0,0)
(0,0,0)
(0,0,0)
(0,0,0)
(0,0,0)
(0,0,0)
(0,0,0)
(0,0,0)
(0,0,0)
(0,0,0)
(0,0,0)
(0,0,0)
(0,0,0)
(0,0,0)
(0,0,0)
(0,0,0)
(0,0,0)
(0,0,0)
(0,0,0)
(0,0,0)
(0,0,0)
(0,0,0)
(0,0,0)
(0,0,0)
(0,0,0)
(0,0,0)
(0,0,0)
(0,0,0)
(0,0,0)
(0,0,0)
(0,0,0)
(0,0,0)
(0,0,0)
(0,0,0)
(0,0,0)
(0,0,0)
(0,0,0)
(0,0,0)
(0,0,0)
(0,0,0)
(0,0,0)
(0,0,0)
(0,0,0)
(0,0,0)
(0,0,0)
(0,0,0)
(0,0,0)
(0,0,0)
(0,0,0)
(0,0,0)
(0,0,0)
(0,0,0)
(0,0,0)
(0,0,0)
(0,0,0)
(0,0,0)
(0,0,0)
(0,0,0)
(0,0,0)
(0,0,0)
(0,0,0)
(0,0,0)
(0,0,0)
(0,0,0)
(0,0,0)
(0,0,0)
(0,0,0)
(0,0,0)
(0,0,0)
(0,0,0)
(0,0,0)
(0,0,0)
(0,0,0)
(0,0,0)
(0,0,0)
(0,0,0)
(0,0,0)
(0,0,0)
(0,0,0)
(0,0,0)
(0,0,0)
(0,0,0)
(0,0,0)
(0,0,0)
(0,0,0)
(0,0,0)
(0,0,0)
(0,0,0)
(0,0,0)
(0,0,0)
(0,0,0)
(0,0,0)
(0,0,0)
(0,0,0)
(0,0,0)
(0,0,0)
(0,0,0)
(0,0,0)
(0,0,0)
(0,0,0)
(0,0,0)
(0,0,0)
(0,0,0)
(0,0,0)
(0,0,0)
(0,0,0)
(0,0,0)
(0,0,0)
(0,0,0)
(0,0,0)
(0,0,0)
(0,0,0)
(0,0,0)
(0,0,0)
(0,0,0)
(0,0,0)
(0,0,0)
(0,0,0)
(0,0,0)
(0,0,0)
(0,0,0)
(0,0,0)
(0,0,0)
(0,0,0)
(0,0,0)
(0,0,0)
(0,0,0)
(0,0,0)
(0,0,0)
(0,0,0)
(0,0,0)
(0,0,0)
(0,0,0)
(0,0,0)
(0,0,0)
(0,0,0)
(0,0,0)
(0,0,0)
(0,0,0)
(0,0,0)
(0,0,0)
(0,0,0)
(0,0,0)
(0,0,0)
(0,0,0)
(0,0,0)
(0,0,0)
(0,0,0)
(0,0,0)
(0,0,0)
(0,0,0)
(0,0,0)
(0,0,0)
(0,0,0)
(0,0,0)
(0,0,0)
(0,0,0)
(0,0,0)
(0,0,0)
(0,0,0)
(0,0,0)
(0,0,0)
(0,0,0)
(0,0,0)
(0,0,0)
(0,0,0)
(0,0,0)
(0,0,0)
(0,0,0)
(0,0,0)
(0,0,0)
(0,0,0)
(0,0,0)
(0,0,0)
(0,0,0)
(0,0,0)
(0,0,0)
(0,0,0)
(0,0,0)
(0,0,0)
(0,0,0)
(0,0,0)
(0,0,0)
(0,0,0)
(0,0,0)
(0,0,0)
(0,0,0)
(0,0,0)
(0,0,0)
(0,0,0)
(0,0,0)
(0,0,0)
(0,0,0)
(0,0,0)
(0,0,0)
(0,0,0)
(0,0,0)
(0,0,0)
(0,0,0)
(0,0,0)
(0,0,0)
(0,0,0)
(0,0,0)
(0,0,0)
(0,0,0)
(0,0,0)
(0,0,0)
(0,0,0)
(0,0,0)
(0,0,0)
(0,0,0)
(0,0,0)
(0,0,0)
(0,0,0)
(0,0,0)
(0,0,0)
(0,0,0)
(0,0,0)
(0,0,0)
(0,0,0)
(0,0,0)
(0,0,0)
(0,0,0)
(0,0,0)
(0,0,0)
(0,0,0)
(0,0,0)
(0,0,0)
(0,0,0)
(0,0,0)
(0,0,0)
(0,0,0)
(0,0,0)
(0,0,0)
(0,0,0)
(0,0,0)
(0,0,0)
(0,0,0)
(0,0,0)
(0,0,0)
(0,0,0)
(0,0,0)
(0,0,0)
(0,0,0)
(0,0,0)
(0,0,0)
(0,0,0)
(0,0,0)
(0,0,0)
(0,0,0)
(0,0,0)
(0,0,0)
(0,0,0)
(0,0,0)
(0,0,0)
(0,0,0)
(0,0,0)
(0,0,0)
(0,0,0)
(0,0,0)
(0,0,0)
(0,0,0)
(0,0,0)
(0,0,0)
(0,0,0)
(0,0,0)
(0,0,0)
(0,0,0)
(0,0,0)
(0,0,0)
(0,0,0)
(0,0,0)
(0,0,0)
(0,0,0)
(0,0,0)
(0,0,0)
(0,0,0)
(0,0,0)
(0,0,0)
(0,0,0)
(0,0,0)
(0,0,0)
(0,0,0)
(0,0,0)
(0,0,0)
(0,0,0)
(0,0,0)
(0,0,0)
(0,0,0)
(0,0,0)
(0,0,0)
(0,0,0)
(0,0,0)
(0,0,0)
(0,0,0)
(0,0,0)
(0,0,0)
(0,0,0)
(0,0,0)
(0,0,0)
(0,0,0)
(0,0,0)
(0,0,0)
(0,0,0)
(0,0,0)
(0,0,0)
(0,0,0)
(0,0,0)
(0,0,0)
(0,0,0)
(0,0,0)
(0,0,0)
(0,0,0)
(0,0,0)
(0,0,0)
(0,0,0)
(0,0,0)
(0,0,0)
(0,0,0)
(0,0,0)
(0,0,0)
(0,0,0)
(0,0,0)
(0,0,0)
(0,0,0)
(0,0,0)
(0,0,0)
(0,0,0)
(0,0,0)
(0,0,0)
(0,0,0)
(0,0,0)
(0,0,0)
(0,0,0)
(0,0,0)
(0,0,0)
(0,0,0)
(0,0,0)
(0,0,0)
(0,0,0)
(0,0,0)
(0,0,0)
(0,0,0)
(0,0,0)
(0,0,0)
(0,0,0)
(0,0,0)
(0,0,0)
(0,0,0)
(0,0,0)
(0,0,0)
(0,0,0)
(0,0,0)
(0,0,0)
(0,0,0)
(0,0,0)
(0,0,0)
(0,0,0)
(0,0,0)
(0,0,0)
(0,0,0)
(0,0,0)
(0,0,0)
(0,0,0)
(0,0,0)
(0,0,0)
(0,0,0)
(0,0,0)
(0,0,0)
(0,0,0)
(0,0,0)
(0,0,0)
(0,0,0)
(0,0,0)
(0,0,0)
(0,0,0)
(0,0,0)
(0,0,0)
(0,0,0)
(0,0,0)
(0,0,0)
(0,0,0)
(0,0,0)
(0,0,0)
(0,0,0)
(0,0,0)
(0,0,0)
(0,0,0)
(0,0,0)
(0,0,0)
(0,0,0)
(0,0,0)
(0,0,0)
(-3.07675961338905e-13,-1.15449365888165e-11,1.28804380575544e-11)
(-1.43853306273925e-12,-2.55995816464165e-11,1.23199534593794e-11)
(-1.18714865829823e-12,-4.488859677468e-11,1.12287963465458e-11)
(-4.12457849443442e-13,-7.30569255083245e-11,9.71125263141688e-12)
(2.91671959704684e-14,-1.13337773499031e-10,7.23582757787554e-12)
(3.83979864624858e-13,-1.74692308397022e-10,4.27568998485988e-12)
(1.58619244451961e-12,-2.7494125121702e-10,1.67835224364405e-12)
(3.13540523326104e-12,-4.43659814838153e-10,5.25245959228051e-13)
(4.52403687146209e-12,-7.23221460080535e-10,2.09262014236345e-13)
(5.32083597718204e-12,-1.11271432573883e-09,-1.53770413693525e-13)
(0,0,0)
(0,0,0)
(0,0,0)
(0,0,0)
(0,0,0)
(0,0,0)
(-1.19278172382914e-12,-1.14254483001937e-11,3.01735834662412e-11)
(-2.25004758597866e-12,-2.5038420583704e-11,2.85952156739777e-11)
(-1.92362941335547e-12,-4.33521655760205e-11,2.60962123445635e-11)
(-1.77990987600905e-12,-7.03047182698495e-11,2.28528154055844e-11)
(-1.00935466485364e-12,-1.1018840385649e-10,1.79441190106575e-11)
(2.79168364860863e-13,-1.72181733054095e-10,1.20224319331891e-11)
(2.43933939961192e-12,-2.73699548979458e-10,6.49045209844229e-12)
(5.78358437851641e-12,-4.4321408803311e-10,3.24970105159637e-12)
(8.90152396738583e-12,-7.22719932662595e-10,1.97805235718436e-12)
(1.11124284425186e-11,-1.11289309892111e-09,8.51147748618024e-13)
(0,0,0)
(0,0,0)
(0,0,0)
(0,0,0)
(0,0,0)
(0,0,0)
(-2.62265372409806e-12,-1.05570954106646e-11,5.07297512462256e-11)
(-3.45369800566747e-12,-2.32492238842001e-11,4.8900546338069e-11)
(-4.06236449153167e-12,-4.02263864437067e-11,4.58106617959102e-11)
(-4.41601934913282e-12,-6.51868220627853e-11,4.07690522141738e-11)
(-3.92539153402878e-12,-1.04098043062681e-10,3.35297110567847e-11)
(-2.21886737135634e-12,-1.66756549904736e-10,2.47654052923318e-11)
(1.52766359550509e-12,-2.70352383389285e-10,1.61045720340099e-11)
(7.05585204836502e-12,-4.41890949779663e-10,1.03338087871929e-11)
(1.10819970346582e-11,-7.21794736616822e-10,6.79828253535192e-12)
(1.34574818429949e-11,-1.11249260382526e-09,3.42570682114613e-12)
(0,0,0)
(0,0,0)
(0,0,0)
(0,0,0)
(0,0,0)
(0,0,0)
(-3.03349432475098e-12,-9.27401425204924e-12,7.95554177915496e-11)
(-5.10017381440065e-12,-2.05776761426417e-11,7.78952255139858e-11)
(-7.34925223626002e-12,-3.54066789516682e-11,7.40766747469349e-11)
(-8.42546229721075e-12,-5.76544315635529e-11,6.75278183584185e-11)
(-7.92650414100346e-12,-9.47912862973659e-11,5.87435763160033e-11)
(-5.6204784487632e-12,-1.5763018694473e-10,4.83026825276826e-11)
(-1.71828255001274e-12,-2.64138382794349e-10,3.73334820560047e-11)
(4.58158381083927e-12,-4.38693305271039e-10,2.73890004842768e-11)
(9.21961066402529e-12,-7.19096360023865e-10,1.8478731001039e-11)
(1.1578845948253e-11,-1.10959526230559e-09,9.51990609522524e-12)
(0,0,0)
(0,0,0)
(0,0,0)
(0,0,0)
(0,0,0)
(0,0,0)
(-4.58142840442552e-12,-7.68965217962768e-12,1.20557256704266e-10)
(-7.90318232815142e-12,-1.68447832175864e-11,1.18191502216434e-10)
(-1.03896169509211e-11,-2.91864131294264e-11,1.13848414839642e-10)
(-1.17767849484655e-11,-4.857112871467e-11,1.07653092402112e-10)
(-1.09580771219215e-11,-8.31129295598345e-11,9.94372754445754e-11)
(-7.91224449416424e-12,-1.44772831209181e-10,8.92629890623698e-11)
(-4.60984895430421e-12,-2.53395132614547e-10,7.7597197404451e-11)
(-1.10231303885767e-12,-4.31173625053174e-10,6.15084149998663e-11)
(1.73688186842828e-12,-7.11632588656783e-10,4.29537050174643e-11)
(3.02708987370187e-12,-1.10110779114538e-09,2.23936846689856e-11)
(0,0,0)
(0,0,0)
(0,0,0)
(0,0,0)
(0,0,0)
(0,0,0)
(-5.36168700871963e-12,-5.61294284798369e-12,1.81430665445441e-10)
(-1.08519479986255e-11,-1.26879468073978e-11,1.79011241714763e-10)
(-1.38820328717629e-11,-2.28193949604263e-11,1.7510358012996e-10)
(-1.54993091809815e-11,-3.91872190838322e-11,1.69841093617334e-10)
(-1.5653418243152e-11,-7.03369458601069e-11,1.6265343841129e-10)
(-1.26407407901363e-11,-1.30080049462975e-10,1.52579198251529e-10)
(-8.69950355300438e-12,-2.39726212490596e-10,1.379970423194e-10)
(-6.93648186899134e-12,-4.16128851029407e-10,1.15094579052491e-10)
(-6.41565736122168e-12,-6.93696899430011e-10,8.33671925308527e-11)
(-5.96575552311572e-12,-1.080817414438e-09,4.44270537167833e-11)
(0,0,0)
(0,0,0)
(0,0,0)
(0,0,0)
(0,0,0)
(0,0,0)
(-5.49774761506541e-12,-3.50433515134168e-12,2.78880246015154e-10)
(-1.29700956051603e-11,-9.08021702588681e-12,2.77281267466969e-10)
(-1.72080821303755e-11,-1.73300381007059e-11,2.74257301373584e-10)
(-1.89198106210111e-11,-3.10228485894131e-11,2.7003132406134e-10)
(-1.94409425950176e-11,-5.85240728103696e-11,2.63918456534722e-10)
(-1.67222789765378e-11,-1.14063734817318e-10,2.53142451341314e-10)
(-1.34416983778446e-11,-2.19359208697836e-10,2.32583083377301e-10)
(-1.23677183375397e-11,-3.87934632972657e-10,2.00252946330779e-10)
(-1.35850153576042e-11,-6.57573475601707e-10,1.49710629889223e-10)
(-1.4102286703394e-11,-1.03886393502991e-09,8.17134522441171e-11)
(0,0,0)
(0,0,0)
(0,0,0)
(0,0,0)
(0,0,0)
(0,0,0)
(-5.8680069681956e-12,-2.38021294477289e-12,4.43366937103548e-10)
(-1.38909039742749e-11,-6.88960190568842e-12,4.42561002798617e-10)
(-1.86696107861549e-11,-1.3433967561126e-11,4.39792619197776e-10)
(-2.02759663889708e-11,-2.49325423573189e-11,4.35721621615345e-10)
(-2.08984054069841e-11,-4.88025842328998e-11,4.29324555902985e-10)
(-2.03461693805404e-11,-9.76120527999097e-11,4.16679244072351e-10)
(-1.94136005884975e-11,-1.88584410374116e-10,3.90798131503071e-10)
(-1.9597317434837e-11,-3.38672144281662e-10,3.43173516123179e-10)
(-2.13281134655395e-11,-5.91016218393212e-10,2.65421862341956e-10)
(-2.11954462705439e-11,-9.58971994295501e-10,1.50321955357666e-10)
(0,0,0)
(0,0,0)
(0,0,0)
(0,0,0)
(0,0,0)
(0,0,0)
(-7.40096717292951e-12,-1.15172610854141e-12,7.20337453808681e-10)
(-1.52321835386867e-11,-4.32563478026325e-12,7.19589728707345e-10)
(-1.98798910861115e-11,-9.3461201005363e-12,7.16944750667616e-10)
(-2.21761055774822e-11,-1.80233810479903e-11,7.12750747149487e-10)
(-2.28762606258389e-11,-3.6012596089852e-11,7.04996313371241e-10)
(-2.3003946165589e-11,-7.30543472086317e-11,6.8887278098168e-10)
(-2.34092432333794e-11,-1.41323618262207e-10,6.55492658393778e-10)
(-2.46333198771318e-11,-2.61274799328576e-10,5.9151597734901e-10)
(-2.59454238188927e-11,-4.7680972305969e-10,4.78069968078691e-10)
(-2.53741891552233e-11,-8.09587044948558e-10,2.86810476293498e-10)
(0,0,0)
(0,0,0)
(0,0,0)
(0,0,0)
(0,0,0)
(0,0,0)
(-8.74236902738324e-12,-1.78869096272867e-13,1.10932063778058e-09)
(-1.53456747754947e-11,-1.94207454288264e-12,1.10835131366736e-09)
(-1.89862297896778e-11,-5.03047518778203e-12,1.10589066257907e-09)
(-2.16126440240884e-11,-9.58468567492839e-12,1.10159151742187e-09)
(-2.32277173814958e-11,-1.9127596752108e-11,1.09303567926622e-09)
(-2.3559737347183e-11,-3.94459351676452e-11,1.07465019467558e-09)
(-2.48463044552908e-11,-7.71539476258991e-11,1.03569130946016e-09)
(-2.72914804625192e-11,-1.48098474157484e-10,9.58973943129523e-10)
(-2.86991226233534e-11,-2.86500427596664e-10,8.10738860964787e-10)
(-2.86584275005862e-11,-5.23327590944175e-10,5.23563400285137e-10)
(0,0,0)
(0,0,0)
(0,0,0)
(0,0,0)
(0,0,0)
(0,0,0)
(0,0,0)
(0,0,0)
(0,0,0)
(0,0,0)
(0,0,0)
(0,0,0)
(0,0,0)
(0,0,0)
(0,0,0)
(0,0,0)
(0,0,0)
(0,0,0)
(0,0,0)
(0,0,0)
(0,0,0)
(0,0,0)
(0,0,0)
(0,0,0)
(0,0,0)
(0,0,0)
(0,0,0)
(0,0,0)
(0,0,0)
(0,0,0)
(0,0,0)
(0,0,0)
(0,0,0)
(0,0,0)
(0,0,0)
(0,0,0)
(0,0,0)
(0,0,0)
(0,0,0)
(0,0,0)
(0,0,0)
(0,0,0)
(0,0,0)
(0,0,0)
(0,0,0)
(0,0,0)
(0,0,0)
(0,0,0)
(0,0,0)
(0,0,0)
(0,0,0)
(0,0,0)
(0,0,0)
(0,0,0)
(0,0,0)
(0,0,0)
(0,0,0)
(0,0,0)
(0,0,0)
(0,0,0)
(0,0,0)
(0,0,0)
(0,0,0)
(0,0,0)
(0,0,0)
(0,0,0)
(0,0,0)
(0,0,0)
(0,0,0)
(0,0,0)
(0,0,0)
(0,0,0)
(0,0,0)
(0,0,0)
(0,0,0)
(0,0,0)
(0,0,0)
(0,0,0)
(0,0,0)
(0,0,0)
(0,0,0)
(0,0,0)
(0,0,0)
(0,0,0)
(0,0,0)
(0,0,0)
(0,0,0)
(0,0,0)
(0,0,0)
(0,0,0)
(0,0,0)
(0,0,0)
(0,0,0)
(0,0,0)
(0,0,0)
(0,0,0)
(0,0,0)
(0,0,0)
(0,0,0)
(0,0,0)
(0,0,0)
(0,0,0)
(1.33320348213373e-13,-2.28534629873521e-11,2.40222051650826e-11)
(-9.08537012620419e-13,-4.89474582948335e-11,2.30949096154884e-11)
(-1.20603614182939e-12,-8.40989681268995e-11,2.0796976970115e-11)
(-6.89240034399225e-13,-1.33548605543083e-10,1.74797280127894e-11)
(-1.60064853600016e-13,-2.04577062405369e-10,1.27517940165566e-11)
(4.70742262937534e-13,-3.11410110464174e-10,6.98202861048251e-12)
(1.49759649151152e-12,-4.82282334684998e-10,1.71503019338747e-12)
(3.00566237304143e-12,-7.75011564350987e-10,-7.85778930436607e-13)
(4.38554188102712e-12,-1.33494333417437e-09,-1.26880496596496e-12)
(5.34583874517016e-12,-2.61832524804629e-09,-9.83316677490971e-13)
(0,0,0)
(0,0,0)
(0,0,0)
(0,0,0)
(0,0,0)
(0,0,0)
(-4.82766821095336e-13,-2.2051633133057e-11,5.4012231442852e-11)
(-1.54024095606174e-12,-4.72320245681158e-11,5.20392331943622e-11)
(-1.80601160670447e-12,-8.08783241925873e-11,4.76099620037977e-11)
(-1.98910968814253e-12,-1.28437201340159e-10,4.07652097518251e-11)
(-1.17802838117992e-12,-1.9851899482917e-10,3.05865915085982e-11)
(3.85965050228192e-13,-3.06320419601107e-10,1.79931639681375e-11)
(2.33292485611568e-12,-4.80270735869925e-10,6.47770229435726e-12)
(5.73209481986343e-12,-7.75117758254303e-10,9.90642561495351e-13)
(9.1032325306634e-12,-1.33541311074076e-09,-2.70558365846571e-13)
(1.15630810953459e-11,-2.61941722973469e-09,-4.04845513110464e-13)
(0,0,0)
(0,0,0)
(0,0,0)
(0,0,0)
(0,0,0)
(0,0,0)
(-2.07652997455543e-12,-2.01357976773537e-11,9.17807088195362e-11)
(-3.03536120506225e-12,-4.32141228488535e-11,8.92100997938982e-11)
(-3.84046240181213e-12,-7.41060644715632e-11,8.34771825069402e-11)
(-4.7090686909786e-12,-1.18079900968646e-10,7.32153094873057e-11)
(-4.46784253494355e-12,-1.85915046728224e-10,5.78312321442797e-11)
(-2.68439707301164e-12,-2.95107550910656e-10,3.82448113491772e-11)
(1.08442624739445e-12,-4.75388939694453e-10,1.9418640713949e-11)
(7.3937337914015e-12,-7.75400677808464e-10,1.05808695707725e-11)
(1.17561961557921e-11,-1.33655708606801e-09,6.97623731359239e-12)
(1.39858471443556e-11,-2.62080751248193e-09,3.74879798141751e-12)
(0,0,0)
(0,0,0)
(0,0,0)
(0,0,0)
(0,0,0)
(0,0,0)
(-2.95766411960902e-12,-1.77818706152456e-11,1.44891435482597e-10)
(-5.01451597240592e-12,-3.78343093060676e-11,1.41626153075584e-10)
(-7.02066166999178e-12,-6.42479689465407e-11,1.34165127393913e-10)
(-8.72452310366982e-12,-1.02671734730596e-10,1.21274458914504e-10)
(-9.16396709022723e-12,-1.65944886918903e-10,1.02995632177169e-10)
(-7.5086337126082e-12,-2.75379229877637e-10,7.96491743010997e-11)
(-2.51705115808116e-12,-4.64896446831029e-10,5.50767401629137e-11)
(5.97217307623868e-12,-7.74159551902773e-10,3.99592729695107e-11)
(1.07146642033674e-11,-1.3360902175125e-09,2.83163566299248e-11)
(1.26112808841167e-11,-2.61888202488462e-09,1.52490079025378e-11)
(0,0,0)
(0,0,0)
(0,0,0)
(0,0,0)
(0,0,0)
(0,0,0)
(-4.29238324823785e-12,-1.44460976143572e-11,2.17760055730184e-10)
(-7.71693136155086e-12,-3.02674037530415e-11,2.13748658732804e-10)
(-1.05613126823946e-11,-5.15503679200082e-11,2.0585832561791e-10)
(-1.2944877621777e-11,-8.36519156121877e-11,1.93813560571695e-10)
(-1.35597744394129e-11,-1.39717719074025e-10,1.77303360029938e-10)
(-1.09392345825145e-11,-2.44585440228348e-10,1.57291760595171e-10)
(-2.18998667364864e-12,-4.40891330713582e-10,1.39243036377235e-10)
(2.40762291989425e-12,-7.6608927363111e-10,1.07498927578914e-10)
(4.36121298992601e-12,-1.32752327750721e-09,7.50077914779327e-11)
(5.1303978347417e-12,-2.60690844820202e-09,3.91955456626049e-11)
(0,0,0)
(0,0,0)
(0,0,0)
(0,0,0)
(0,0,0)
(0,0,0)
(-5.05087097468222e-12,-1.04786923554751e-11,3.23223472074681e-10)
(-1.05520161953374e-11,-2.22106451038212e-11,3.19663419044419e-10)
(-1.41089032188623e-11,-3.87778946809137e-11,3.1320194879586e-10)
(-1.64760244693478e-11,-6.43351152684928e-11,3.03575456864733e-10)
(-1.73920511331155e-11,-1.12502185651737e-10,2.90385984122851e-10)
(-1.40748995036865e-11,-2.13589901756424e-10,2.72636631638244e-10)
(-6.16404407884541e-12,-4.20125009499439e-10,2.49932003538799e-10)
(-3.40331340420509e-12,-7.4388885173741e-10,2.07443122666658e-10)
(-3.59894237549147e-12,-1.29835524010956e-09,1.49060554346984e-10)
(-3.49218121380056e-12,-2.57231800332435e-09,7.86559930506783e-11)
(0,0,0)
(0,0,0)
(0,0,0)
(0,0,0)
(0,0,0)
(0,0,0)
(-5.02289127345066e-12,-6.96786483212746e-12,4.897875338352e-10)
(-1.21367446319711e-11,-1.56046597700712e-11,4.87381299734125e-10)
(-1.68781753577064e-11,-2.80182023425024e-11,4.82664348271623e-10)
(-1.88972493264937e-11,-4.78596809783405e-11,4.75763005246853e-10)
(-1.8386425979053e-11,-8.79740847160393e-11,4.66781907306609e-10)
(-1.26145930299193e-11,-1.79466436995364e-10,4.51490068367721e-10)
(-1.18863596550383e-11,-3.85191882608063e-10,4.1303045612888e-10)
(-1.10878905870931e-11,-6.9452476429686e-10,3.61196786027527e-10)
(-1.21450949210477e-11,-1.23402594901552e-09,2.66894759682936e-10)
(-1.2280775193362e-11,-2.49801654932539e-09,1.4397266323807e-10)
(0,0,0)
(0,0,0)
(0,0,0)
(0,0,0)
(0,0,0)
(0,0,0)
(-6.29055949949521e-12,-4.53367816104635e-12,7.76128115330165e-10)
(-1.36864874988582e-11,-1.10673766958487e-11,7.74366734296171e-10)
(-1.86864606643106e-11,-2.06311855571728e-11,7.70079095186816e-10)
(-2.07880619859459e-11,-3.77880674121462e-11,7.63935816183728e-10)
(-2.10430817194248e-11,-7.50591019883523e-11,7.55369351978017e-10)
(-1.90227624025045e-11,-1.59813607907703e-10,7.38493119450591e-10)
(-1.90497773204792e-11,-3.3376452053768e-10,6.97566223668264e-10)
(-1.92430086068513e-11,-6.02502927997213e-10,6.12073767119106e-10)
(-2.0434701814614e-11,-1.11392902586768e-09,4.71237386430832e-10)
(-2.02584402601902e-11,-2.35671943625956e-09,2.67689047543687e-10)
(0,0,0)
(0,0,0)
(0,0,0)
(0,0,0)
(0,0,0)
(0,0,0)
(-7.62609908386168e-12,-2.63046703545895e-12,1.33054341906554e-09)
(-1.49707657363376e-11,-7.21268495843362e-12,1.32894961736774e-09)
(-2.00015324807333e-11,-1.43441056792715e-11,1.32508896067608e-09)
(-2.28603671722889e-11,-2.81268017642178e-11,1.31868268765868e-09)
(-2.36377275740092e-11,-5.81622123236579e-11,1.30707317741901e-09)
(-2.32322356186894e-11,-1.22962338293676e-10,1.28227384265977e-09)
(-2.36022328249057e-11,-2.47859925403788e-10,1.22728901013802e-09)
(-2.43636357779061e-11,-4.62256925969495e-10,1.11501011002344e-09)
(-2.499522749673e-11,-9.12211771397247e-10,9.1546709649596e-10)
(-2.48231668663351e-11,-2.09082134978588e-09,5.71454011117658e-10)
(0,0,0)
(0,0,0)
(0,0,0)
(0,0,0)
(0,0,0)
(0,0,0)
(-7.95191401043645e-12,-1.10093007043121e-12,2.61281695400617e-09)
(-1.48270982300892e-11,-3.72318855350868e-12,2.61132840144408e-09)
(-1.97175598202633e-11,-7.77403763725463e-12,2.60750599043679e-09)
(-2.26414915433659e-11,-1.53662832275761e-11,2.60045918078845e-09)
(-2.39698295429774e-11,-3.20400128169421e-11,2.58644517931328e-09)
(-2.40467872994215e-11,-6.72780352684949e-11,2.5555331296329e-09)
(-2.52828857505782e-11,-1.34643678682107e-10,2.48941839629611e-09)
(-2.71548724552338e-11,-2.63090523458278e-10,2.3557442262801e-09)
(-2.80240895403716e-11,-5.69869848807382e-10,2.09249393170352e-09)
(-2.84226181595091e-11,-1.52094308659144e-09,1.52175395196364e-09)
(0,0,0)
(0,0,0)
(0,0,0)
(0,0,0)
(0,0,0)
(0,0,0)
(0,0,0)
(0,0,0)
(0,0,0)
(0,0,0)
(0,0,0)
(0,0,0)
(0,0,0)
(0,0,0)
(0,0,0)
(0,0,0)
(0,0,0)
(0,0,0)
(0,0,0)
(0,0,0)
(0,0,0)
(0,0,0)
(0,0,0)
(0,0,0)
(0,0,0)
(0,0,0)
(0,0,0)
(0,0,0)
(0,0,0)
(0,0,0)
(0,0,0)
(0,0,0)
(0,0,0)
(0,0,0)
(0,0,0)
(0,0,0)
(0,0,0)
(0,0,0)
(0,0,0)
(0,0,0)
(0,0,0)
(0,0,0)
(0,0,0)
(0,0,0)
(0,0,0)
(0,0,0)
(0,0,0)
(0,0,0)
(0,0,0)
(0,0,0)
(0,0,0)
(0,0,0)
(0,0,0)
(0,0,0)
(0,0,0)
(0,0,0)
(0,0,0)
(0,0,0)
(0,0,0)
(0,0,0)
(0,0,0)
(0,0,0)
(0,0,0)
(0,0,0)
(0,0,0)
(0,0,0)
(0,0,0)
(0,0,0)
(0,0,0)
(0,0,0)
(0,0,0)
(0,0,0)
(0,0,0)
(0,0,0)
(0,0,0)
(0,0,0)
(0,0,0)
(0,0,0)
(0,0,0)
(0,0,0)
(0,0,0)
(0,0,0)
(0,0,0)
(0,0,0)
(0,0,0)
(0,0,0)
(0,0,0)
(0,0,0)
(0,0,0)
(0,0,0)
(0,0,0)
(0,0,0)
(0,0,0)
(0,0,0)
(0,0,0)
(0,0,0)
(0,0,0)
(0,0,0)
(0,0,0)
(0,0,0)
(0,0,0)
(0,0,0)
(2.58786043053246e-13,-3.14680488212863e-11,3.32121345710107e-11)
(-3.26038094241118e-13,-6.62156312587325e-11,3.18120902249936e-11)
(-1.10943111823836e-12,-1.11070033114117e-10,2.8349552492126e-11)
(-1.07271024103754e-12,-1.72217710408429e-10,2.2889443203222e-11)
(-4.48367023843332e-13,-2.59697545620969e-10,1.51662136782566e-11)
(6.48049817234089e-13,-3.86227713270901e-10,5.89516206756754e-12)
(1.98680679980875e-12,-5.70812554428681e-10,-2.64803722456196e-12)
(3.59488231174565e-12,-8.39608353091558e-10,-5.54527742729626e-12)
(4.56983015925334e-12,-1.2229128144691e-09,-4.59015768266924e-12)
(5.45450375542269e-12,-1.68948805145633e-09,-2.46931040724775e-12)
(0,0,0)
(0,0,0)
(0,0,0)
(0,0,0)
(0,0,0)
(0,0,0)
(-4.2560402833337e-13,-2.98007651999733e-11,7.30625899469077e-11)
(-1.12887148500752e-12,-6.29611335436522e-11,7.03141772633105e-11)
(-1.73351907750353e-12,-1.06021615036022e-10,6.37558368436886e-11)
(-2.16779181575871e-12,-1.64885229192386e-10,5.29045024589935e-11)
(-1.18854894108696e-12,-2.50885547760939e-10,3.64371635672202e-11)
(6.88558033003467e-13,-3.7866233974113e-10,1.50589869699355e-11)
(2.93818841318179e-12,-5.69359130976523e-10,-5.60359695138766e-12)
(7.27621530214637e-12,-8.42162950717072e-10,-1.11224664855278e-11)
(1.0381495005493e-11,-1.22594598954058e-09,-8.1140424712913e-12)
(1.25485183298283e-11,-1.69229584277105e-09,-4.02585500251184e-12)
(0,0,0)
(0,0,0)
(0,0,0)
(0,0,0)
(0,0,0)
(0,0,0)
(-1.85984801274024e-12,-2.70036231222628e-11,1.23498376269665e-10)
(-2.68225746014238e-12,-5.66514334927832e-11,1.19333396324141e-10)
(-3.43668490646697e-12,-9.54611154238387e-11,1.10407922146954e-10)
(-4.73315758648634e-12,-1.48977595834404e-10,9.46429235326927e-11)
(-4.85158154953821e-12,-2.30405520704978e-10,6.92671349694358e-11)
(-3.58654747066544e-12,-3.59815398824879e-10,3.29931829728061e-11)
(-5.70295472694529e-13,-5.66635358860662e-10,-6.47899001754636e-12)
(9.7572401425302e-12,-8.49784408508813e-10,-1.17423604327135e-11)
(1.45167669336079e-11,-1.23306983733063e-09,-5.42473644087514e-12)
(1.58091575278228e-11,-1.69772358734209e-09,-1.07142743469639e-12)
(0,0,0)
(0,0,0)
(0,0,0)
(0,0,0)
(0,0,0)
(0,0,0)
(-3.0281547141616e-12,-2.32362613496292e-11,1.91696752045959e-10)
(-5.12039584263538e-12,-4.80564182387184e-11,1.86016514026299e-10)
(-6.82759421771526e-12,-7.98206521596324e-11,1.7475926558283e-10)
(-9.46551548594953e-12,-1.23982824548083e-10,1.5569377064538e-10)
(-1.20446770586206e-11,-1.95122416944207e-10,1.25206589774589e-10)
(-1.37299892230338e-11,-3.21380368898316e-10,7.85792359627171e-11)
(-1.14047000819576e-11,-5.58175195302329e-10,1.70575050341642e-11)
(9.54481114406784e-12,-8.64533728347968e-10,1.43629995172821e-11)
(1.52150729262188e-11,-1.24390792321879e-09,1.77301454838497e-11)
(1.58867121026763e-11,-1.70255485404129e-09,1.24522353754345e-11)
(0,0,0)
(0,0,0)
(0,0,0)
(0,0,0)
(0,0,0)
(0,0,0)
(-4.24839151052405e-12,-1.78648233256091e-11,2.80854638454546e-10)
(-7.88335689518311e-12,-3.70324765519557e-11,2.75156177926178e-10)
(-1.12890208761755e-11,-6.0886032820369e-11,2.64103764747413e-10)
(-1.5751477423699e-11,-9.31361818468987e-11,2.46459248582665e-10)
(-2.07637084254619e-11,-1.46313931490253e-10,2.20205272311225e-10)
(-2.38860488375788e-11,-2.49296983585859e-10,1.87946612169449e-10)
(8.78780090947429e-12,-4.9544337625555e-10,1.90618948709201e-10)
(1.26983371270175e-11,-8.80561188612885e-10,1.24131681525703e-10)
(1.10054214092773e-11,-1.24913612116396e-09,8.48096117267092e-11)
(9.73549861944868e-12,-1.69629251432725e-09,4.4690316282796e-11)
(0,0,0)
(0,0,0)
(0,0,0)
(0,0,0)
(0,0,0)
(0,0,0)
(-5.00164546743057e-12,-1.25811447348093e-11,4.04294813936836e-10)
(-1.06965312809522e-11,-2.63237014783646e-11,3.99599113983971e-10)
(-1.52421036259836e-11,-4.26461443988618e-11,3.90484266868297e-10)
(-1.97619860162511e-11,-6.32653770436234e-11,3.76979721462708e-10)
(-2.41707995852114e-11,-9.99760349955054e-11,3.58780784629037e-10)
(-2.54937361654088e-11,-1.93380781345098e-10,3.35594265468649e-10)
(1.39170990278243e-12,-4.95801978520376e-10,3.30450848254986e-10)
(5.61516747407623e-12,-8.68880253288436e-10,2.62130925575377e-10)
(2.47632782740926e-12,-1.22167158627645e-09,1.83238701487423e-10)
(8.62357837173938e-13,-1.65861762589543e-09,9.46938218673691e-11)
(0,0,0)
(0,0,0)
(0,0,0)
(0,0,0)
(0,0,0)
(0,0,0)
(-5.0508438419341e-12,-8.20800126263661e-12,5.81096898760636e-10)
(-1.19570762454276e-11,-1.73179077262473e-11,5.78021323471439e-10)
(-1.73638491179608e-11,-2.73117865374766e-11,5.72165446282748e-10)
(-1.99877649525658e-11,-3.85949910483724e-11,5.65155103369096e-10)
(-1.60095697675549e-11,-5.7095086196523e-11,5.61606288916004e-10)
(6.1921901214841e-12,-1.15546344052586e-10,5.63698121148571e-10)
(-1.14800516241077e-11,-4.60547117028225e-10,4.84165394119894e-10)
(-8.80770054299595e-12,-8.1338982463872e-10,4.67282144131412e-10)
(-9.31992162363223e-12,-1.14368964232792e-09,3.26054897979033e-10)
(-9.60522502106218e-12,-1.56944910322182e-09,1.68036364729931e-10)
(0,0,0)
(0,0,0)
(0,0,0)
(0,0,0)
(0,0,0)
(0,0,0)
(-6.43238959023349e-12,-4.96106825977455e-12,8.40025333764027e-10)
(-1.3253540126846e-11,-1.11830485441691e-11,8.37620333927411e-10)
(-1.88302615399926e-11,-1.8581999504424e-11,8.33386023780848e-10)
(-2.18828634270708e-11,-3.05230268988244e-11,8.28806889515004e-10)
(-2.10637388575873e-11,-5.95642611574546e-11,8.27035342463627e-10)
(-1.49471362337068e-11,-1.50128040624864e-10,8.27978840113966e-10)
(-1.94619159055486e-11,-4.18172992704734e-10,8.03547279765267e-10)
(-1.86526299470751e-11,-6.72662759931487e-10,6.85301063755948e-10)
(-1.86036173980014e-11,-9.88933471504682e-10,5.00248626568242e-10)
(-1.84674791894744e-11,-1.40407666548463e-09,2.69740156832247e-10)
(0,0,0)
(0,0,0)
(0,0,0)
(0,0,0)
(0,0,0)
(0,0,0)
(-7.56183435153113e-12,-2.85624079658974e-12,1.21535374782007e-09)
(-1.45996054501125e-11,-7.09089163215467e-12,1.21315588915953e-09)
(-2.01653275041872e-11,-1.29174622734197e-11,1.20938370147825e-09)
(-2.40113754696738e-11,-2.52200948271915e-11,1.20376889929456e-09)
(-2.4960592321005e-11,-5.55906880012679e-11,1.19497536689323e-09)
(-2.39317061223136e-11,-1.31796797768309e-10,1.17639292575414e-09)
(-2.45395794313966e-11,-2.92841350826888e-10,1.12311342896029e-09)
(-2.3987024763003e-11,-4.85997666070808e-10,9.86574941045505e-10)
(-2.33240647073294e-11,-7.59415031114381e-10,7.63320609160038e-10)
(-2.32474189435298e-11,-1.13556914182463e-09,4.37909414545417e-10)
(0,0,0)
(0,0,0)
(0,0,0)
(0,0,0)
(0,0,0)
(0,0,0)
(-7.56429151999178e-12,-1.32121186971583e-12,1.67956908270018e-09)
(-1.47278757763521e-11,-3.70829952033879e-12,1.67755993415696e-09)
(-2.04447878089803e-11,-6.98110449484009e-12,1.67341138847789e-09)
(-2.39937732954257e-11,-1.47506332775637e-11,1.66627529329163e-09)
(-2.50977926793903e-11,-3.34144470547952e-11,1.65216589996112e-09)