/*--------------------------------*- C++ -*----------------------------------*\
| =========                 |                                                 |
| \\      /  F ield         | foam-extend: Open Source CFD                    |
|  \\    /   O peration     | Version:     4.0                                |
|   \\  /    A nd           | Web:         http://www.foam-extend.org         |
|    \\/     M anipulation  |                                                 |
\*---------------------------------------------------------------------------*/
FoamFile
{
    version 2.0;
    format ascii;
    class volVectorField;
    location "2240";
    object      E;
}
// * * * * * * * * * * * * * * * * * * * * * * * * * * * * * * * * * * * * * //

dimensions      [0 1 -1 0 0 0 0];

internalField   nonuniform List<vector>
4096
(
(0,0,0)
(0,0,0)
(0,0,0)
(0,0,0)
(0,0,0)
(0,0,0)
(0,0,0)
(0,0,0)
(0,0,0)
(0,0,0)
(0,0,0)
(0,0,0)
(0,0,0)
(0,0,0)
(0,0,0)
(0,0,0)
(0,0,0)
(0,0,0)
(0,0,0)
(0,0,0)
(0,0,0)
(0,0,0)
(0,0,0)
(0,0,0)
(0,0,0)
(0,0,0)
(0,0,0)
(0,0,0)
(0,0,0)
(0,0,0)
(0,0,0)
(0,0,0)
(0,0,0)
(0,0,0)
(0,0,0)
(0,0,0)
(0,0,0)
(0,0,0)
(0,0,0)
(0,0,0)
(0,0,0)
(0,0,0)
(0,0,0)
(0,0,0)
(0,0,0)
(0,0,0)
(0,0,0)
(0,0,0)
(0,0,0)
(0,0,0)
(0,0,0)
(0,0,0)
(0,0,0)
(0,0,0)
(0,0,0)
(0,0,0)
(0,0,0)
(0,0,0)
(0,0,0)
(0,0,0)
(0,0,0)
(0,0,0)
(0,0,0)
(0,0,0)
(0,0,0)
(0,0,0)
(0,0,0)
(0,0,0)
(0,0,0)
(0,0,0)
(0,0,0)
(0,0,0)
(0,0,0)
(0,0,0)
(0,0,0)
(0,0,0)
(0,0,0)
(0,0,0)
(0,0,0)
(0,0,0)
(0,0,0)
(0,0,0)
(0,0,0)
(0,0,0)
(0,0,0)
(0,0,0)
(0,0,0)
(0,0,0)
(0,0,0)
(0,0,0)
(0,0,0)
(0,0,0)
(0,0,0)
(0,0,0)
(0,0,0)
(0,0,0)
(0,0,0)
(0,0,0)
(0,0,0)
(0,0,0)
(0,0,0)
(0,0,0)
(0,0,0)
(0,0,0)
(0,0,0)
(0,0,0)
(0,0,0)
(0,0,0)
(0,0,0)
(0,0,0)
(0,0,0)
(0,0,0)
(0,0,0)
(0,0,0)
(0,0,0)
(0,0,0)
(0,0,0)
(0,0,0)
(0,0,0)
(0,0,0)
(0,0,0)
(0,0,0)
(0,0,0)
(0,0,0)
(0,0,0)
(0,0,0)
(0,0,0)
(0,0,0)
(0,0,0)
(0,0,0)
(0,0,0)
(0,0,0)
(0,0,0)
(0,0,0)
(0,0,0)
(0,0,0)
(0,0,0)
(0,0,0)
(0,0,0)
(0,0,0)
(0,0,0)
(0,0,0)
(0,0,0)
(0,0,0)
(0,0,0)
(0,0,0)
(0,0,0)
(0,0,0)
(0,0,0)
(0,0,0)
(0,0,0)
(0,0,0)
(0,0,0)
(0,0,0)
(0,0,0)
(0,0,0)
(0,0,0)
(0,0,0)
(0,0,0)
(0,0,0)
(0,0,0)
(0,0,0)
(0,0,0)
(0,0,0)
(0,0,0)
(0,0,0)
(0,0,0)
(0,0,0)
(0,0,0)
(0,0,0)
(0,0,0)
(0,0,0)
(0,0,0)
(0,0,0)
(0,0,0)
(0,0,0)
(0,0,0)
(0,0,0)
(0,0,0)
(0,0,0)
(0,0,0)
(0,0,0)
(0,0,0)
(0,0,0)
(0,0,0)
(0,0,0)
(0,0,0)
(0,0,0)
(0,0,0)
(0,0,0)
(0,0,0)
(0,0,0)
(0,0,0)
(0,0,0)
(0,0,0)
(0,0,0)
(0,0,0)
(0,0,0)
(0,0,0)
(0,0,0)
(0,0,0)
(0,0,0)
(0,0,0)
(0,0,0)
(0,0,0)
(0,0,0)
(0,0,0)
(0,0,0)
(0,0,0)
(0,0,0)
(0,0,0)
(0,0,0)
(0,0,0)
(0,0,0)
(0,0,0)
(0,0,0)
(0,0,0)
(0,0,0)
(0,0,0)
(0,0,0)
(0,0,0)
(0,0,0)
(0,0,0)
(0,0,0)
(0,0,0)
(0,0,0)
(0,0,0)
(0,0,0)
(0,0,0)
(0,0,0)
(0,0,0)
(0,0,0)
(0,0,0)
(0,0,0)
(0,0,0)
(0,0,0)
(0,0,0)
(0,0,0)
(0,0,0)
(0,0,0)
(0,0,0)
(0,0,0)
(0,0,0)
(0,0,0)
(0,0,0)
(0,0,0)
(0,0,0)
(0,0,0)
(0,0,0)
(0,0,0)
(0,0,0)
(0,0,0)
(0,0,0)
(0,0,0)
(0,0,0)
(0,0,0)
(0,0,0)
(0,0,0)
(0,0,0)
(0,0,0)
(0,0,0)
(0,0,0)
(0,0,0)
(0,0,0)
(0,0,0)
(0,0,0)
(0,0,0)
(0,0,0)
(0,0,0)
(0,0,0)
(0,0,0)
(0,0,0)
(0,0,0)
(0,0,0)
(0,0,0)
(0,0,0)
(0,0,0)
(0,0,0)
(0,0,0)
(0,0,0)
(0,0,0)
(0,0,0)
(0,0,0)
(0,0,0)
(0,0,0)
(0,0,0)
(0,0,0)
(0,0,0)
(0,0,0)
(0,0,0)
(0,0,0)
(0,0,0)
(0,0,0)
(0,0,0)
(0,0,0)
(0,0,0)
(0,0,0)
(0,0,0)
(0,0,0)
(0,0,0)
(0,0,0)
(0,0,0)
(0,0,0)
(0,0,0)
(0,0,0)
(0,0,0)
(0,0,0)
(0,0,0)
(0,0,0)
(0,0,0)
(0,0,0)
(0,0,0)
(0,0,0)
(0,0,0)
(0,0,0)
(0,0,0)
(0,0,0)
(0,0,0)
(0,0,0)
(0,0,0)
(0,0,0)
(0,0,0)
(0,0,0)
(0,0,0)
(0,0,0)
(0,0,0)
(0,0,0)
(0,0,0)
(0,0,0)
(0,0,0)
(0,0,0)
(0,0,0)
(0,0,0)
(0,0,0)
(0,0,0)
(0,0,0)
(0,0,0)
(0,0,0)
(0,0,0)
(0,0,0)
(0,0,0)
(0,0,0)
(0,0,0)
(0,0,0)
(0,0,0)
(0,0,0)
(0,0,0)
(0,0,0)
(0,0,0)
(0,0,0)
(0,0,0)
(0,0,0)
(0,0,0)
(0,0,0)
(0,0,0)
(0,0,0)
(0,0,0)
(0,0,0)
(0,0,0)
(0,0,0)
(0,0,0)
(0,0,0)
(0,0,0)
(0,0,0)
(0,0,0)
(0,0,0)
(0,0,0)
(0,0,0)
(0,0,0)
(0,0,0)
(0,0,0)
(0,0,0)
(0,0,0)
(0,0,0)
(0,0,0)
(0,0,0)
(0,0,0)
(0,0,0)
(0,0,0)
(0,0,0)
(0,0,0)
(0,0,0)
(0,0,0)
(0,0,0)
(0,0,0)
(0,0,0)
(0,0,0)
(0,0,0)
(0,0,0)
(0,0,0)
(0,0,0)
(0,0,0)
(0,0,0)
(0,0,0)
(0,0,0)
(0,0,0)
(0,0,0)
(0,0,0)
(0,0,0)
(0,0,0)
(0,0,0)
(0,0,0)
(0,0,0)
(0,0,0)
(0,0,0)
(0,0,0)
(0,0,0)
(0,0,0)
(0,0,0)
(0,0,0)
(0,0,0)
(0,0,0)
(0,0,0)
(0,0,0)
(0,0,0)
(0,0,0)
(0,0,0)
(0,0,0)
(0,0,0)
(0,0,0)
(0,0,0)
(0,0,0)
(0,0,0)
(0,0,0)
(0,0,0)
(0,0,0)
(0,0,0)
(0,0,0)
(0,0,0)
(0,0,0)
(0,0,0)
(0,0,0)
(0,0,0)
(0,0,0)
(0,0,0)
(0,0,0)
(0,0,0)
(0,0,0)
(0,0,0)
(0,0,0)
(0,0,0)
(0,0,0)
(0,0,0)
(0,0,0)
(0,0,0)
(0,0,0)
(0,0,0)
(0,0,0)
(0,0,0)
(0,0,0)
(0,0,0)
(0,0,0)
(0,0,0)
(0,0,0)
(0,0,0)
(0,0,0)
(0,0,0)
(0,0,0)
(0,0,0)
(0,0,0)
(0,0,0)
(0,0,0)
(0,0,0)
(0,0,0)
(0,0,0)
(0,0,0)
(0,0,0)
(0,0,0)
(0,0,0)
(0,0,0)
(0,0,0)
(0,0,0)
(0,0,0)
(0,0,0)
(0,0,0)
(0,0,0)
(0,0,0)
(0,0,0)
(0,0,0)
(0,0,0)
(0,0,0)
(0,0,0)
(0,0,0)
(0,0,0)
(0,0,0)
(0,0,0)
(0,0,0)
(0,0,0)
(0,0,0)
(0,0,0)
(0,0,0)
(0,0,0)
(0,0,0)
(0,0,0)
(0,0,0)
(0,0,0)
(0,0,0)
(0,0,0)
(0,0,0)
(0,0,0)
(0,0,0)
(0,0,0)
(0,0,0)
(0,0,0)
(0,0,0)
(0,0,0)
(0,0,0)
(0,0,0)
(0,0,0)
(0,0,0)
(0,0,0)
(0,0,0)
(0,0,0)
(0,0,0)
(0,0,0)
(0,0,0)
(0,0,0)
(0,0,0)
(0,0,0)
(0,0,0)
(0,0,0)
(0,0,0)
(0,0,0)
(0,0,0)
(0,0,0)
(0,0,0)
(0,0,0)
(0,0,0)
(0,0,0)
(0,0,0)
(0,0,0)
(0,0,0)
(0,0,0)
(0,0,0)
(0,0,0)
(0,0,0)
(0,0,0)
(0,0,0)
(0,0,0)
(0,0,0)
(0,0,0)
(0,0,0)
(0,0,0)
(0,0,0)
(0,0,0)
(0,0,0)
(0,0,0)
(0,0,0)
(0,0,0)
(0,0,0)
(0,0,0)
(0,0,0)
(0,0,0)
(0,0,0)
(0,0,0)
(0,0,0)
(0,0,0)
(0,0,0)
(0,0,0)
(0,0,0)
(0,0,0)
(0,0,0)
(0,0,0)
(0,0,0)
(0,0,0)
(0,0,0)
(0,0,0)
(0,0,0)
(0,0,0)
(0,0,0)
(0,0,0)
(0,0,0)
(0,0,0)
(0,0,0)
(0,0,0)
(0,0,0)
(0,0,0)
(0,0,0)
(0,0,0)
(0,0,0)
(0,0,0)
(0,0,0)
(0,0,0)
(0,0,0)
(0,0,0)
(0,0,0)
(0,0,0)
(0,0,0)
(0,0,0)
(0,0,0)
(0,0,0)
(0,0,0)
(0,0,0)
(0,0,0)
(0,0,0)
(0,0,0)
(0,0,0)
(0,0,0)
(0,0,0)
(0,0,0)
(0,0,0)
(0,0,0)
(0,0,0)
(0,0,0)
(0,0,0)
(0,0,0)
(0,0,0)
(0,0,0)
(0,0,0)
(0,0,0)
(0,0,0)
(0,0,0)
(0,0,0)
(0,0,0)
(0,0,0)
(0,0,0)
(0,0,0)
(0,0,0)
(0,0,0)
(0,0,0)
(0,0,0)
(0,0,0)
(0,0,0)
(0,0,0)
(0,0,0)
(0,0,0)
(0,0,0)
(0,0,0)
(0,0,0)
(0,0,0)
(0,0,0)
(0,0,0)
(0,0,0)
(0,0,0)
(0,0,0)
(0,0,0)
(0,0,0)
(0,0,0)
(0,0,0)
(0,0,0)
(0,0,0)
(0,0,0)
(0,0,0)
(0,0,0)
(0,0,0)
(0,0,0)
(0,0,0)
(0,0,0)
(0,0,0)
(0,0,0)
(0,0,0)
(0,0,0)
(0,0,0)
(0,0,0)
(0,0,0)
(0,0,0)
(0,0,0)
(0,0,0)
(0,0,0)
(0,0,0)
(0,0,0)
(0,0,0)
(0,0,0)
(0,0,0)
(0,0,0)
(0,0,0)
(0,0,0)
(0,0,0)
(0,0,0)
(0,0,0)
(0,0,0)
(0,0,0)
(0,0,0)
(0,0,0)
(0,0,0)
(0,0,0)
(0,0,0)
(0,0,0)
(0,0,0)
(0,0,0)
(0,0,0)
(0,0,0)
(0,0,0)
(0,0,0)
(0,0,0)
(0,0,0)
(0,0,0)
(0,0,0)
(0,0,0)
(0,0,0)
(0,0,0)
(0,0,0)
(0,0,0)
(0,0,0)
(0,0,0)
(0,0,0)
(0,0,0)
(0,0,0)
(0,0,0)
(0,0,0)
(0,0,0)
(0,0,0)
(0,0,0)
(0,0,0)
(0,0,0)
(0,0,0)
(0,0,0)
(0,0,0)
(0,0,0)
(0,0,0)
(0,0,0)
(0,0,0)
(0,0,0)
(0,0,0)
(0,0,0)
(0,0,0)
(0,0,0)
(0,0,0)
(0,0,0)
(0,0,0)
(0,0,0)
(0,0,0)
(0,0,0)
(0,0,0)
(0,0,0)
(0,0,0)
(0,0,0)
(0,0,0)
(0,0,0)
(0,0,0)
(0,0,0)
(0,0,0)
(0,0,0)
(0,0,0)
(0,0,0)
(0,0,0)
(0,0,0)
(0,0,0)
(0,0,0)
(0,0,0)
(0,0,0)
(0,0,0)
(0,0,0)
(0,0,0)
(0,0,0)
(0,0,0)
(0,0,0)
(0,0,0)
(0,0,0)
(0,0,0)
(0,0,0)
(0,0,0)
(0,0,0)
(0,0,0)
(0,0,0)
(0,0,0)
(0,0,0)
(0,0,0)
(0,0,0)
(0,0,0)
(0,0,0)
(0,0,0)
(0,0,0)
(0,0,0)
(0,0,0)
(0,0,0)
(0,0,0)
(0,0,0)
(0,0,0)
(0,0,0)
(0,0,0)
(0,0,0)
(0,0,0)
(0,0,0)
(0,0,0)
(0,0,0)
(0,0,0)
(0,0,0)
(0,0,0)
(0,0,0)
(0,0,0)
(0,0,0)
(0,0,0)
(0,0,0)
(0,0,0)
(0,0,0)
(0,0,0)
(0,0,0)
(0,0,0)
(0,0,0)
(0,0,0)
(0,0,0)
(0,0,0)
(0,0,0)
(0,0,0)
(0,0,0)
(0,0,0)
(0,0,0)
(0,0,0)
(0,0,0)
(0,0,0)
(0,0,0)
(0,0,0)
(0,0,0)
(0,0,0)
(0,0,0)
(0,0,0)
(0,0,0)
(0,0,0)
(0,0,0)
(0,0,0)
(0,0,0)
(0,0,0)
(0,0,0)
(0,0,0)
(0,0,0)
(0,0,0)
(0,0,0)
(0,0,0)
(-49711.2169009697,26449.8169180424,23261.3999829256)
(-52538.1456514491,25381.9236281748,50417.6220062002)
(-59138.0064598804,23156.999569129,86398.6288969519)
(-71605.6020568028,19557.4703244801,138446.76062928)
(-94184.4819596787,14711.7329230018,217919.509665967)
(-134743.85818989,9154.14234931553,343509.225506532)
(-208160.237216139,4131.04685580885,547538.415866887)
(-340902.321439273,1081.78135483592,887358.955951364)
(-562434.382159332,72.4149322919001,1449720.92317838)
(-783824.113771274,-26.6017294687875,2233571.63867915)
(0,0,0)
(0,0,0)
(0,0,0)
(0,0,0)
(0,0,0)
(0,0,0)
(-52581.951764216,56893.7188333069,22138.0498489499)
(-55438.7742769313,54850.4646895804,48108.2830644805)
(-62142.17548872,50565.8312428272,82841.6268794983)
(-74921.9857574761,43654.8003638211,133666.28259764)
(-98130.0085035946,34110.4174278941,212397.606596332)
(-139644.818415554,22754.417262988,338442.150098212)
(-213854.6593877,12030.0424034187,544397.813938301)
(-346094.919680654,5297.97886288231,886276.536110833)
(-565899.277229331,2670.29210928858,1449577.93616321)
(-785455.481583085,1405.349220229,2233601.46679654)
(0,0,0)
(0,0,0)
(0,0,0)
(0,0,0)
(0,0,0)
(0,0,0)
(-59119.4255322085,95936.9684813998,20076.1758841152)
(-62044.9501627994,93157.0480407461,43814.5426957521)
(-68973.2460939571,87328.4672817419,76025.1527507992)
(-82398.1200711592,77838.4771006733,124239.596085109)
(-107080.955339855,64282.3726748693,201148.596177977)
(-151156.091608778,47299.1659341114,327759.939115631)
(-227918.050548297,30103.0950528566,537604.937014506)
(-359026.1280172,18358.4506680442,883570.593226519)
(-574206.996525929,12171.8500013487,1448276.03186041)
(-789206.870511183,6644.60397401379,2232243.64761787)
(0,0,0)
(0,0,0)
(0,0,0)
(0,0,0)
(0,0,0)
(0,0,0)
(-71326.6219278452,149904.720082086,17358.8703271602)
(-74314.8366823927,146827.789081008,38002.9659692933)
(-81514.6411242249,140305.667928144,66540.4064471093)
(-95878.6244918365,129536.773173063,110720.734866547)
(-123015.017896647,113748.065464821,184270.059973249)
(-172026.232595715,92929.7012369269,310665.757266153)
(-254861.464367024,69786.9292412394,525843.387444788)
(-384038.096120029,50917.6807058106,877322.253526987)
(-589443.171626371,36220.8730383239,1442716.40211635)
(-795829.768758417,19529.0820413493,2225661.69280756)
(0,0,0)
(0,0,0)
(0,0,0)
(0,0,0)
(0,0,0)
(0,0,0)
(-93246.3842312317,228873.641073473,14277.4632398406)
(-96209.5701482897,225872.972369953,31441.8500991822)
(-103538.445074013,219532.740102395,55753.2229989456)
(-118693.332901355,209054.98693732,94928.3421360424)
(-148352.69147376,193526.740967155,163502.358107471)
(-203479.545043791,172304.225659954,287607.378728213)
(-295869.182766714,146248.551694998,507014.939041169)
(-422130.557512188,117440.497839157,862622.679420021)
(-611606.90972556,84431.3050938409,1426019.15709015)
(-805446.749236695,44762.466288093,2206232.52208008)
(0,0,0)
(0,0,0)
(0,0,0)
(0,0,0)
(0,0,0)
(0,0,0)
(-132828.30992007,350405.387479005,11296.5635145415)
(-135632.137824269,347738.11476651,25063.5589422483)
(-142716.436204248,342097.451723194,45215.2835256974)
(-157718.470281504,332683.843898969,79304.8968455502)
(-187688.865314621,318245.198727594,142275.304399736)
(-243857.607149692,296819.227770436,261617.909438966)
(-336517.931988019,266076.563872186,478307.829249809)
(-457050.107544627,223131.819989871,829666.614643722)
(-635677.189116264,163385.42524982,1386389.68360408)
(-817579.124174708,87217.0310589155,2161514.2430078)
(0,0,0)
(0,0,0)
(0,0,0)
(0,0,0)
(0,0,0)
(0,0,0)
(-205444.059867518,547243.083200661,8606.36414586066)
(-207924.546420199,544953.264457221,19315.760875359)
(-214285.651126835,540025.336953163,35673.5267722306)
(-227986.665982242,531596.9951745,64747.0414789448)
(-255818.558007356,517928.988513111,120881.80970078)
(-308607.555188345,495302.631211308,231005.961448248)
(-395604.319241635,457160.638055146,435526.206506933)
(-505212.651231881,393816.791694719,770053.886033971)
(-671611.404844336,294652.508931462,1310398.20719661)
(-837410.116442002,160545.076072765,2074480.27862487)
(0,0,0)
(0,0,0)
(0,0,0)
(0,0,0)
(0,0,0)
(0,0,0)
(-338229.837528864,879184.592850606,6288.3278789188)
(-340207.231443031,877096.371029398,14352.4527497767)
(-345334.256557014,872498.136832409,27213.9094275621)
(-356486.635661786,864292.048498746,51005.4917650896)
(-379357.745742947,849958.423583134,98333.8024380073)
(-423258.155513012,823778.192484448,193116.396677861)
(-496151.924944627,773982.291325995,372446.66835162)
(-584900.330332534,680010.301133418,671153.489245475)
(-736849.392033423,526055.716845271,1176599.67336509)
(-875309.240078816,298188.163182179,1914265.82633443)
(0,0,0)
(0,0,0)
(0,0,0)
(0,0,0)
(0,0,0)
(0,0,0)
(-560660.924679595,1435676.99887955,4168.51865061963)
(-562008.183806152,1433547.98280749,9725.090678701)
(-565489.149615408,1428743.35980355,18969.0173229186)
(-572997.88971816,1419614.40909924,36644.5464405738)
(-588099.220542715,1402432.72787903,72269.462687394)
(-616515.915168183,1368999.26919131,143564.301148715)
(-664243.982753302,1302995.34830205,278795.226925966)
(-735134.68982202,1176342.45229555,517597.765585861)
(-857130.804297071,951659.146815966,949125.139912157)
(-941396.113274894,572215.520418547,1616493.89595069)
(0,0,0)
(0,0,0)
(0,0,0)
(0,0,0)
(0,0,0)
(0,0,0)
(-783063.809772743,2216664.76137659,2076.04727572741)
(-783735.191282444,2214393.04883641,4966.17252925022)
(-785447.353008185,2209222.25487342,9934.63046760137)
(-789120.996711145,2199119.72859164,19550.3076863797)
(-796424.611697994,2179440.97945402,38966.6678094145)
(-810122.73458321,2140331.62621496,77757.0453689682)
(-834006.324045246,2062360.99736995,152397.720346319)
(-874229.045883777,1909654.8990968,293314.319428798)
(-941184.235386778,1615984.7832846,570172.918346897)
(-947917.151945881,1045427.48122293,1044878.10948842)
(0,0,0)
(0,0,0)
(0,0,0)
(0,0,0)
(0,0,0)
(0,0,0)
(0,0,0)
(0,0,0)
(0,0,0)
(0,0,0)
(0,0,0)
(0,0,0)
(0,0,0)
(0,0,0)
(0,0,0)
(0,0,0)
(0,0,0)
(0,0,0)
(0,0,0)
(0,0,0)
(0,0,0)
(0,0,0)
(0,0,0)
(0,0,0)
(0,0,0)
(0,0,0)
(0,0,0)
(0,0,0)
(0,0,0)
(0,0,0)
(0,0,0)
(0,0,0)
(0,0,0)
(0,0,0)
(0,0,0)
(0,0,0)
(0,0,0)
(0,0,0)
(0,0,0)
(0,0,0)
(0,0,0)
(0,0,0)
(0,0,0)
(0,0,0)
(0,0,0)
(0,0,0)
(0,0,0)
(0,0,0)
(0,0,0)
(0,0,0)
(0,0,0)
(0,0,0)
(0,0,0)
(0,0,0)
(0,0,0)
(0,0,0)
(0,0,0)
(0,0,0)
(0,0,0)
(0,0,0)
(0,0,0)
(0,0,0)
(0,0,0)
(0,0,0)
(0,0,0)
(0,0,0)
(0,0,0)
(0,0,0)
(0,0,0)
(0,0,0)
(0,0,0)
(0,0,0)
(0,0,0)
(0,0,0)
(0,0,0)
(0,0,0)
(0,0,0)
(0,0,0)
(0,0,0)
(0,0,0)
(0,0,0)
(0,0,0)
(0,0,0)
(0,0,0)
(0,0,0)
(0,0,0)
(0,0,0)
(0,0,0)
(0,0,0)
(0,0,0)
(0,0,0)
(0,0,0)
(0,0,0)
(0,0,0)
(0,0,0)
(0,0,0)
(0,0,0)
(0,0,0)
(0,0,0)
(0,0,0)
(0,0,0)
(0,0,0)
(7352788.1695827,23574.3733594898,20396.7068458228)
(7348047.05085991,22485.8231017291,43796.1539217754)
(7337083.00036515,20149.4553089647,73896.1584767009)
(7316577.95338293,16268.9839454431,115914.085780479)
(7279960.87257373,10803.1065791246,177436.09135695)
(7214740.18004324,4291.57710043158,270130.942712242)
(7095067.05717426,-1520.85964252233,414894.974653267)
(6858556.41917247,-4092.08473151174,665998.785462027)
(6324785.42620845,-3385.19323240784,1228634.63701567)
(4875090.35550334,-1643.41259732509,3017834.04702737)
(0,0,0)
(0,0,0)
(0,0,0)
(0,0,0)
(0,0,0)
(0,0,0)
(7347917.40784994,50284.8780965776,19260.6023377688)
(7343155.24340296,48217.4565138527,41405.4179347932)
(7332079.9438214,43751.9638815851,70051.2567410075)
(7311155.19391072,36208.9912908813,110504.536416339)
(7273536.52625574,25178.4352517915,170933.13967335)
(7206508.01388433,11283.9447508346,264258.406412117)
(7085033.28199209,-1952.65539102238,412272.727469873)
(6849506.34699339,-7597.3812268002,666647.22398013)
(6319158.98465118,-5649.94119153366,1230324.17674753)
(4872606.99377692,-2378.22485804353,3019466.98033718)
(0,0,0)
(0,0,0)
(0,0,0)
(0,0,0)
(0,0,0)
(0,0,0)
(7336882.7215802,83608.1223231855,17145.0753499146)
(7332084.74917546,80830.4643947085,36872.8348197926)
(7320771.83940657,74793.4825005001,62556.6973894347)
(7298909.61593225,64378.3601393633,99550.0592265875)
(7258679.93108639,48369.4881311748,157068.586609964)
(7186186.84742916,26478.3829070739,251001.676104803)
(7057784.2721107,3245.55596282455,406571.608781007)
(6824535.28512028,-6626.50939715627,668509.790502993)
(6304674.8762987,-3080.20603941239,1233528.64921517)
(4866617.76970057,-35.9471588597645,3021832.19799327)
(0,0,0)
(0,0,0)
(0,0,0)
(0,0,0)
(0,0,0)
(0,0,0)
(7316488.11119312,127922.373740283,14341.4821509194)
(7311698.30146115,124873.195467649,30756.079623461)
(7300123.05252966,118245.494060172,52136.8410988931)
(7276821.31553266,106717.780375939,83567.9475268396)
(7231765.31578405,88404.24430776,135223.324358609)
(7146873.1879193,61478.1886053707,227794.564834349)
(6997187.51506572,28792.056145192,396669.551908267)
(6767657.49807917,12815.6260020926,672002.288998812)
(6275354.975912,14028.5929565568,1236565.80915335)
(4855393.85852474,9877.43852750045,3021899.26287295)
(0,0,0)
(0,0,0)
(0,0,0)
(0,0,0)
(0,0,0)
(0,0,0)
(7280576.83555931,189300.474893597,11269.1457451228)
(7275910.90119918,186453.412906298,24038.9236479692)
(7264295.15558486,180366.34198742,40554.9417509168)
(7239771.78079129,170051.582457204,65226.4926659617)
(7189219.97615096,154200.585286017,108327.95075206)
(7085724.83667458,131917.692712063,195154.531616029)
(6888239.07698427,105581.104482895,380727.690216366)
(6662148.05140931,82503.4858373751,673231.688148661)
(6229356.30989531,60325.4969056059,1232442.03126762)
(4838647.10991256,32604.5789371144,3012091.49839774)
(0,0,0)
(0,0,0)
(0,0,0)
(0,0,0)
(0,0,0)
(0,0,0)
(7216721.99612723,277784.657349082,8435.97818617181)
(7212387.65541865,275448.047506015,17892.0170325782)
(7201325.00881165,270537.702711217,30149.6779818559)
(7177241.91066123,262423.403519395,49287.9426660431)
(7126100.63401182,250103.521578806,86065.9737358388)
(7019646.71960228,232060.902383035,168888.904001863)
(6819641.09782577,207023.999579733,357757.445780266)
(6603532.3443786,175004.569996449,651144.376386853)
(6190034.43496341,127449.152539947,1204779.56336184)
(4819356.44410028,67393.1144380404,2979525.92627487)
(0,0,0)
(0,0,0)
(0,0,0)
(0,0,0)
(0,0,0)
(0,0,0)
(7098285.84061421,414444.214292702,6081.00926365693)
(7094524.91121964,412658.002250399,12892.0635684637)
(7084720.65595919,408976.585949033,21917.3399337427)
(7062862.08032763,403108.085865025,36854.3779672408)
(7015178.91856457,394384.735434914,68046.1542282427)
(6913341.16623701,380669.370399181,143959.431475674)
(6719260.25131583,356687.258927067,325902.068259808)
(6524204.8115226,314210.714030745,603748.928160091)
(6131701.71047132,229472.714270194,1144882.717803)
(4786387.25663843,122665.858285888,2912283.06756384)
(0,0,0)
(0,0,0)
(0,0,0)
(0,0,0)
(0,0,0)
(0,0,0)
(6861568.71079884,656866.407580695,4249.7250733438)
(6858610.24713788,655398.711276405,9162.00415543822)
(6850802.39143681,652446.368064337,16026.0407353114)
(6833133.46901276,647901.813383204,28082.6752316137)
(6793846.34789416,641337.588349377,54396.1953688948)
(6707418.41493279,630670.980253763,120188.481757626)
(6537452.54239381,606068.597228712,283673.142806499)
(6410241.58971911,529947.049045671,519265.354428808)
(6014084.09087696,405920.62574466,1038354.42673289)
(4710130.58919252,232159.502347835,2789891.42008861)
(0,0,0)
(0,0,0)
(0,0,0)
(0,0,0)
(0,0,0)
(0,0,0)
(6326430.81707341,1213465.25529151,2779.87722524113)
(6324427.25898359,1212010.88267197,6202.72972900615)
(6319211.21802812,1208966.39624101,11452.8005978076)
(6307649.77336166,1203676.71860453,21500.6989856194)
(6283072.98618676,1194311.79224142,43824.7550530837)
(6233012.36754015,1175634.8546458,95803.0646417074)
(6142743.34496657,1133484.68661329,207870.114226324)
(6016041.88961433,1037471.76884382,395639.281680876)
(5658101.32467373,867800.705357874,864997.53978586)
(4478334.01900169,565786.916416854,2558110.46012921)
(0,0,0)
(0,0,0)
(0,0,0)
(0,0,0)
(0,0,0)
(0,0,0)
(4875591.47540295,2999886.62602697,1393.81077776826)
(4874595.39698741,2998332.99275195,3211.57911686597)
(4872061.49211182,2994915.02135005,6224.57557685504)
(4866523.59877236,2988519.92095414,12207.2444328609)
(4855110.87606175,2976175.51875978,25278.4968438266)
(4832609.29182576,2950775.23277707,53876.5589926383)
(4790949.68344582,2896720.54769071,112155.157113164)
(4711233.14131155,2784253.1451058,226382.060344948)
(4478518.4199121,2557459.66635523,563490.910737742)
(3641435.72302824,1993505.49873647,1992889.92013288)
(0,0,0)
(0,0,0)
(0,0,0)
(0,0,0)
(0,0,0)
(0,0,0)
(0,0,0)
(0,0,0)
(0,0,0)
(0,0,0)
(0,0,0)
(0,0,0)
(0,0,0)
(0,0,0)
(0,0,0)
(0,0,0)
(0,0,0)
(0,0,0)
(0,0,0)
(0,0,0)
(0,0,0)
(0,0,0)
(0,0,0)
(0,0,0)
(0,0,0)
(0,0,0)
(0,0,0)
(0,0,0)
(0,0,0)
(0,0,0)
(0,0,0)
(0,0,0)
(0,0,0)
(0,0,0)
(0,0,0)
(0,0,0)
(0,0,0)
(0,0,0)
(0,0,0)
(0,0,0)
(0,0,0)
(0,0,0)
(0,0,0)
(0,0,0)
(0,0,0)
(0,0,0)
(0,0,0)
(0,0,0)
(0,0,0)
(0,0,0)
(0,0,0)
(0,0,0)
(0,0,0)
(0,0,0)
(0,0,0)
(0,0,0)
(0,0,0)
(0,0,0)
(0,0,0)
(0,0,0)
(0,0,0)
(0,0,0)
(0,0,0)
(0,0,0)
(0,0,0)
(0,0,0)
(0,0,0)
(0,0,0)
(0,0,0)
(0,0,0)
(0,0,0)
(0,0,0)
(0,0,0)
(0,0,0)
(0,0,0)
(0,0,0)
(0,0,0)
(0,0,0)
(0,0,0)
(0,0,0)
(0,0,0)
(0,0,0)
(0,0,0)
(0,0,0)
(0,0,0)
(0,0,0)
(0,0,0)
(0,0,0)
(0,0,0)
(0,0,0)
(0,0,0)
(0,0,0)
(0,0,0)
(0,0,0)
(0,0,0)
(0,0,0)
(0,0,0)
(0,0,0)
(0,0,0)
(0,0,0)
(0,0,0)
(0,0,0)
(-127912.129856639,18640.0986313168,15589.7341190411)
(-133139.828868423,17548.9199412232,32757.2272171059)
(-145072.735892615,15124.6181069679,53317.8786789834)
(-166777.711265612,10882.4084047884,79320.6682337826)
(-203975.77076497,4425.30160300617,112361.543280478)
(-266117.312273622,-3893.83666509219,150642.405573567)
(-367797.566539511,-11514.4334977011,178550.996096104)
(-528742.073158759,-13108.6522514472,132487.673989798)
(-759606.960992055,-8992.33320519218,-220598.072293556)
(-931406.771973149,-4106.97141483312,-1856464.44009107)
(0,0,0)
(0,0,0)
(0,0,0)
(0,0,0)
(0,0,0)
(0,0,0)
(-133491.221372471,39116.6027355311,14461.6584291835)
(-138643.334578705,37047.9706998568,30290.718963174)
(-150460.850197235,32397.9912567454,49087.6731430754)
(-172209.122372653,23970.6609170068,72893.2702252627)
(-209971.235043583,10353.5637868715,104002.302651714)
(-273783.761310037,-8996.45779856833,142926.232290507)
(-377808.118903872,-29138.6286070066,176921.361606748)
(-537193.84429871,-32534.1047104918,136576.538668861)
(-763832.409997667,-20151.9096822036,-215742.956894096)
(-932911.505526235,-8409.14135165441,-1852392.75434305)
(0,0,0)
(0,0,0)
(0,0,0)
(0,0,0)
(0,0,0)
(0,0,0)
(-145944.433229757,63135.8024928014,12337.4883637572)
(-150926.988389048,60388.0025575772,25538.7273815494)
(-162535.760929814,54113.5354758201,40660.3168097698)
(-184525.942461265,42291.1400190305,59304.9294122222)
(-224248.296407829,21507.3396237205,84608.9143805797)
(-294606.735094464,-12755.7014863889,122691.273903004)
(-411296.749813776,-57269.6803966194,173432.880928051)
(-566429.840690012,-63471.2538411755,148864.689179902)
(-776593.203964381,-32425.3416675962,-204064.265260518)
(-936977.697054036,-11328.2241558224,-1844020.18239076)
(0,0,0)
(0,0,0)
(0,0,0)
(0,0,0)
(0,0,0)
(0,0,0)
(-168338.837421564,91973.9323745187,9518.35204398321)
(-173041.000259506,89051.775957269,19123.4136759249)
(-184288.0320126,82385.0257712342,28792.5412337834)
(-206725.719407114,69658.4081029765,38501.841400589)
(-250889.597023277,45870.475206537,50323.1519360553)
(-340515.38438022,359.865314459978,78125.6907456894)
(-515460.063608288,-80130.8201184855,167163.942452537)
(-662280.575029008,-92705.5640281663,179865.859058739)
(-808688.707402756,-32029.6509789436,-182956.615004086)
(-945750.212086534,-6933.39648060391,-1832677.83875711)
(0,0,0)
(0,0,0)
(0,0,0)
(0,0,0)
(0,0,0)
(0,0,0)
(-205899.780768424,125429.11379057,6550.96822269731)
(-210218.232264364,122921.199181933,12340.2117726082)
(-220821.994584135,117403.692327478,15968.2286962856)
(-243235.777441823,107536.467838169,14627.26050525)
(-292628.228767205,91087.363201128,4788.11073975419)
(-419073.946382267,65847.2347882907,-2370.94236625829)
(-832333.296654848,37004.1378384493,154596.006626872)
(-986888.142916515,23911.4067325916,240544.763502908)
(-871739.677476322,20997.4317858316,-157856.798579155)
(-960176.691653332,13300.7054123482,-1825737.56559508)
(0,0,0)
(0,0,0)
(0,0,0)
(0,0,0)
(0,0,0)
(0,0,0)
(-267748.54377425,159410.041581204,4019.14542189309)
(-271518.805195468,157641.392758109,6734.94577079991)
(-281017.062399287,154000.464428166,6009.77819207432)
(-301868.130952492,148087.818495873,-1901.99754101785)
(-349908.804031825,139189.10846983,-20464.7714550959)
(-476065.547307915,125809.47666043,-31185.2131060043)
(-869415.552560444,106785.892469181,141619.215960434)
(-1010972.78522355,95792.4610106273,237772.824595605)
(-901375.729415348,69172.5850290872,-165462.630957932)
(-974737.247338906,34451.8002886123,-1838990.50108388)
(0,0,0)
(0,0,0)
(0,0,0)
(0,0,0)
(0,0,0)
(0,0,0)
(-368814.08844902,177822.160156473,2217.34379894415)
(-371912.220018742,176828.063633075,2997.33747333757)
(-379910.629974032,175146.880033402,11.7411121835841)
(-398102.04295369,173473.808489023,-10880.5922886456)
(-442244.121340011,173113.436019202,-33852.3466224607)
(-565879.520039962,174855.971255472,-50148.6216294537)
(-976494.214842841,175072.604016173,130848.66629331)
(-1107443.78883114,200426.94940215,211392.311566495)
(-946210.212754824,111976.959447799,-199970.606314889)
(-998785.408775358,46462.818537532,-1873279.42583917)
(0,0,0)
(0,0,0)
(0,0,0)
(0,0,0)
(0,0,0)
(0,0,0)
(-530194.217026017,121928.006460496,1186.61483179695)
(-532527.060214372,121419.266377446,1262.25275066314)
(-538644.029038724,121066.532777494,-1681.44620689972)
(-552930.764131517,122649.273719465,-11263.1449820931)
(-589479.692040848,130783.660154764,-32077.7958715022)
(-703010.696441813,156525.706886994,-49788.8868175125)
(-1151851.33654773,211665.262284708,156451.867166544)
(-938604.836662149,136017.195239683,123237.581021325)
(-982125.516526409,50125.0107181539,-265171.32953454)
(-1036025.91347376,445.245800001897,-1919467.72081967)
(0,0,0)
(0,0,0)
(0,0,0)
(0,0,0)
(0,0,0)
(0,0,0)
(-761784.696757735,-237058.931008755,731.984611332162)
(-763322.72862982,-237504.215120571,934.987033685253)
(-767255.210801476,-237876.798037611,-125.720010603679)
(-776042.15545145,-237125.607631946,-3129.3765350479)
(-796162.217916974,-233308.631595911,-6272.34736961004)
(-844356.336789213,-224365.618455991,5517.2156137184)
(-949783.052096572,-217896.040358858,81134.448631376)
(-984046.82603052,-267003.65552881,37773.548355647)
(-1074491.77542963,-311535.424696153,-314443.382815672)
(-1091581.41237562,-270981.680769733,-1919571.49155762)
(0,0,0)
(0,0,0)
(0,0,0)
(0,0,0)
(0,0,0)
(0,0,0)
(-933080.933230329,-1875254.40092029,397.411855842525)
(-933829.225478654,-1875785.34810373,632.700616020725)
(-935694.44802428,-1876611.84046001,653.216485531448)
(-939753.247878967,-1877420.19942791,754.188243691554)
(-948386.94762801,-1878304.97374622,2777.88739476625)
(-966530.968889362,-1881137.80493603,12219.8679008836)
(-1000095.06013133,-1893503.34360901,32401.448039228)
(-1037287.21358474,-1926261.04437495,-6291.27490746018)
(-1091923.71577506,-1920442.23485459,-273412.795750897)
(-1053798.13602791,-1647516.50908604,-1648114.57506741)
(0,0,0)
(0,0,0)
(0,0,0)
(0,0,0)
(0,0,0)
(0,0,0)
(0,0,0)
(0,0,0)
(0,0,0)
(0,0,0)
(0,0,0)
(0,0,0)
(0,0,0)
(0,0,0)
(0,0,0)
(0,0,0)
(0,0,0)
(0,0,0)
(0,0,0)
(0,0,0)
(0,0,0)
(0,0,0)
(0,0,0)
(0,0,0)
(0,0,0)
(0,0,0)
(0,0,0)
(0,0,0)
(0,0,0)
(0,0,0)
(0,0,0)
(0,0,0)
(0,0,0)
(0,0,0)
(0,0,0)
(0,0,0)
(0,0,0)
(0,0,0)
(0,0,0)
(0,0,0)
(0,0,0)
(0,0,0)
(0,0,0)
(0,0,0)
(0,0,0)
(0,0,0)
(0,0,0)
(0,0,0)
(0,0,0)
(0,0,0)
(0,0,0)
(0,0,0)
(0,0,0)
(0,0,0)
(0,0,0)
(0,0,0)
(0,0,0)
(0,0,0)
(0,0,0)
(0,0,0)
(0,0,0)
(0,0,0)
(0,0,0)
(0,0,0)
(0,0,0)
(0,0,0)
(0,0,0)
(0,0,0)
(0,0,0)
(0,0,0)
(0,0,0)
(0,0,0)
(0,0,0)
(0,0,0)
(0,0,0)
(0,0,0)
(0,0,0)
(0,0,0)
(0,0,0)
(0,0,0)
(0,0,0)
(0,0,0)
(0,0,0)
(0,0,0)
(0,0,0)
(0,0,0)
(0,0,0)
(0,0,0)
(0,0,0)
(0,0,0)
(0,0,0)
(0,0,0)
(0,0,0)
(0,0,0)
(0,0,0)
(0,0,0)
(0,0,0)
(0,0,0)
(0,0,0)
(0,0,0)
(0,0,0)
(0,0,0)
(-151206.919995522,12989.1500293238,10305.6401095596)
(-155640.796608028,11984.9387781125,20821.6690710559)
(-165544.657242755,9679.84418558494,31613.7462356118)
(-182762.920222824,5438.35500882375,42160.6001839967)
(-210565.496922863,-1559.86508602784,50310.1914279192)
(-253362.873818814,-11546.2333671926,49101.9863403073)
(-314955.015143778,-21522.8914840724,17782.3264286482)
(-391311.456984521,-21543.6176069545,-98104.6721386429)
(-452475.833740081,-13212.0646891549,-392023.734701437)
(-393301.837729068,-5601.77483986108,-924526.894105639)
(0,0,0)
(0,0,0)
(0,0,0)
(0,0,0)
(0,0,0)
(0,0,0)
(-156297.590627418,26537.0730341787,9258.44625009084)
(-160489.434509779,24628.2928676242,18461.1920916538)
(-169836.727468086,20190.1404608379,27326.7730872554)
(-186146.398632015,11577.6515029411,35124.7528524954)
(-212676.020214307,-3960.98042145772,40230.6533586526)
(-254235.781218242,-29845.0357172632,38981.4756169359)
(-315403.177226497,-62639.7454148565,17693.3878703525)
(-389445.39339122,-61794.4786319036,-89804.2020121851)
(-449468.397719893,-32965.6608872591,-384414.618091848)
(-391454.513942312,-12511.9585342821,-918961.425981403)
(0,0,0)
(0,0,0)
(0,0,0)
(0,0,0)
(0,0,0)
(0,0,0)
(-167473.001857559,40768.4798637285,7297.16179825678)
(-171172.692689916,38259.4966902985,13911.6622764462)
(-179412.233422618,32289.9735961715,18688.3016339156)
(-193871.163018206,20028.6012917761,19582.5724020253)
(-217755.563952753,-5146.75523841202,14275.6147639009)
(-257586.251558404,-58642.0563695509,6052.15188011547)
(-324888.064936739,-161405.783121021,18409.5047092444)
(-389420.734947477,-159318.918990691,-61075.1606745134)
(-442079.064181694,-64544.969226107,-364009.992118337)
(-386907.190583976,-20128.1251803685,-906464.331942314)
(0,0,0)
(0,0,0)
(0,0,0)
(0,0,0)
(0,0,0)
(0,0,0)
(-186766.527777554,54458.8480445945,4737.32217513116)
(-189764.993564811,51905.7785118716,7815.03365886848)
(-196369.651352069,45828.6261956085,6358.00039890298)
(-207776.991837302,33102.1506286441,-5664.27650777757)
(-226508.316072888,4114.00134325906,-39306.3140398363)
(-263457.633760827,-78181.1488561898,-96824.9721725918)
(-397102.964820284,-396973.415298262,20385.5612166379)
(-417564.847434263,-417299.372334632,33650.2869658373)
(-424904.678714464,-95094.9588083416,-319583.752140223)
(-377743.060612355,-21387.1301577418,-886331.898637048)
(0,0,0)
(0,0,0)
(0,0,0)
(0,0,0)
(0,0,0)
(0,0,0)
(-217181.237869729,63578.4204185057,2161.88472739237)
(-219397.034546423,61595.2421628192,1651.22335850339)
(-224006.091651493,57163.6537088823,-6499.70708741105)
(-230707.487802634,48878.0388274597,-34803.8849254119)
(-235438.668846883,33812.0187097169,-121691.462212195)
(-212134.023419549,8871.27989249469,-415683.813923605)