/*--------------------------------*- C++ -*----------------------------------*\
| =========                 |                                                 |
| \\      /  F ield         | foam-extend: Open Source CFD                    |
|  \\    /   O peration     | Version:     4.0                                |
|   \\  /    A nd           | Web:         http://www.foam-extend.org         |
|    \\/     M anipulation  |                                                 |
\*---------------------------------------------------------------------------*/
FoamFile
{
    version 2.0;
    format ascii;
    class volVectorField;
    location "Data/981";
    object      E;
}
// * * * * * * * * * * * * * * * * * * * * * * * * * * * * * * * * * * * * * //

dimensions      [0 1 -1 0 0 0 0];

internalField   nonuniform List<vector>
4096
(
(0,0,0)
(0,0,0)
(0,0,0)
(0,0,0)
(0,0,0)
(0,0,0)
(0,0,0)
(0,0,0)
(0,0,0)
(0,0,0)
(0,0,0)
(0,0,0)
(0,0,0)
(0,0,0)
(0,0,0)
(0,0,0)
(0,0,0)
(0,0,0)
(0,0,0)
(0,0,0)
(0,0,0)
(0,0,0)
(0,0,0)
(0,0,0)
(0,0,0)
(0,0,0)
(0,0,0)
(0,0,0)
(0,0,0)
(0,0,0)
(0,0,0)
(0,0,0)
(0,0,0)
(0,0,0)
(0,0,0)
(0,0,0)
(0,0,0)
(0,0,0)
(0,0,0)
(0,0,0)
(0,0,0)
(0,0,0)
(0,0,0)
(0,0,0)
(0,0,0)
(0,0,0)
(0,0,0)
(0,0,0)
(0,0,0)
(0,0,0)
(0,0,0)
(0,0,0)
(0,0,0)
(0,0,0)
(0,0,0)
(0,0,0)
(0,0,0)
(0,0,0)
(0,0,0)
(0,0,0)
(0,0,0)
(0,0,0)
(0,0,0)
(0,0,0)
(0,0,0)
(0,0,0)
(0,0,0)
(0,0,0)
(0,0,0)
(0,0,0)
(0,0,0)
(0,0,0)
(0,0,0)
(0,0,0)
(0,0,0)
(0,0,0)
(0,0,0)
(0,0,0)
(0,0,0)
(0,0,0)
(0,0,0)
(0,0,0)
(0,0,0)
(0,0,0)
(0,0,0)
(0,0,0)
(0,0,0)
(0,0,0)
(0,0,0)
(0,0,0)
(0,0,0)
(0,0,0)
(0,0,0)
(0,0,0)
(0,0,0)
(0,0,0)
(0,0,0)
(0,0,0)
(0,0,0)
(0,0,0)
(0,0,0)
(0,0,0)
(0,0,0)
(0,0,0)
(0,0,0)
(0,0,0)
(0,0,0)
(0,0,0)
(0,0,0)
(0,0,0)
(0,0,0)
(0,0,0)
(0,0,0)
(0,0,0)
(0,0,0)
(0,0,0)
(0,0,0)
(0,0,0)
(0,0,0)
(0,0,0)
(0,0,0)
(0,0,0)
(0,0,0)
(0,0,0)
(0,0,0)
(0,0,0)
(0,0,0)
(0,0,0)
(0,0,0)
(0,0,0)
(0,0,0)
(0,0,0)
(0,0,0)
(0,0,0)
(0,0,0)
(0,0,0)
(0,0,0)
(0,0,0)
(0,0,0)
(0,0,0)
(0,0,0)
(0,0,0)
(0,0,0)
(0,0,0)
(0,0,0)
(0,0,0)
(0,0,0)
(0,0,0)
(0,0,0)
(0,0,0)
(0,0,0)
(0,0,0)
(0,0,0)
(0,0,0)
(0,0,0)
(0,0,0)
(0,0,0)
(0,0,0)
(0,0,0)
(0,0,0)
(0,0,0)
(0,0,0)
(0,0,0)
(0,0,0)
(0,0,0)
(0,0,0)
(0,0,0)
(0,0,0)
(0,0,0)
(0,0,0)
(0,0,0)
(0,0,0)
(0,0,0)
(0,0,0)
(0,0,0)
(0,0,0)
(0,0,0)
(0,0,0)
(0,0,0)
(0,0,0)
(0,0,0)
(0,0,0)
(0,0,0)
(0,0,0)
(0,0,0)
(0,0,0)
(0,0,0)
(0,0,0)
(0,0,0)
(0,0,0)
(0,0,0)
(0,0,0)
(0,0,0)
(0,0,0)
(0,0,0)
(0,0,0)
(0,0,0)
(0,0,0)
(0,0,0)
(0,0,0)
(0,0,0)
(0,0,0)
(0,0,0)
(0,0,0)
(0,0,0)
(0,0,0)
(0,0,0)
(0,0,0)
(0,0,0)
(0,0,0)
(0,0,0)
(0,0,0)
(0,0,0)
(0,0,0)
(0,0,0)
(0,0,0)
(0,0,0)
(0,0,0)
(0,0,0)
(0,0,0)
(0,0,0)
(0,0,0)
(0,0,0)
(0,0,0)
(0,0,0)
(0,0,0)
(0,0,0)
(0,0,0)
(0,0,0)
(0,0,0)
(0,0,0)
(0,0,0)
(0,0,0)
(0,0,0)
(0,0,0)
(0,0,0)
(0,0,0)
(0,0,0)
(0,0,0)
(0,0,0)
(0,0,0)
(0,0,0)
(0,0,0)
(0,0,0)
(0,0,0)
(0,0,0)
(0,0,0)
(0,0,0)
(0,0,0)
(0,0,0)
(0,0,0)
(0,0,0)
(0,0,0)
(0,0,0)
(0,0,0)
(0,0,0)
(0,0,0)
(0,0,0)
(0,0,0)
(0,0,0)
(0,0,0)
(0,0,0)
(0,0,0)
(0,0,0)
(0,0,0)
(0,0,0)
(0,0,0)
(0,0,0)
(0,0,0)
(0,0,0)
(0,0,0)
(0,0,0)
(0,0,0)
(0,0,0)
(0,0,0)
(0,0,0)
(0,0,0)
(0,0,0)
(0,0,0)
(0,0,0)
(0,0,0)
(0,0,0)
(0,0,0)
(0,0,0)
(0,0,0)
(0,0,0)
(0,0,0)
(0,0,0)
(0,0,0)
(0,0,0)
(0,0,0)
(0,0,0)
(0,0,0)
(0,0,0)
(0,0,0)
(0,0,0)
(0,0,0)
(0,0,0)
(0,0,0)
(0,0,0)
(0,0,0)
(0,0,0)
(0,0,0)
(0,0,0)
(0,0,0)
(0,0,0)
(0,0,0)
(0,0,0)
(0,0,0)
(0,0,0)
(0,0,0)
(0,0,0)
(0,0,0)
(0,0,0)
(0,0,0)
(0,0,0)
(0,0,0)
(0,0,0)
(0,0,0)
(0,0,0)
(0,0,0)
(0,0,0)
(0,0,0)
(0,0,0)
(0,0,0)
(0,0,0)
(0,0,0)
(0,0,0)
(0,0,0)
(0,0,0)
(0,0,0)
(0,0,0)
(0,0,0)
(0,0,0)
(0,0,0)
(0,0,0)
(0,0,0)
(0,0,0)
(0,0,0)
(0,0,0)
(0,0,0)
(0,0,0)
(0,0,0)
(0,0,0)
(0,0,0)
(0,0,0)
(0,0,0)
(0,0,0)
(0,0,0)
(0,0,0)
(0,0,0)
(0,0,0)
(0,0,0)
(0,0,0)
(0,0,0)
(0,0,0)
(0,0,0)
(0,0,0)
(0,0,0)
(0,0,0)
(0,0,0)
(0,0,0)
(0,0,0)
(0,0,0)
(0,0,0)
(0,0,0)
(0,0,0)
(0,0,0)
(0,0,0)
(0,0,0)
(0,0,0)
(0,0,0)
(0,0,0)
(0,0,0)
(0,0,0)
(0,0,0)
(0,0,0)
(0,0,0)
(0,0,0)
(0,0,0)
(0,0,0)
(0,0,0)
(0,0,0)
(0,0,0)
(0,0,0)
(0,0,0)
(0,0,0)
(0,0,0)
(0,0,0)
(0,0,0)
(0,0,0)
(0,0,0)
(0,0,0)
(0,0,0)
(0,0,0)
(0,0,0)
(0,0,0)
(0,0,0)
(0,0,0)
(0,0,0)
(0,0,0)
(0,0,0)
(0,0,0)
(0,0,0)
(0,0,0)
(0,0,0)
(0,0,0)
(0,0,0)
(0,0,0)
(0,0,0)
(0,0,0)
(0,0,0)
(0,0,0)
(0,0,0)
(0,0,0)
(0,0,0)
(0,0,0)
(0,0,0)
(0,0,0)
(0,0,0)
(0,0,0)
(0,0,0)
(0,0,0)
(0,0,0)
(0,0,0)
(0,0,0)
(0,0,0)
(0,0,0)
(0,0,0)
(0,0,0)
(0,0,0)
(0,0,0)
(0,0,0)
(0,0,0)
(0,0,0)
(0,0,0)
(0,0,0)
(0,0,0)
(0,0,0)
(0,0,0)
(0,0,0)
(0,0,0)
(0,0,0)
(0,0,0)
(0,0,0)
(0,0,0)
(0,0,0)
(0,0,0)
(0,0,0)
(0,0,0)
(0,0,0)
(0,0,0)
(0,0,0)
(0,0,0)
(0,0,0)
(0,0,0)
(0,0,0)
(0,0,0)
(0,0,0)
(0,0,0)
(0,0,0)
(0,0,0)
(0,0,0)
(0,0,0)
(0,0,0)
(0,0,0)
(0,0,0)
(0,0,0)
(0,0,0)
(0,0,0)
(0,0,0)
(0,0,0)
(0,0,0)
(0,0,0)
(0,0,0)
(0,0,0)
(0,0,0)
(0,0,0)
(0,0,0)
(0,0,0)
(0,0,0)
(0,0,0)
(0,0,0)
(0,0,0)
(0,0,0)
(0,0,0)
(0,0,0)
(0,0,0)
(0,0,0)
(0,0,0)
(0,0,0)
(0,0,0)
(0,0,0)
(0,0,0)
(0,0,0)
(0,0,0)
(0,0,0)
(0,0,0)
(0,0,0)
(0,0,0)
(0,0,0)
(0,0,0)
(0,0,0)
(0,0,0)
(0,0,0)
(0,0,0)
(0,0,0)
(0,0,0)
(0,0,0)
(0,0,0)
(0,0,0)
(0,0,0)
(0,0,0)
(0,0,0)
(0,0,0)
(0,0,0)
(0,0,0)
(0,0,0)
(0,0,0)
(0,0,0)
(0,0,0)
(0,0,0)
(0,0,0)
(0,0,0)
(0,0,0)
(0,0,0)
(0,0,0)
(0,0,0)
(0,0,0)
(0,0,0)
(0,0,0)
(0,0,0)
(0,0,0)
(0,0,0)
(0,0,0)
(0,0,0)
(0,0,0)
(0,0,0)
(0,0,0)
(0,0,0)
(0,0,0)
(0,0,0)
(0,0,0)
(0,0,0)
(0,0,0)
(0,0,0)
(0,0,0)
(0,0,0)
(0,0,0)
(0,0,0)
(0,0,0)
(0,0,0)
(0,0,0)
(0,0,0)
(0,0,0)
(0,0,0)
(0,0,0)
(0,0,0)
(0,0,0)
(0,0,0)
(0,0,0)
(0,0,0)
(0,0,0)
(0,0,0)
(0,0,0)
(0,0,0)
(0,0,0)
(0,0,0)
(0,0,0)
(0,0,0)
(0,0,0)
(0,0,0)
(0,0,0)
(0,0,0)
(0,0,0)
(0,0,0)
(0,0,0)
(0,0,0)
(0,0,0)
(0,0,0)
(0,0,0)
(0,0,0)
(0,0,0)
(0,0,0)
(0,0,0)
(0,0,0)
(0,0,0)
(0,0,0)
(0,0,0)
(0,0,0)
(0,0,0)
(0,0,0)
(0,0,0)
(0,0,0)
(0,0,0)
(0,0,0)
(0,0,0)
(0,0,0)
(0,0,0)
(0,0,0)
(0,0,0)
(0,0,0)
(0,0,0)
(0,0,0)
(0,0,0)
(0,0,0)
(0,0,0)
(0,0,0)
(0,0,0)
(0,0,0)
(0,0,0)
(0,0,0)
(0,0,0)
(0,0,0)
(0,0,0)
(0,0,0)
(0,0,0)
(0,0,0)
(0,0,0)
(0,0,0)
(0,0,0)
(0,0,0)
(0,0,0)
(0,0,0)
(0,0,0)
(0,0,0)
(0,0,0)
(0,0,0)
(0,0,0)
(0,0,0)
(0,0,0)
(0,0,0)
(0,0,0)
(0,0,0)
(0,0,0)
(0,0,0)
(0,0,0)
(0,0,0)
(0,0,0)
(0,0,0)
(0,0,0)
(0,0,0)
(0,0,0)
(0,0,0)
(0,0,0)
(0,0,0)
(0,0,0)
(0,0,0)
(0,0,0)
(0,0,0)
(0,0,0)
(0,0,0)
(0,0,0)
(0,0,0)
(0,0,0)
(0,0,0)
(0,0,0)
(0,0,0)
(0,0,0)
(0,0,0)
(0,0,0)
(0,0,0)
(0,0,0)
(0,0,0)
(0,0,0)
(0,0,0)
(0,0,0)
(0,0,0)
(0,0,0)
(0,0,0)
(0,0,0)
(0,0,0)
(0,0,0)
(0,0,0)
(0,0,0)
(0,0,0)
(0,0,0)
(0,0,0)
(0,0,0)
(0,0,0)
(0,0,0)
(0,0,0)
(0,0,0)
(0,0,0)
(0,0,0)
(0,0,0)
(0,0,0)
(0,0,0)
(0,0,0)
(0,0,0)
(0,0,0)
(0,0,0)
(0,0,0)
(0,0,0)
(0,0,0)
(0,0,0)
(0,0,0)
(0,0,0)
(0,0,0)
(0,0,0)
(0,0,0)
(0,0,0)
(0,0,0)
(0,0,0)
(0,0,0)
(0,0,0)
(0,0,0)
(0,0,0)
(0,0,0)
(0,0,0)
(0,0,0)
(0,0,0)
(0,0,0)
(0,0,0)
(0,0,0)
(0,0,0)
(0,0,0)
(0,0,0)
(0,0,0)
(0,0,0)
(0,0,0)
(0,0,0)
(0,0,0)
(0,0,0)
(0,0,0)
(0,0,0)
(0,0,0)
(0,0,0)
(0,0,0)
(0,0,0)
(0,0,0)
(0,0,0)
(0,0,0)
(0,0,0)
(0,0,0)
(0,0,0)
(0,0,0)
(0,0,0)
(0,0,0)
(0,0,0)
(0,0,0)
(0,0,0)
(0,0,0)
(0,0,0)
(0,0,0)
(0,0,0)
(0,0,0)
(0,0,0)
(0,0,0)
(0,0,0)
(0,0,0)
(0,0,0)
(0,0,0)
(0,0,0)
(0,0,0)
(0,0,0)
(0,0,0)
(0,0,0)
(0,0,0)
(0,0,0)
(0,0,0)
(0,0,0)
(0,0,0)
(0,0,0)
(0,0,0)
(0,0,0)
(0,0,0)
(0,0,0)
(0,0,0)
(0,0,0)
(0,0,0)
(0,0,0)
(0,0,0)
(0,0,0)
(0,0,0)
(0,0,0)
(0,0,0)
(0,0,0)
(0,0,0)
(0,0,0)
(0,0,0)
(0,0,0)
(0,0,0)
(0,0,0)
(0,0,0)
(0,0,0)
(0,0,0)
(0,0,0)
(0,0,0)
(0,0,0)
(0,0,0)
(0,0,0)
(0,0,0)
(0,0,0)
(0,0,0)
(0,0,0)
(0,0,0)
(0,0,0)
(0,0,0)
(0,0,0)
(0,0,0)
(0,0,0)
(0,0,0)
(0,0,0)
(0,0,0)
(0,0,0)
(0,0,0)
(0,0,0)
(0,0,0)
(0,0,0)
(0,0,0)
(0,0,0)
(0,0,0)
(0,0,0)
(0,0,0)
(0,0,0)
(0,0,0)
(0,0,0)
(0,0,0)
(-6331.87675479413,3285.01814978015,3046.85860501388)
(-6714.32360685976,3168.6901461992,6592.49206567453)
(-7570.49340450382,2863.16048728099,11299.8249828976)
(-9224.07508727699,2442.1152403952,18081.7848297817)
(-12183.6656273693,1900.43641097776,28365.0140461788)
(-17458.8166892385,1241.75972434413,44582.0710110599)
(-27031.2414610513,629.198363432967,70984.1141087112)
(-44347.6407782657,248.158816535785,115083.596070435)
(-73328.8482556194,96.2368802038119,188316.207445905)
(-102338.532538957,24.5703985910427,290630.169586276)
(0,0,0)
(0,0,0)
(0,0,0)
(0,0,0)
(0,0,0)
(0,0,0)
(-6755.23434990354,7155.52411056318,2884.72838911997)
(-7138.45668039903,6895.2205640358,6296.65465168546)
(-8018.19588609243,6311.96339729199,10866.0476277635)
(-9685.48368179107,5512.84865198522,17480.7978979682)
(-12693.9616700328,4403.80077440429,27671.3952045725)
(-18070.3793243796,3030.14576524202,43953.3884880605)
(-27743.9724770363,1730.30897061094,70596.2503578866)
(-45009.913612467,904.787349789143,114949.535437073)
(-73763.7738902196,538.119655872446,188271.426551684)
(-102530.386717491,264.230582182713,290562.153085494)
(0,0,0)
(0,0,0)
(0,0,0)
(0,0,0)
(0,0,0)
(0,0,0)
(-7650.12526244486,12152.183949793,2653.4654232146)
(-8035.55290088107,11789.091298758,5795.14758937394)
(-8962.73609623041,11025.7349317777,10044.1121511231)
(-10694.9637234553,9933.07170905103,16318.8528175145)
(-13874.4219542021,8337.75603139468,26259.3195147259)
(-19571.55509243,6258.58922047022,42602.431151928)
(-29557.4774055941,4166.24919432203,69723.9683338136)
(-46650.3544435583,2684.04097975662,114595.069147378)
(-74792.0763078058,1838.63427528313,188086.630835842)
(-102974.309469615,988.547352720457,290336.623534903)
(0,0,0)
(0,0,0)
(0,0,0)
(0,0,0)
(0,0,0)
(0,0,0)
(-9241.46651946613,19078.6392872569,2315.01118200268)
(-9642.68833774287,18691.5317115472,5055.25910695809)
(-10615.5603559348,17896.0021410818,8800.5522535825)
(-12474.2988085823,16661.8334503743,14546.0893208371)
(-15979.0880178435,14797.9634314248,24064.9699386535)
(-22307.5930678405,12229.087747712,40402.0644792466)
(-33049.5231253749,9365.3865443754,68252.4502545795)
(-49885.2314017954,6962.91159719907,113858.8110389)
(-76745.6045444229,4993.49919958776,187449.550658978)
(-103805.836469824,2682.44559683553,289561.488884786)
(0,0,0)
(0,0,0)
(0,0,0)
(0,0,0)
(0,0,0)
(0,0,0)
(-12115.9077947179,29320.800050382,1873.74703159171)
(-12507.9416279012,28932.1970292175,4141.02334182162)
(-13464.654546263,28185.0405663408,7316.63946282451)
(-15428.1503693198,26984.5417724344,12422.0815100888)
(-19283.6016672216,25156.1630997004,21347.4835090405)
(-26412.3951049808,22547.2881687245,37441.6781929942)
(-38376.5091025214,19273.8562519394,65909.7175879546)
(-54829.0519325595,15594.8787905195,112106.80232722)
(-79613.3540745226,11257.7790384151,185455.876562961)
(-105046.686211064,5976.67062609844,287208.337744781)
(0,0,0)
(0,0,0)
(0,0,0)
(0,0,0)
(0,0,0)
(0,0,0)
(-17229.8234450832,45121.281306544,1429.34218892184)
(-17608.6660060826,44757.4954531017,3212.70977111916)
(-18539.7245666506,44095.4875901652,5841.98731394527)
(-20506.3819405968,43013.9096948686,10319.001332105)
(-24383.538919746,41302.9505148679,18555.7528366834)
(-31636.5179871354,38653.5209162852,34086.0380762657)
(-43653.1221297687,34746.7275422908,62266.2889157085)
(-59375.636201358,29237.8635662918,107998.940341275)
(-82744.3758093465,21456.8326838793,180544.262505194)
(-106629.392095827,11485.2085776241,281665.11664941)
(0,0,0)
(0,0,0)
(0,0,0)
(0,0,0)
(0,0,0)
(0,0,0)
(-26644.3440126705,70719.256318599,1046.36900061829)
(-26990.2372671041,70385.2238103276,2408.87791049431)
(-27836.8050322874,69802.8688791285,4538.30165382225)
(-29634.970703879,68799.2312981341,8387.95075443899)
(-33216.9223292574,67157.7307576041,15750.0928409616)
(-40036.5307780919,64333.0054047853,30107.1391305458)
(-51347.0264435969,59453.8101116727,56747.0830047637)
(-65674.0535202774,51315.8392532992,100343.160838028)
(-87446.4207059568,38453.0156985231,170793.398529278)
(-109225.257800038,20977.1463521599,270526.718554829)
(0,0,0)
(0,0,0)
(0,0,0)
(0,0,0)
(0,0,0)
(0,0,0)
(-43984.1817460711,113946.121815921,757.316248740001)
(-44263.2321661468,113635.872183771,1769.90004144658)
(-44934.3590605313,113063.307811336,3443.8201697801)
(-46370.6595677534,112022.404886744,6591.3061489093)
(-49305.4611925186,110281.80602854,12772.6920704857)
(-54996.971831239,106971.729297218,25130.9400092894)
(-64489.1789064144,100571.722343248,48502.2066841142)
(-76133.6272348877,88482.8890054035,87468.7841669135)
(-96020.8219947711,68526.8730283635,153415.748831844)
(-114215.317545042,38879.8038037516,249728.408925229)
(0,0,0)
(0,0,0)
(0,0,0)
(0,0,0)
(0,0,0)
(0,0,0)
(-73050.0222260214,186483.746533074,512.397508857114)
(-73251.1791866552,186178.549945911,1220.89893338384)
(-73705.2656259383,185577.547882621,2411.92448800225)
(-74664.3421836456,184373.074354907,4725.59720349233)
(-76593.1875304612,182233.928333285,9366.6624292216)
(-80287.6240153609,177978.34528496,18647.6704568291)
(-86522.5220995535,169477.98016117,36263.9347384578)
(-95820.419196313,153124.088595211,67443.1543449589)
(-111781.731561536,123985.713219055,123766.045715776)
(-122879.94967554,74602.7681471309,210923.031047938)
(0,0,0)
(0,0,0)
(0,0,0)
(0,0,0)
(0,0,0)
(0,0,0)
(-102204.827032768,288427.758228607,260.815337221149)
(-102303.976646553,288114.999039554,628.34289013082)
(-102517.975206344,287473.978838032,1249.88714109337)
(-102983.738829589,286123.646365924,2483.05395967598)
(-103917.695805833,283628.008858191,5006.66924062098)
(-105698.108996026,278623.077845954,10060.04567565)
(-108818.94339046,268564.784260003,19792.1849672689)
(-114091.674030553,248783.288780818,38224.6588121761)
(-122848.552782171,210685.810465328,74373.1143480669)
(-123782.761829028,136399.176044428,136359.468279805)
(0,0,0)
(0,0,0)
(0,0,0)
(0,0,0)
(0,0,0)
(0,0,0)
(0,0,0)
(0,0,0)
(0,0,0)
(0,0,0)
(0,0,0)
(0,0,0)
(0,0,0)
(0,0,0)
(0,0,0)
(0,0,0)
(0,0,0)
(0,0,0)
(0,0,0)
(0,0,0)
(0,0,0)
(0,0,0)
(0,0,0)
(0,0,0)
(0,0,0)
(0,0,0)
(0,0,0)
(0,0,0)
(0,0,0)
(0,0,0)
(0,0,0)
(0,0,0)
(0,0,0)
(0,0,0)
(0,0,0)
(0,0,0)
(0,0,0)
(0,0,0)
(0,0,0)
(0,0,0)
(0,0,0)
(0,0,0)
(0,0,0)
(0,0,0)
(0,0,0)
(0,0,0)
(0,0,0)
(0,0,0)
(0,0,0)
(0,0,0)
(0,0,0)
(0,0,0)
(0,0,0)
(0,0,0)
(0,0,0)
(0,0,0)
(0,0,0)
(0,0,0)
(0,0,0)
(0,0,0)
(0,0,0)
(0,0,0)
(0,0,0)
(0,0,0)
(0,0,0)
(0,0,0)
(0,0,0)
(0,0,0)
(0,0,0)
(0,0,0)
(0,0,0)
(0,0,0)
(0,0,0)
(0,0,0)
(0,0,0)
(0,0,0)
(0,0,0)
(0,0,0)
(0,0,0)
(0,0,0)
(0,0,0)
(0,0,0)
(0,0,0)
(0,0,0)
(0,0,0)
(0,0,0)
(0,0,0)
(0,0,0)
(0,0,0)
(0,0,0)
(0,0,0)
(0,0,0)
(0,0,0)
(0,0,0)
(0,0,0)
(0,0,0)
(0,0,0)
(0,0,0)
(0,0,0)
(0,0,0)
(0,0,0)
(0,0,0)
(961489.572547898,2937.83250201177,2706.72341872175)
(960863.865319224,2812.48156719685,5782.05814882423)
(959419.574752742,2520.59332701006,9737.40188792969)
(956719.737361867,2063.45110879936,15196.1435533372)
(951919.745364868,1422.86298785214,23135.8747966424)
(943438.751564749,624.807273779113,35079.5044921772)
(927852.178420841,-85.9010135632605,53747.9908472113)
(896949.569551139,-390.416150669276,86307.2018917919)
(827144.664456515,-338.973425756039,159638.667828775)
(637578.438218969,-171.313606983961,393359.01590122)
(0,0,0)
(0,0,0)
(0,0,0)
(0,0,0)
(0,0,0)
(0,0,0)
(960761.065205279,6328.75602661141,2558.78214364963)
(960125.136055541,6080.98298808529,5492.6932102506)
(958682.639926435,5518.41047545883,9260.04547266545)
(955959.357233969,4627.8341927402,14516.8266963207)
(951075.423653982,3308.9627427022,22327.3468408643)
(942389.038776277,1603.43407837167,34355.3071589767)
(926586.026672262,-31.9702961221165,53437.3825157297)
(895823.390686756,-719.865528938694,86399.5328181837)
(826456.441770758,-529.454434518734,159835.803389293)
(637280.601637014,-210.991452266081,393530.498103378)
(0,0,0)
(0,0,0)
(0,0,0)
(0,0,0)
(0,0,0)
(0,0,0)
(959239.253162379,10583.0554010883,2322.32742407258)
(958603.782144467,10255.9391158715,4974.04147436027)
(957125.901460354,9522.46808521433,8347.35153145033)
(954298.690999951,8296.70907351976,13150.8271506993)
(949118.193718718,6347.35484439474,20585.8245994095)
(939751.562309713,3634.03651142858,32698.1099876014)
(923095.125681832,742.679912139881,52736.8619153209)
(892678.414656612,-502.349751815164,86656.5822615319)
(824671.599342202,-125.471603050143,160254.929003399)
(636561.955534466,130.441812741155,393843.235957762)
(0,0,0)
(0,0,0)
(0,0,0)
(0,0,0)
(0,0,0)
(0,0,0)
(956567.709452606,16281.6439339428,1958.24071845162)
(955943.287779147,15933.9556824078,4160.25325847999)
(954414.17693252,15165.505298822,6953.48397982466)
(951376.963609332,13822.2580921405,11042.6777667367)
(945559.706420418,11581.4779459895,17735.7654502424)
(934619.712750792,8208.54295332127,29699.9584131195)
(915272.169394756,4091.20124655452,51495.7497820017)
(885356.811863497,2054.0930753312,87163.2689129671)
(820921.853195455,2117.18772258934,160719.157070786)
(635145.443619408,1421.13374280628,393943.190274958)
(0,0,0)
(0,0,0)
(0,0,0)
(0,0,0)
(0,0,0)
(0,0,0)
(951873.668755656,24256.4415588376,1501.63104812394)
(951277.513656728,23921.6367508278,3194.49991844256)
(949767.491967339,23234.6179670871,5359.24596001838)
(946578.549692736,22050.7463807031,8590.06283278703)
(940026.943485565,20125.6938278353,14201.3070215658)
(926665.055829374,17343.4805305032,25454.9237334616)
(901159.552522992,13997.0662276935,49479.0023502103)
(871700.05016067,11042.412673131,87427.5858826153)
(814983.724056446,8109.29412640552,160304.406571111)
(632992.743970005,4373.52664465961,392778.588711648)
(0,0,0)
(0,0,0)
(0,0,0)
(0,0,0)
(0,0,0)
(0,0,0)
(943632.387061447,35770.1741029557,1090.06217271635)
(943074.913743743,35479.8085380859,2314.3158590077)
(941632.897164999,34919.3981936412,3922.91912422082)
(938483.736795073,34003.5311603108,6446.02083242076)
(931878.258676419,32525.2337758795,11250.688511593)
(918121.003201178,30271.35616678,22031.2969104214)
(892225.978728754,27064.076310331,46551.1911926778)
(864030.54790936,22967.1148583074,84686.3101201372)
(809860.862056379,16777.4639414377,156878.907662775)
(630490.301129913,8882.85363639311,388715.892668777)
(0,0,0)
(0,0,0)
(0,0,0)
(0,0,0)
(0,0,0)
(0,0,0)
(928276.509578793,53563.2402769407,752.085457970559)
(927785.213206747,53324.3347535623,1598.11399202713)
(926501.621522235,52890.6797939063,2754.41106067274)
(923626.105643126,52217.8413575741,4745.02973979782)
(917479.461990363,51182.228763857,8857.65565558994)
(904310.194336719,49473.9538581918,18774.338072761)
(879147.905514671,46378.2152631094,42431.2723850885)
(853675.681316117,40924.1295420202,78590.5280884257)
(802243.273779098,29952.3179012535,149191.984866942)
(626191.73248113,16024.3474264491,380099.50601919)
(0,0,0)
(0,0,0)
(0,0,0)
(0,0,0)
(0,0,0)
(0,0,0)
(897368.776091448,85157.2175355597,519.070127319273)
(896988.663672256,84951.0429618369,1106.47130404841)
(895985.189887774,84582.6652740252,1960.94209898064)
(893688.788693592,84018.1179876109,3567.22243107963)
(888626.17223791,83237.2025913385,7046.62039650457)
(877426.728824207,81902.7697015907,15660.1091211041)
(855385.506993704,78712.4621106655,36917.1815967571)
(838636.472480661,68921.0533794593,67616.1632671157)
(786776.67154691,52866.8083109515,135370.184539044)
(616174.577972717,30258.4137390782,364212.227932041)
(0,0,0)
(0,0,0)
(0,0,0)
(0,0,0)
(0,0,0)
(0,0,0)
(827390.002578753,157835.358185573,347.839768591638)
(827152.234759671,157610.892821714,750.581185824644)
(826495.324013227,157209.388723591,1389.27332048488)
(824999.712342513,156493.808966957,2715.53303831715)
(821839.440007001,155322.664021199,5663.44929436901)
(815333.794327257,152945.199967603,12465.6059091328)
(803590.319645622,147492.087251581,27039.1442464637)
(786979.840479056,135099.21907933,51526.7240946594)
(740164.174912078,113113.815501459,112799.815653945)
(585827.578832466,73796.7073729506,334019.998735394)
(0,0,0)
(0,0,0)
(0,0,0)
(0,0,0)
(0,0,0)
(0,0,0)
(637666.233148573,391239.69699646,190.606231114779)
(637557.616251115,391012.801804549,393.109574007406)
(637245.633248852,390564.87252397,740.022541783447)
(636525.574639305,389673.559741838,1516.96352146954)
(635058.026815356,388092.098269856,3237.81187506978)
(632137.118504862,384821.78874527,6992.00081999591)
(626711.120385775,377838.000390427,14582.0291283032)
(616265.845872848,363282.686242248,29507.0472853784)
(585840.090153168,333869.543826258,73528.681248633)
(476346.40941535,260366.316572581,260295.906027984)
(0,0,0)
(0,0,0)
(0,0,0)
(0,0,0)
(0,0,0)
(0,0,0)
(0,0,0)
(0,0,0)
(0,0,0)
(0,0,0)
(0,0,0)
(0,0,0)
(0,0,0)
(0,0,0)
(0,0,0)
(0,0,0)
(0,0,0)
(0,0,0)
(0,0,0)
(0,0,0)
(0,0,0)
(0,0,0)
(0,0,0)
(0,0,0)
(0,0,0)
(0,0,0)
(0,0,0)
(0,0,0)
(0,0,0)
(0,0,0)
(0,0,0)
(0,0,0)
(0,0,0)
(0,0,0)
(0,0,0)
(0,0,0)
(0,0,0)
(0,0,0)
(0,0,0)
(0,0,0)
(0,0,0)
(0,0,0)
(0,0,0)
(0,0,0)
(0,0,0)
(0,0,0)
(0,0,0)
(0,0,0)
(0,0,0)
(0,0,0)
(0,0,0)
(0,0,0)
(0,0,0)
(0,0,0)
(0,0,0)
(0,0,0)
(0,0,0)
(0,0,0)
(0,0,0)
(0,0,0)
(0,0,0)
(0,0,0)
(0,0,0)
(0,0,0)
(0,0,0)
(0,0,0)
(0,0,0)
(0,0,0)
(0,0,0)
(0,0,0)
(0,0,0)
(0,0,0)
(0,0,0)
(0,0,0)
(0,0,0)
(0,0,0)
(0,0,0)
(0,0,0)
(0,0,0)
(0,0,0)
(0,0,0)
(0,0,0)
(0,0,0)
(0,0,0)
(0,0,0)
(0,0,0)
(0,0,0)
(0,0,0)
(0,0,0)
(0,0,0)
(0,0,0)
(0,0,0)
(0,0,0)
(0,0,0)
(0,0,0)
(0,0,0)
(0,0,0)
(0,0,0)
(0,0,0)
(0,0,0)
(0,0,0)
(0,0,0)
(-16468.7027860657,2369.00304165792,2123.2670688813)
(-17145.0554069787,2241.84505968342,4424.33751201514)
(-18720.1738129795,1951.01925972262,7147.06159465059)
(-21569.7881954202,1448.36029751662,10522.2216310735)
(-26440.0541366244,669.597063224902,14746.4188459492)
(-34501.9286156599,-374.929275904281,19596.0230789472)
(-47715.7977861919,-1337.33680581851,23035.3308684241)
(-68784.2436068211,-1538.94219759724,16842.0810006603)
(-99035.1940026921,-1047.24137678361,-29396.824386766)
(-121583.979267958,-463.998609366216,-243236.413513827)
(0,0,0)
(0,0,0)
(0,0,0)
(0,0,0)
(0,0,0)
(0,0,0)
(-17296.5318444649,4978.38131026571,1982.21355770446)
(-17981.2825146093,4736.38121692867,4128.09074718079)
(-19509.2561895898,4177.48807485529,6627.51282468075)
(-22326.0925962235,3173.53113844282,9721.78659058973)
(-27221.9856512637,1510.26537696504,13712.5223586949)
(-35478.9810721661,-905.341315186869,18644.949023051)
(-48969.071673359,-3464.11804378731,22860.8233831636)
(-69799.7008228659,-3907.36256615755,17386.3300379355)
(-99509.2296387378,-2385.4848464674,-28775.7603061906)
(-121728.756798355,-966.409455816461,-242729.996247801)
(0,0,0)
(0,0,0)
(0,0,0)
(0,0,0)
(0,0,0)
(0,0,0)
(-19017.7430145592,8040.7562127266,1728.6160511029)
(-19688.8390656367,7731.02298168113,3560.59027303116)
(-21177.3166547865,7006.44434662766,5568.84689296544)
(-24004.4427201079,5590.85326508253,7988.65326294864)
(-29109.0411550269,3014.80580025172,11245.3424900766)
(-38162.6290828114,-1295.89254609981,16084.079890117)
(-53213.2568653364,-6977.30109184744,22439.6402619436)
(-73437.5398321125,-7797.53233363018,18979.7592946433)
(-101041.906139544,-3888.95928333063,-27269.2660100751)
(-122194.229215135,-1307.69135875031,-241637.804580962)
(0,0,0)
(0,0,0)
(0,0,0)
(0,0,0)
(0,0,0)
(0,0,0)
(-21961.4475140077,11758.6362922548,1345.27166370726)
(-22576.3477828062,11445.0896609494,2684.83532293976)
(-24037.9820181771,10709.9771084784,3967.45628837992)
(-26945.9734356335,9183.29455560728,5231.94681937225)
(-32633.6357876451,6206.6263463819,6767.46325794075)
(-44119.5127984039,421.040073852353,10323.7509637929)
(-66565.4277164922,-9929.00408154753,21647.0458413281)
(-85690.9482221574,-11572.5088246354,23003.7771945882)
(-105093.264327563,-3830.19647243006,-24505.8733166456)
(-123282.046376418,-750.681293383148,-240101.39860963)
(0,0,0)
(0,0,0)
(0,0,0)
(0,0,0)
(0,0,0)
(0,0,0)
(-26859.0351986216,16124.7176508394,900.617372297297)
(-27401.7826484849,15854.4733802691,1704.5247348176)
(-28765.763527638,15268.1536051002,2213.5985097286)
(-31663.1500209286,14100.0885988784,2072.49895673479)
(-38037.377041643,12050.645597448,826.795009466265)
(-54301.1571621374,8844.61710009208,-96.5742486883854)
(-107461.300498868,5066.59442359677,20062.6750446142)
(-127565.015710175,3352.83976517785,30936.3871022188)
(-113163.423054526,2959.08833194003,-21171.7558144941)
(-125108.644010136,1842.00388055078,-239129.058231609)
(0,0,0)
(0,0,0)
(0,0,0)
(0,0,0)
(0,0,0)
(0,0,0)
(-34807.0298095497,20573.6344517099,524.494846763727)
(-35274.6420833939,20375.0978262955,887.421004502085)
(-36498.8900553311,19986.3369136968,835.019692820493)
(-39211.5256367214,19321.0441681974,-156.678668178814)
(-45396.3962442395,18237.4414932015,-2534.82486665311)
(-61681.6739627546,16531.8776476875,-3885.4134737281)
(-112504.775435966,14019.4618151475,18426.4680760001)
(-131052.575372921,12672.9689693327,30723.4569307703)
(-117095.666577378,9188.89556413974,-22015.826891111)
(-126994.55888243,4568.63436263219,-240723.602584208)
(0,0,0)
(0,0,0)
(0,0,0)
(0,0,0)
(0,0,0)
(0,0,0)
(-47855.0903796431,22997.4073591763,241.821827539927)
(-48249.7064720534,22867.664737111,318.169372139701)
(-49278.0020073718,22681.3580971214,-63.2335051157873)
(-51672.185532969,22526.9307422854,-1436.83412650455)
(-57354.8266659661,22523.5508811604,-4354.66008151755)
(-73337.8161943911,22753.8486988394,-6394.62582494129)
(-126431.938013218,22713.8957515702,17024.7785431614)
(-143424.045264253,26016.658378488,27314.8104909419)
(-122897.19779355,14596.2431049642,-26418.0707006146)
(-130115.467198145,6065.24840043655,-245073.49028259)
(0,0,0)
(0,0,0)
(0,0,0)
(0,0,0)
(0,0,0)
(0,0,0)
(-68891.2851049493,15687.3902255677,104.073106554998)
(-69189.176305963,15609.6552699611,73.9173285215875)
(-69964.8958510773,15574.7407314391,-335.384790299129)
(-71832.2481099269,15792.900062137,-1546.3225301175)
(-76543.1210511262,16861.1984130096,-4180.68199627631)
(-91249.0445604818,20173.1740229133,-6390.23915907611)
(-149204.55138414,27197.2303267396,20250.4794202718)
(-121938.085511674,17483.7513711688,15891.9391965538)
(-127798.534181098,6423.96658793073,-34826.583781709)
(-135055.13177958,4.31095069144136,-251001.941802981)
(0,0,0)
(0,0,0)
(0,0,0)
(0,0,0)
(0,0,0)
(0,0,0)
(-99241.8552732606,-31223.7812275823,77.0240817847832)
(-99402.5996698192,-31291.0329262691,66.541484059006)
(-99879.1438607123,-31331.0787823225,-119.176351640597)
(-101028.481156677,-31266.1425126086,-497.94550105454)
(-103632.483787462,-30765.4353945758,-865.393122383738)
(-109923.535337881,-29610.219376687,709.324718933786)
(-123630.825195644,-28836.1919226201,10497.8865861359)
(-128165.986951683,-35154.3349021536,4815.79506676757)
(-140017.231095042,-40849.8276787579,-41195.0098828513)
(-142395.240981675,-35476.2200127591,-250957.664328583)
(0,0,0)
(0,0,0)
(0,0,0)
(0,0,0)
(0,0,0)
(0,0,0)
(-121749.102637796,-245339.686258427,65.235593854062)
(-121815.36308031,-245382.950867095,64.1276426656882)
(-122030.367239704,-245471.607464393,14.6515899663074)
(-122568.195403122,-245644.630552353,20.9044487015218)
(-123691.973681608,-245759.992234185,299.456561880527)
(-126064.833434427,-246134.005886075,1559.18978713978)
(-130446.521311157,-247767.562375986,4182.19671409347)
(-135320.23797922,-251980.779859826,-871.27969959181)
(-142463.832583773,-251114.633326155,-35768.5565386357)
(-137559.559954421,-215373.104458769,-215431.707946194)
(0,0,0)
(0,0,0)
(0,0,0)
(0,0,0)
(0,0,0)
(0,0,0)
(0,0,0)
(0,0,0)
(0,0,0)
(0,0,0)
(0,0,0)
(0,0,0)
(0,0,0)
(0,0,0)
(0,0,0)
(0,0,0)
(0,0,0)
(0,0,0)
(0,0,0)
(0,0,0)
(0,0,0)
(0,0,0)
(0,0,0)
(0,0,0)
(0,0,0)
(0,0,0)
(0,0,0)
(0,0,0)
(0,0,0)
(0,0,0)
(0,0,0)
(0,0,0)
(0,0,0)
(0,0,0)
(0,0,0)
(0,0,0)
(0,0,0)
(0,0,0)
(0,0,0)
(0,0,0)
(0,0,0)
(0,0,0)
(0,0,0)
(0,0,0)
(0,0,0)
(0,0,0)
(0,0,0)
(0,0,0)
(0,0,0)
(0,0,0)
(0,0,0)
(0,0,0)
(0,0,0)
(0,0,0)
(0,0,0)
(0,0,0)
(0,0,0)
(0,0,0)
(0,0,0)
(0,0,0)
(0,0,0)
(0,0,0)
(0,0,0)
(0,0,0)
(0,0,0)
(0,0,0)
(0,0,0)
(0,0,0)
(0,0,0)
(0,0,0)
(0,0,0)
(0,0,0)
(0,0,0)
(0,0,0)
(0,0,0)
(0,0,0)
(0,0,0)
(0,0,0)
(0,0,0)
(0,0,0)
(0,0,0)
(0,0,0)
(0,0,0)
(0,0,0)
(0,0,0)
(0,0,0)
(0,0,0)
(0,0,0)
(0,0,0)
(0,0,0)
(0,0,0)
(0,0,0)
(0,0,0)
(0,0,0)
(0,0,0)
(0,0,0)
(0,0,0)
(0,0,0)
(0,0,0)
(0,0,0)
(0,0,0)
(0,0,0)
(-19654.392421445,1707.07273232745,1478.61690305273)
(-20222.1228377985,1617.66319919277,2938.0211346796)
(-21522.8078706971,1361.44004012701,4379.21515227243)
(-23785.1421092435,861.087660289084,5733.48140580423)
(-27432.878446152,1.76063494377512,6724.54508039089)
(-32965.6390516767,-1275.87803383275,6464.13355024267)
(-40884.0037265211,-2578.08895120959,2210.42844178405)
(-50880.1870703543,-2640.06358843779,-13053.5645062448)
(-58963.4623476619,-1612.61024325968,-51512.685918008)
(-51305.7024357971,-655.173498449171,-121135.789251733)
(0,0,0)
(0,0,0)
(0,0,0)
(0,0,0)
(0,0,0)
(0,0,0)
(-20413.8669610581,3488.33289131569,1336.07495760554)
(-20959.4152181323,3295.48537990417,2636.385480413)
(-22160.5208247277,2803.62068164088,3845.46947403727)
(-24254.6078622546,1782.13584069648,4852.93655965894)
(-27677.7323220627,-164.845680495102,5475.28954589712)
(-33031.5582862512,-3459.82954515173,5211.81827130824)
(-40884.7662470505,-7687.06373130674,2236.48762510429)
(-50559.8720524375,-7667.92135599156,-11975.4833777636)
(-58495.7491675923,-4058.30218646489,-50543.2719057069)
(-51007.8466115297,-1496.56790473246,-120422.787686276)
(0,0,0)
(0,0,0)
(0,0,0)
(0,0,0)
(0,0,0)
(0,0,0)
(-21939.4290236212,5328.83941083122,1081.17948954929)
(-22428.8087280436,5056.39996167876,2060.23457017789)
(-23465.3925953053,4416.48935682688,2735.44183550822)
(-25291.3318475793,2948.10198848528,2856.36481519303)
(-28338.2506786285,-248.032936280979,2168.76159457808)
(-33399.6274759296,-7086.73660893983,1032.66705147499)
(-41948.6056366653,-20290.6945673552,2371.64665885913)
(-50362.4066923126,-20122.4870159782,-8248.92082095922)
(-57406.571921429,-8047.24712890973,-47895.3100966361)
(-50352.857745474,-2441.46237589911,-118791.787095153)
(0,0,0)
(0,0,0)
(0,0,0)
(0,0,0)
(0,0,0)
(0,0,0)
(-24450.8841765744,7089.08420848166,729.191864920241)
(-24833.0372970597,6814.16691704165,1228.11442381389)
(-25669.7778800893,6189.74868686378,1086.65095569157)
(-27114.1291957618,4653.472788879,-450.56408457512)
(-29497.0681672013,924.862471207336,-4760.02711250229)
(-34108.9479543216,-9676.50189338496,-12180.8266721459)
(-50891.0645275338,-50792.2572194931,2646.37279102713)
(-53645.5301959623,-53487.8965611989,3966.36431005777)
(-55018.7056333796,-12004.5835892887,-42150.8579237462)
(-49108.0737529238,-2639.06353067956,-116127.22939245)
(0,0,0)
(0,0,0)
(0,0,0)
(0,0,0)
(0,0,0)
(0,0,0)
(-28382.3190469228,8273.43019108022,338.93786570355)
(-28642.3531096631,8055.17895646356,338.496287459509)
(-29199.8876211573,7620.61169965761,-658.24263181377)
(-30035.0572366177,6636.03826219579,-4268.90088944018)
(-30620.397816764,4687.51195601421,-15448.5295991283)
(-27527.7105885145,1426.45926620766,-53324.9373323454)
(3.01390266679727e-05,7.49879504543934e-06,-2.05929463249741e-05)