/*--------------------------------*- C++ -*----------------------------------*\
| =========                 |                                                 |
| \\      /  F ield         | foam-extend: Open Source CFD                    |
|  \\    /   O peration     | Version:     4.0                                |
|   \\  /    A nd           | Web:         http://www.foam-extend.org         |
|    \\/     M anipulation  |                                                 |
\*---------------------------------------------------------------------------*/
FoamFile
{
    version 2.0;
    format ascii;
    class volVectorField;
    location "3956";
    object      H;
}
// * * * * * * * * * * * * * * * * * * * * * * * * * * * * * * * * * * * * * //

dimensions      [0 1 -1 0 0 0 0];

internalField   nonuniform List<vector>
4096
(
(0,0,0)
(0,0,0)
(0,0,0)
(0,0,0)
(0,0,0)
(0,0,0)
(0,0,0)
(0,0,0)
(0,0,0)
(0,0,0)
(0,0,0)
(0,0,0)
(0,0,0)
(0,0,0)
(0,0,0)
(0,0,0)
(0,0,0)
(0,0,0)
(0,0,0)
(0,0,0)
(0,0,0)
(0,0,0)
(0,0,0)
(0,0,0)
(0,0,0)
(0,0,0)
(0,0,0)
(0,0,0)
(0,0,0)
(0,0,0)
(0,0,0)
(0,0,0)
(0,0,0)
(0,0,0)
(0,0,0)
(0,0,0)
(0,0,0)
(0,0,0)
(0,0,0)
(0,0,0)
(0,0,0)
(0,0,0)
(0,0,0)
(0,0,0)
(0,0,0)
(0,0,0)
(0,0,0)
(0,0,0)
(0,0,0)
(0,0,0)
(0,0,0)
(0,0,0)
(0,0,0)
(0,0,0)
(0,0,0)
(0,0,0)
(0,0,0)
(0,0,0)
(0,0,0)
(0,0,0)
(0,0,0)
(0,0,0)
(0,0,0)
(0,0,0)
(0,0,0)
(0,0,0)
(0,0,0)
(0,0,0)
(0,0,0)
(0,0,0)
(0,0,0)
(0,0,0)
(0,0,0)
(0,0,0)
(0,0,0)
(0,0,0)
(0,0,0)
(0,0,0)
(0,0,0)
(0,0,0)
(0,0,0)
(0,0,0)
(0,0,0)
(0,0,0)
(0,0,0)
(0,0,0)
(0,0,0)
(0,0,0)
(0,0,0)
(0,0,0)
(0,0,0)
(0,0,0)
(0,0,0)
(0,0,0)
(0,0,0)
(0,0,0)
(0,0,0)
(0,0,0)
(0,0,0)
(0,0,0)
(0,0,0)
(0,0,0)
(0,0,0)
(0,0,0)
(0,0,0)
(0,0,0)
(0,0,0)
(0,0,0)
(0,0,0)
(0,0,0)
(0,0,0)
(0,0,0)
(0,0,0)
(0,0,0)
(0,0,0)
(0,0,0)
(0,0,0)
(0,0,0)
(0,0,0)
(0,0,0)
(0,0,0)
(0,0,0)
(0,0,0)
(0,0,0)
(0,0,0)
(0,0,0)
(0,0,0)
(0,0,0)
(0,0,0)
(0,0,0)
(0,0,0)
(0,0,0)
(0,0,0)
(0,0,0)
(0,0,0)
(0,0,0)
(0,0,0)
(0,0,0)
(0,0,0)
(0,0,0)
(0,0,0)
(0,0,0)
(0,0,0)
(0,0,0)
(0,0,0)
(0,0,0)
(0,0,0)
(0,0,0)
(0,0,0)
(0,0,0)
(0,0,0)
(0,0,0)
(0,0,0)
(0,0,0)
(0,0,0)
(0,0,0)
(0,0,0)
(0,0,0)
(0,0,0)
(0,0,0)
(0,0,0)
(0,0,0)
(0,0,0)
(0,0,0)
(0,0,0)
(0,0,0)
(0,0,0)
(0,0,0)
(0,0,0)
(0,0,0)
(0,0,0)
(0,0,0)
(0,0,0)
(0,0,0)
(0,0,0)
(0,0,0)
(0,0,0)
(0,0,0)
(0,0,0)
(0,0,0)
(0,0,0)
(0,0,0)
(0,0,0)
(0,0,0)
(0,0,0)
(0,0,0)
(0,0,0)
(0,0,0)
(0,0,0)
(0,0,0)
(0,0,0)
(0,0,0)
(0,0,0)
(0,0,0)
(0,0,0)
(0,0,0)
(0,0,0)
(0,0,0)
(0,0,0)
(0,0,0)
(0,0,0)
(0,0,0)
(0,0,0)
(0,0,0)
(0,0,0)
(0,0,0)
(0,0,0)
(0,0,0)
(0,0,0)
(0,0,0)
(0,0,0)
(0,0,0)
(0,0,0)
(0,0,0)
(0,0,0)
(0,0,0)
(0,0,0)
(0,0,0)
(0,0,0)
(0,0,0)
(0,0,0)
(0,0,0)
(0,0,0)
(0,0,0)
(0,0,0)
(0,0,0)
(0,0,0)
(0,0,0)
(0,0,0)
(0,0,0)
(0,0,0)
(0,0,0)
(0,0,0)
(0,0,0)
(0,0,0)
(0,0,0)
(0,0,0)
(0,0,0)
(0,0,0)
(0,0,0)
(0,0,0)
(0,0,0)
(0,0,0)
(0,0,0)
(0,0,0)
(0,0,0)
(0,0,0)
(0,0,0)
(0,0,0)
(0,0,0)
(0,0,0)
(0,0,0)
(0,0,0)
(0,0,0)
(0,0,0)
(0,0,0)
(0,0,0)
(0,0,0)
(0,0,0)
(0,0,0)
(0,0,0)
(0,0,0)
(0,0,0)
(0,0,0)
(0,0,0)
(0,0,0)
(0,0,0)
(0,0,0)
(0,0,0)
(0,0,0)
(0,0,0)
(0,0,0)
(0,0,0)
(0,0,0)
(0,0,0)
(0,0,0)
(0,0,0)
(0,0,0)
(0,0,0)
(0,0,0)
(0,0,0)
(0,0,0)
(0,0,0)
(0,0,0)
(0,0,0)
(0,0,0)
(0,0,0)
(0,0,0)
(0,0,0)
(0,0,0)
(0,0,0)
(0,0,0)
(0,0,0)
(0,0,0)
(0,0,0)
(0,0,0)
(0,0,0)
(0,0,0)
(0,0,0)
(0,0,0)
(0,0,0)
(0,0,0)
(0,0,0)
(0,0,0)
(0,0,0)
(0,0,0)
(0,0,0)
(0,0,0)
(0,0,0)
(0,0,0)
(0,0,0)
(0,0,0)
(0,0,0)
(0,0,0)
(0,0,0)
(0,0,0)
(0,0,0)
(0,0,0)
(0,0,0)
(0,0,0)
(0,0,0)
(0,0,0)
(0,0,0)
(0,0,0)
(0,0,0)
(0,0,0)
(0,0,0)
(0,0,0)
(0,0,0)
(0,0,0)
(0,0,0)
(0,0,0)
(0,0,0)
(0,0,0)
(0,0,0)
(0,0,0)
(0,0,0)
(0,0,0)
(0,0,0)
(0,0,0)
(0,0,0)
(0,0,0)
(0,0,0)
(0,0,0)
(0,0,0)
(0,0,0)
(0,0,0)
(0,0,0)
(0,0,0)
(0,0,0)
(0,0,0)
(0,0,0)
(0,0,0)
(0,0,0)
(0,0,0)
(0,0,0)
(0,0,0)
(0,0,0)
(0,0,0)
(0,0,0)
(0,0,0)
(0,0,0)
(0,0,0)
(0,0,0)
(0,0,0)
(0,0,0)
(0,0,0)
(0,0,0)
(0,0,0)
(0,0,0)
(0,0,0)
(0,0,0)
(0,0,0)
(0,0,0)
(0,0,0)
(0,0,0)
(0,0,0)
(0,0,0)
(0,0,0)
(0,0,0)
(0,0,0)
(0,0,0)
(0,0,0)
(0,0,0)
(0,0,0)
(0,0,0)
(0,0,0)
(0,0,0)
(0,0,0)
(0,0,0)
(0,0,0)
(0,0,0)
(0,0,0)
(0,0,0)
(0,0,0)
(0,0,0)
(0,0,0)
(0,0,0)
(0,0,0)
(0,0,0)
(0,0,0)
(0,0,0)
(0,0,0)
(0,0,0)
(0,0,0)
(0,0,0)
(0,0,0)
(0,0,0)
(0,0,0)
(0,0,0)
(0,0,0)
(0,0,0)
(0,0,0)
(0,0,0)
(0,0,0)
(0,0,0)
(0,0,0)
(0,0,0)
(0,0,0)
(0,0,0)
(0,0,0)
(0,0,0)
(0,0,0)
(0,0,0)
(0,0,0)
(0,0,0)
(0,0,0)
(0,0,0)
(0,0,0)
(0,0,0)
(0,0,0)
(0,0,0)
(0,0,0)
(0,0,0)
(0,0,0)
(0,0,0)
(0,0,0)
(0,0,0)
(0,0,0)
(0,0,0)
(0,0,0)
(0,0,0)
(0,0,0)
(0,0,0)
(0,0,0)
(0,0,0)
(0,0,0)
(0,0,0)
(0,0,0)
(0,0,0)
(0,0,0)
(0,0,0)
(0,0,0)
(0,0,0)
(0,0,0)
(0,0,0)
(0,0,0)
(0,0,0)
(0,0,0)
(0,0,0)
(0,0,0)
(0,0,0)
(0,0,0)
(0,0,0)
(0,0,0)
(0,0,0)
(0,0,0)
(0,0,0)
(0,0,0)
(0,0,0)
(0,0,0)
(0,0,0)
(0,0,0)
(0,0,0)
(0,0,0)
(0,0,0)
(0,0,0)
(0,0,0)
(0,0,0)
(0,0,0)
(0,0,0)
(0,0,0)
(0,0,0)
(0,0,0)
(0,0,0)
(0,0,0)
(0,0,0)
(0,0,0)
(0,0,0)
(0,0,0)
(0,0,0)
(0,0,0)
(0,0,0)
(0,0,0)
(0,0,0)
(0,0,0)
(0,0,0)
(0,0,0)
(0,0,0)
(0,0,0)
(0,0,0)
(0,0,0)
(0,0,0)
(0,0,0)
(0,0,0)
(0,0,0)
(0,0,0)
(0,0,0)
(0,0,0)
(0,0,0)
(0,0,0)
(0,0,0)
(0,0,0)
(0,0,0)
(0,0,0)
(0,0,0)
(0,0,0)
(0,0,0)
(0,0,0)
(0,0,0)
(0,0,0)
(0,0,0)
(0,0,0)
(0,0,0)
(0,0,0)
(0,0,0)
(0,0,0)
(0,0,0)
(0,0,0)
(0,0,0)
(0,0,0)
(0,0,0)
(0,0,0)
(0,0,0)
(0,0,0)
(0,0,0)
(0,0,0)
(0,0,0)
(0,0,0)
(0,0,0)
(0,0,0)
(0,0,0)
(0,0,0)
(0,0,0)
(0,0,0)
(0,0,0)
(0,0,0)
(0,0,0)
(0,0,0)
(0,0,0)
(0,0,0)
(0,0,0)
(0,0,0)
(0,0,0)
(0,0,0)
(0,0,0)
(0,0,0)
(0,0,0)
(0,0,0)
(0,0,0)
(0,0,0)
(0,0,0)
(0,0,0)
(0,0,0)
(0,0,0)
(0,0,0)
(0,0,0)
(0,0,0)
(0,0,0)
(0,0,0)
(0,0,0)
(0,0,0)
(0,0,0)
(0,0,0)
(0,0,0)
(0,0,0)
(0,0,0)
(0,0,0)
(0,0,0)
(0,0,0)
(0,0,0)
(0,0,0)
(0,0,0)
(0,0,0)
(0,0,0)
(0,0,0)
(0,0,0)
(0,0,0)
(0,0,0)
(0,0,0)
(0,0,0)
(0,0,0)
(0,0,0)
(0,0,0)
(0,0,0)
(0,0,0)
(0,0,0)
(0,0,0)
(0,0,0)
(0,0,0)
(0,0,0)
(0,0,0)
(0,0,0)
(0,0,0)
(0,0,0)
(0,0,0)
(0,0,0)
(0,0,0)
(0,0,0)
(0,0,0)
(0,0,0)
(0,0,0)
(0,0,0)
(0,0,0)
(0,0,0)
(0,0,0)
(0,0,0)
(0,0,0)
(0,0,0)
(0,0,0)
(0,0,0)
(0,0,0)
(0,0,0)
(0,0,0)
(0,0,0)
(0,0,0)
(0,0,0)
(0,0,0)
(0,0,0)
(0,0,0)
(0,0,0)
(0,0,0)
(0,0,0)
(0,0,0)
(0,0,0)
(0,0,0)
(0,0,0)
(0,0,0)
(0,0,0)
(0,0,0)
(0,0,0)
(0,0,0)
(0,0,0)
(0,0,0)
(0,0,0)
(0,0,0)
(0,0,0)
(0,0,0)
(0,0,0)
(0,0,0)
(0,0,0)
(0,0,0)
(0,0,0)
(0,0,0)
(0,0,0)
(0,0,0)
(0,0,0)
(0,0,0)
(0,0,0)
(0,0,0)
(0,0,0)
(0,0,0)
(0,0,0)
(0,0,0)
(0,0,0)
(0,0,0)
(0,0,0)
(0,0,0)
(0,0,0)
(0,0,0)
(0,0,0)
(0,0,0)
(0,0,0)
(0,0,0)
(0,0,0)
(0,0,0)
(0,0,0)
(0,0,0)
(0,0,0)
(0,0,0)
(0,0,0)
(0,0,0)
(0,0,0)
(0,0,0)
(0,0,0)
(0,0,0)
(0,0,0)
(0,0,0)
(0,0,0)
(0,0,0)
(0,0,0)
(0,0,0)
(0,0,0)
(0,0,0)
(0,0,0)
(0,0,0)
(0,0,0)
(0,0,0)
(0,0,0)
(0,0,0)
(0,0,0)
(0,0,0)
(0,0,0)
(0,0,0)
(0,0,0)
(0,0,0)
(0,0,0)
(0,0,0)
(0,0,0)
(0,0,0)
(0,0,0)
(0,0,0)
(0,0,0)
(0,0,0)
(0,0,0)
(0,0,0)
(0,0,0)
(0,0,0)
(0,0,0)
(0,0,0)
(0,0,0)
(0,0,0)
(0,0,0)
(0,0,0)
(0,0,0)
(0,0,0)
(0,0,0)
(0,0,0)
(0,0,0)
(0,0,0)
(0,0,0)
(0,0,0)
(0,0,0)
(0,0,0)
(0,0,0)
(0,0,0)
(0,0,0)
(0,0,0)
(0,0,0)
(0,0,0)
(0,0,0)
(0,0,0)
(0,0,0)
(0,0,0)
(0,0,0)
(0,0,0)
(0,0,0)
(0,0,0)
(0,0,0)
(0,0,0)
(0,0,0)
(0,0,0)
(0,0,0)
(0,0,0)
(0,0,0)
(0,0,0)
(0,0,0)
(0,0,0)
(0,0,0)
(0,0,0)
(0,0,0)
(0,0,0)
(0,0,0)
(0,0,0)
(0,0,0)
(0,0,0)
(0,0,0)
(0,0,0)
(0,0,0)
(0,0,0)
(0,0,0)
(0,0,0)
(0,0,0)
(0,0,0)
(0,0,0)
(0,0,0)
(0,0,0)
(0,0,0)
(0,0,0)
(0,0,0)
(0,0,0)
(0,0,0)
(0,0,0)
(0,0,0)
(0,0,0)
(0,0,0)
(0,0,0)
(0,0,0)
(0,0,0)
(0,0,0)
(0,0,0)
(0,0,0)
(0,0,0)
(0,0,0)
(0,0,0)
(0,0,0)
(0,0,0)
(0,0,0)
(0,0,0)
(0,0,0)
(0,0,0)
(0,0,0)
(0,0,0)
(0,0,0)
(0,0,0)
(0,0,0)
(0,0,0)
(0,0,0)
(0,0,0)
(0,0,0)
(0,0,0)
(0,0,0)
(0,0,0)
(0,0,0)
(0,0,0)
(0,0,0)
(0,0,0)
(0,0,0)
(0,0,0)
(-2.2353365690261e-12,-1.24979933723071e-11,1.36868150842518e-11)
(-3.54343612737451e-12,-2.70827930500578e-11,1.33490509076621e-11)
(-3.86887722647141e-12,-4.63477426795649e-11,1.24140724565607e-11)
(-2.59428487605377e-12,-7.47681376235745e-11,1.08902501302013e-11)
(-5.89882061111513e-13,-1.15662144830505e-10,8.96280756409198e-12)
(1.04475488754786e-12,-1.79227337224628e-10,6.37519847432678e-12)
(3.41962115834473e-12,-2.83514114637178e-10,3.64940504978765e-12)
(5.25659268279709e-12,-4.57194287443541e-10,1.89898251759392e-12)
(7.98932752016904e-12,-7.44167637195815e-10,7.60228866690218e-13)
(9.38497199754958e-12,-1.14369603096407e-09,1.50515488300078e-13)
(0,0,0)
(0,0,0)
(0,0,0)
(0,0,0)
(0,0,0)
(0,0,0)
(-2.53227813476974e-12,-1.22893053126494e-11,2.89368997338443e-11)
(-4.40190081945038e-12,-2.62197736794209e-11,2.79600081186671e-11)
(-5.91488928259616e-12,-4.48063630933493e-11,2.61862631382133e-11)
(-4.66362589581197e-12,-7.25308263259508e-11,2.32970888161912e-11)
(-1.59587559946422e-12,-1.12648875392276e-10,1.92665199751889e-11)
(1.24082748155043e-12,-1.76238927936022e-10,1.39663676102598e-11)
(5.16450940438863e-12,-2.81481191064014e-10,8.53084771593272e-12)
(9.35192983534918e-12,-4.56131494856495e-10,4.83677080532398e-12)
(1.45795764678346e-11,-7.43553001408674e-10,2.67439021530543e-12)
(1.73146367895613e-11,-1.14389138598216e-09,1.12400752946559e-12)
(0,0,0)
(0,0,0)
(0,0,0)
(0,0,0)
(0,0,0)
(0,0,0)
(-2.27180616267509e-12,-1.14967204957864e-11,4.93773377708995e-11)
(-4.60472424495429e-12,-2.44567212564214e-11,4.83416983380876e-11)
(-6.50524628903621e-12,-4.17191904043973e-11,4.57322094255668e-11)
(-4.89409427246864e-12,-6.77534796011317e-11,4.12752776169687e-11)
(-1.39374546106538e-12,-1.06878244686453e-10,3.50821644266953e-11)
(1.47776931656494e-12,-1.70689636940488e-10,2.70512765738631e-11)
(5.93415603087275e-12,-2.77703831365752e-10,1.89153981254725e-11)
(1.12137196941834e-11,-4.54453196125657e-10,1.30877978912325e-11)
(1.55168098830925e-11,-7.42153348431407e-10,9.02508599840279e-12)
(1.77914574008315e-11,-1.14281840294535e-09,4.83065429104299e-12)
(0,0,0)
(0,0,0)
(0,0,0)
(0,0,0)
(0,0,0)
(0,0,0)
(-2.92801671222036e-12,-9.94819816773643e-12,7.66746716208586e-11)
(-5.76186096721171e-12,-2.10506726156475e-11,7.52699831091192e-11)
(-7.5806587051262e-12,-3.62284401639123e-11,7.20763782935201e-11)
(-6.12832447366815e-12,-5.99784392748178e-11,6.67694580200857e-11)
(-2.31317821095492e-12,-9.77124160794077e-11,5.94718729904372e-11)
(6.68837751726958e-13,-1.615411035775e-10,5.06030769448585e-11)
(5.73290125420921e-12,-2.70972536381558e-10,4.05817344534781e-11)
(1.09879862250932e-11,-4.51016567487256e-10,3.12464405514432e-11)
(1.40764488140768e-11,-7.39069443386235e-10,2.19417157776931e-11)
(1.5182106080487e-11,-1.13889724716112e-09,1.14958601071131e-11)
(0,0,0)
(0,0,0)
(0,0,0)
(0,0,0)
(0,0,0)
(0,0,0)
(-4.56431900316397e-12,-8.28224267381942e-12,1.15748898709926e-10)
(-7.36053384066074e-12,-1.73756707391266e-11,1.14512074410558e-10)
(-8.68791896807912e-12,-2.98955718348855e-11,1.11403737469299e-10)
(-7.69342690909414e-12,-5.05866459272977e-11,1.06627057474388e-10)
(-3.28067636918263e-12,-8.59737611837387e-11,9.99684826187178e-11)
(5.08715910629719e-13,-1.48449154353279e-10,9.21530990379419e-11)
(6.74455265694276e-12,-2.59546546611394e-10,8.19169563117488e-11)
(1.11235709075433e-11,-4.42939625723714e-10,6.65129544366622e-11)
(1.29017809713475e-11,-7.31193575464037e-10,4.7363331200923e-11)
(1.33079971494419e-11,-1.12976524111581e-09,2.47331375447766e-11)
(0,0,0)
(0,0,0)
(0,0,0)
(0,0,0)
(0,0,0)
(0,0,0)
(-4.66564063544608e-12,-7.02839009573611e-12,1.77261828170285e-10)
(-8.0088462902477e-12,-1.40200409084129e-11,1.75758822146801e-10)
(-8.58472899096201e-12,-2.37822637284816e-11,1.73016412124376e-10)
(-7.39356481148562e-12,-4.12985397772306e-11,1.69646849112381e-10)
(-3.10559781152234e-12,-7.37900008896921e-11,1.64281985597004e-10)
(2.09102247092084e-12,-1.33986695875484e-10,1.56132330792792e-10)
(7.87304134729887e-12,-2.45464329349713e-10,1.42835543393562e-10)
(1.14434923905594e-11,-4.26735001528955e-10,1.20578407093905e-10)
(1.29750194160688e-11,-7.11897811367666e-10,8.83225573469961e-11)
(1.30731200891205e-11,-1.10805049323666e-09,4.68940699210662e-11)
(0,0,0)
(0,0,0)
(0,0,0)
(0,0,0)
(0,0,0)
(0,0,0)
(-4.64211952247105e-12,-5.2415966944731e-12,2.77238229761794e-10)
(-7.94807150570585e-12,-1.06832391735182e-11,2.75898892292509e-10)
(-8.57828488121643e-12,-1.84114876316504e-11,2.73875401977828e-10)
(-6.71832514471029e-12,-3.30361210929576e-11,2.71438233375758e-10)
(-1.30786855736067e-12,-6.16724996871651e-11,2.67047635451836e-10)
(5.07108691430044e-12,-1.17228822473087e-10,2.57735171106175e-10)
(9.41853563073946e-12,-2.24428205866559e-10,2.38744895571872e-10)
(1.15730754521376e-11,-3.97153536242074e-10,2.07146157924375e-10)
(1.16033304912171e-11,-6.73307060520977e-10,1.55361562806623e-10)
(1.1990190872017e-11,-1.06363412654595e-09,8.44329988573199e-11)
(0,0,0)
(0,0,0)
(0,0,0)
(0,0,0)
(0,0,0)
(0,0,0)
(-3.10897331184971e-12,-3.59900230537148e-12,4.46660591887184e-10)
(-5.11866469357497e-12,-8.14374306802772e-12,4.45510068783134e-10)
(-5.7816137687332e-12,-1.44664594537626e-11,4.43968685605065e-10)
(-4.28907736154927e-12,-2.68282312779628e-11,4.41573428206129e-10)
(1.28210638191989e-12,-5.12793300449845e-11,4.36496699755501e-10)
(7.31083457290328e-12,-9.98162263891098e-11,4.24871221779676e-10)
(1.14347551037777e-11,-1.93177724539442e-10,4.0025144124591e-10)
(1.30192087699204e-11,-3.4693217307037e-10,3.52893710547228e-10)
(1.26066154617327e-11,-6.04531261008663e-10,2.7303585486961e-10)
(1.36059642797889e-11,-9.81161839398354e-10,1.54505609908962e-10)
(0,0,0)
(0,0,0)
(0,0,0)
(0,0,0)
(0,0,0)
(0,0,0)
(-1.42849163237566e-12,-2.00668033741906e-12,7.2906707618544e-10)
(-2.14807851709501e-12,-5.47179965050658e-12,7.27971976517511e-10)
(-2.12238223770277e-12,-1.03207664350794e-11,7.26437251412122e-10)
(-1.04958834261579e-12,-1.96871468333226e-11,7.23640886686562e-10)
(3.52387685425056e-12,-3.80779113317246e-11,7.17035229598996e-10)
(8.72804919459083e-12,-7.48003943226508e-11,7.01622891558288e-10)
(1.25437170866557e-11,-1.451599348632e-10,6.68944862651086e-10)
(1.38153567241051e-11,-2.67553292873024e-10,6.04732087094751e-10)
(1.36878179398304e-11,-4.87100908903076e-10,4.88823390856008e-10)
(1.50773978050526e-11,-8.27636023252492e-10,2.93624012672761e-10)
(0,0,0)
(0,0,0)
(0,0,0)
(0,0,0)
(0,0,0)
(0,0,0)
(3.19672752221113e-13,-1.13992481068003e-12,1.1263069823588e-09)
(7.58694524396424e-13,-3.11254733817511e-12,1.12480365787139e-09)
(1.9349714969945e-12,-5.76636405983484e-12,1.12282544625192e-09)
(2.00317865768369e-12,-1.05694386823487e-11,1.11939716953413e-09)
(4.15648388110789e-12,-2.03316967193385e-11,1.1117081876683e-09)
(8.85456224214998e-12,-4.04405593236078e-11,1.09377464761128e-09)
(1.22036524582906e-11,-7.94920618613376e-11,1.05514359737669e-09)
(1.33804166534086e-11,-1.51362492751717e-10,9.77124925606068e-10)
(1.31516351954853e-11,-2.92079276222437e-10,8.26131263811467e-10)
(1.52613773217801e-11,-5.34080007245343e-10,5.33950700210049e-10)
(0,0,0)
(0,0,0)
(0,0,0)
(0,0,0)
(0,0,0)
(0,0,0)
(0,0,0)
(0,0,0)
(0,0,0)
(0,0,0)
(0,0,0)
(0,0,0)
(0,0,0)
(0,0,0)
(0,0,0)
(0,0,0)
(0,0,0)
(0,0,0)
(0,0,0)
(0,0,0)
(0,0,0)
(0,0,0)
(0,0,0)
(0,0,0)
(0,0,0)
(0,0,0)
(0,0,0)
(0,0,0)
(0,0,0)
(0,0,0)
(0,0,0)
(0,0,0)
(0,0,0)
(0,0,0)
(0,0,0)
(0,0,0)
(0,0,0)
(0,0,0)
(0,0,0)
(0,0,0)
(0,0,0)
(0,0,0)
(0,0,0)
(0,0,0)
(0,0,0)
(0,0,0)
(0,0,0)
(0,0,0)
(0,0,0)
(0,0,0)
(0,0,0)
(0,0,0)
(0,0,0)
(0,0,0)
(0,0,0)
(0,0,0)
(0,0,0)
(0,0,0)
(0,0,0)
(0,0,0)
(0,0,0)
(0,0,0)
(0,0,0)
(0,0,0)
(0,0,0)
(0,0,0)
(0,0,0)
(0,0,0)
(0,0,0)
(0,0,0)
(0,0,0)
(0,0,0)
(0,0,0)
(0,0,0)
(0,0,0)
(0,0,0)
(0,0,0)
(0,0,0)
(0,0,0)
(0,0,0)
(0,0,0)
(0,0,0)
(0,0,0)
(0,0,0)
(0,0,0)
(0,0,0)
(0,0,0)
(0,0,0)
(0,0,0)
(0,0,0)
(0,0,0)
(0,0,0)
(0,0,0)
(0,0,0)
(0,0,0)
(0,0,0)
(0,0,0)
(0,0,0)
(0,0,0)
(0,0,0)
(0,0,0)
(0,0,0)
(-2.10626045209669e-12,-2.33578411922239e-11,2.70175547927386e-11)
(-3.47147704691364e-12,-5.05538062778386e-11,2.57705180695528e-11)
(-3.88643448634498e-12,-8.63047879412286e-11,2.34229179464347e-11)
(-2.90415360758474e-12,-1.37217475112952e-10,2.01192537180884e-11)
(-1.01554240963824e-12,-2.09611785375018e-10,1.5510223794646e-11)
(7.82139023597109e-13,-3.20325163684622e-10,9.47522802980504e-12)
(3.13712011750698e-12,-4.97887870069758e-10,3.8548910927083e-12)
(5.33255374652113e-12,-7.99595230199031e-10,9.35979958492649e-13)
(7.98440511083636e-12,-1.37446681820216e-09,5.88505507996072e-14)
(9.73084250371536e-12,-2.68567174457322e-09,-1.64804690770358e-13)
(0,0,0)
(0,0,0)
(0,0,0)
(0,0,0)
(0,0,0)
(0,0,0)
(-2.34797133645679e-12,-2.26069437138357e-11,5.60150148135336e-11)
(-4.39120826198007e-12,-4.87821600969958e-11,5.37231395248216e-11)
(-6.11288764954379e-12,-8.34094238704453e-11,4.98533751324563e-11)
(-5.41040377960354e-12,-1.3260369501477e-10,4.33588020135383e-11)
(-2.06635394034101e-12,-2.03806946197465e-10,3.35114923861272e-11)
(1.12705638031841e-12,-3.15108014942512e-10,2.117481468543e-11)
(5.08122661658389e-12,-4.95267948403549e-10,9.54300628119403e-12)
(9.83601169503284e-12,-7.99293376820185e-10,3.90575424309247e-12)
(1.47303061767469e-11,-1.37489556878793e-09,2.38649400598943e-12)
(1.73656612820798e-11,-2.68676460766643e-09,1.26750531391192e-12)
(0,0,0)
(0,0,0)
(0,0,0)
(0,0,0)
(0,0,0)
(0,0,0)
(-2.78468905791253e-12,-2.09388796968507e-11,9.35551422337816e-11)
(-5.40128397320484e-12,-4.51701432085324e-11,9.10278481049582e-11)
(-7.5390647208865e-12,-7.70837620832405e-11,8.55560257084585e-11)
(-6.47602140852798e-12,-1.22575730192859e-10,7.56457946847827e-11)
(-2.52868621534459e-12,-1.91445025356468e-10,6.09405901865399e-11)
(4.65114401953119e-13,-3.0361905865084e-10,4.21678222689374e-11)
(5.03046128101876e-12,-4.89676400852664e-10,2.34726816122275e-11)
(1.18398029484114e-11,-7.98851338837637e-10,1.4509988627641e-11)
(1.66273365452551e-11,-1.37484102757845e-09,1.07953600669052e-11)
(1.87009559070942e-11,-2.68667017700933e-09,6.36524786851874e-12)
(0,0,0)
(0,0,0)
(0,0,0)
(0,0,0)
(0,0,0)
(0,0,0)
(-3.18928369439697e-12,-1.81108155850908e-11,1.43166374960141e-10)
(-6.24325802813377e-12,-3.88706606659422e-11,1.40366411755473e-10)
(-8.60660676073213e-12,-6.64757002535685e-11,1.33874099293559e-10)
(-8.22253279153701e-12,-1.06786393638387e-10,1.22360981587801e-10)
(-5.18303706103758e-12,-1.71547989300552e-10,1.05654215669145e-10)
(-2.40176898111306e-12,-2.83277938410066e-10,8.40838496687056e-11)
(3.64220538605522e-12,-4.78114515880207e-10,6.00091849007668e-11)
(1.22157692352929e-11,-7.96986679531579e-10,4.51301892588809e-11)
(1.6646436563273e-11,-1.37338700017129e-09,3.28590822134169e-11)
(1.75459601439013e-11,-2.68320736758003e-09,1.7906988156985e-11)
(0,0,0)
(0,0,0)
(0,0,0)
(0,0,0)
(0,0,0)
(0,0,0)
(-4.58134728188106e-12,-1.47335114972793e-11,2.12595704222021e-10)
(-7.60782673011804e-12,-3.13562898275037e-11,2.10287244035773e-10)
(-1.00245470795764e-11,-5.36871529927136e-11,2.0420266105812e-10)
(-1.03229582034901e-11,-8.74669489947825e-11,1.94024038090338e-10)
(-7.64905308245211e-12,-1.45435346345278e-10,1.79729357805304e-10)
(-3.71759984103799e-12,-2.51665952508864e-10,1.62874828603456e-10)
(8.06633727044359e-12,-4.52364381115198e-10,1.46785354211756e-10)
(1.40685699487512e-11,-7.87442499788027e-10,1.15071295011002e-10)
(1.62362105306621e-11,-1.36331852728397e-09,8.11882130530386e-11)
(1.63263868148456e-11,-2.66976628482931e-09,4.25930722494452e-11)
(0,0,0)
(0,0,0)
(0,0,0)
(0,0,0)
(0,0,0)
(0,0,0)
(-4.94942801322307e-12,-1.19294445082454e-11,3.18515276900784e-10)
(-8.60323800272141e-12,-2.4243067831662e-11,3.16142754070694e-10)
(-1.05859420758081e-11,-4.11749653787218e-11,3.11190817573497e-10)
(-1.0291119980379e-11,-6.81578523730264e-11,3.03998110280293e-10)
(-7.07344420982389e-12,-1.18800787654689e-10,2.93664261688595e-10)
(-1.3700635322399e-12,-2.20470573211773e-10,2.79149045738738e-10)
(9.09405416371133e-12,-4.30281617645447e-10,2.59039168491942e-10)
(1.41178768504784e-11,-7.63061136599362e-10,2.16421484864367e-10)
(1.58127559952594e-11,-1.33152269771244e-09,1.56337800012215e-10)
(1.55508233197837e-11,-2.6324759169764e-09,8.25174767316571e-11)
(0,0,0)
(0,0,0)
(0,0,0)
(0,0,0)
(0,0,0)
(0,0,0)
(-4.94537644228945e-12,-8.84159157883229e-12,4.87066711747909e-10)
(-8.46407729651349e-12,-1.79492995195377e-11,4.85098519383589e-10)
(-1.00861444570266e-11,-3.06649976715267e-11,4.81880579692129e-10)
(-8.53561703579049e-12,-5.19848369177635e-11,4.77665138428777e-10)
(-2.38857385383454e-12,-9.44262605224794e-11,4.71934735199151e-10)
(6.64876636461507e-12,-1.85624715312968e-10,4.59833696060641e-10)
(9.76679195114883e-12,-3.93729145154334e-10,4.24387281807798e-10)
(1.31363073979534e-11,-7.11217974587233e-10,3.72669901825326e-10)
(1.37560949286244e-11,-1.26359018958305e-09,2.75803697354805e-10)
(1.39509025826889e-11,-2.55418240414897e-09,1.48518772444067e-10)
(0,0,0)
(0,0,0)
(0,0,0)
(0,0,0)
(0,0,0)
(0,0,0)
(-3.55077217575136e-12,-6.21903136764145e-12,7.79069892322958e-10)
(-6.24922493302542e-12,-1.33470886015092e-11,7.77156345950851e-10)
(-7.53204938847456e-12,-2.32938357930145e-11,7.7465079230025e-10)
(-6.35343335556383e-12,-4.19599756604443e-11,7.71421796630232e-10)
(-2.93834355539498e-13,-8.08818507165071e-11,7.65693180595039e-10)
(6.9147830402933e-12,-1.65326917443027e-10,7.51554188669784e-10)
(1.07746961262806e-11,-3.41734067463028e-10,7.13314743766294e-10)
(1.34981842499464e-11,-6.16877578975227e-10,6.27614056593784e-10)
(1.37065083169087e-11,-1.13937656402088e-09,4.83632497992889e-10)
(1.45857580419145e-11,-2.40801753672898e-09,2.74840185510312e-10)
(0,0,0)
(0,0,0)
(0,0,0)
(0,0,0)
(0,0,0)
(0,0,0)
(-1.20014749118633e-12,-3.79598054913508e-12,1.34444560478417e-09)
(-2.97260572403657e-12,-9.1924446289354e-12,1.34282625282839e-09)
(-3.88041988738287e-12,-1.68198545895895e-11,1.34022887231073e-09)
(-3.56163940601824e-12,-3.17097048149725e-11,1.33622318370868e-09)
(1.19000028258104e-12,-6.28026554423173e-11,1.32701272520163e-09)
(7.04624310270778e-12,-1.27592379488491e-10,1.3039987390155e-09)
(1.10886196411557e-11,-2.54546756573816e-10,1.25040690329377e-09)
(1.35332528415603e-11,-4.72840461028608e-10,1.13740099706188e-09)
(1.38655634423712e-11,-9.31590714454805e-10,9.34494374178521e-10)
(1.51453944706497e-11,-2.13410894455845e-09,5.83820917260856e-10)
(0,0,0)
(0,0,0)
(0,0,0)
(0,0,0)
(0,0,0)
(0,0,0)
(6.83072428950385e-13,-2.01668482560761e-12,2.65002026929575e-09)
(-3.75641194313425e-13,-5.1420511345582e-12,2.6485115150911e-09)
(-4.031158450561e-13,-9.5064145805883e-12,2.64545217270262e-09)
(-8.77278158828597e-13,-1.75177298926318e-11,2.64003036065527e-09)
(1.7583272187829e-12,-3.45608292619656e-11,2.62799850375239e-09)
(7.04505315311513e-12,-6.99773021566257e-11,2.59868252048297e-09)
(1.07302623675467e-11,-1.38629145134393e-10,2.53317965282235e-09)
(1.30115856963252e-11,-2.68658675609823e-10,2.39772825328076e-09)
(1.32529225744626e-11,-5.81049078207691e-10,2.13092389366988e-09)
(1.51320702866016e-11,-1.55070375522095e-09,1.55037907770802e-09)
(0,0,0)
(0,0,0)
(0,0,0)
(0,0,0)
(0,0,0)
(0,0,0)
(0,0,0)
(0,0,0)
(0,0,0)
(0,0,0)
(0,0,0)
(0,0,0)
(0,0,0)
(0,0,0)
(0,0,0)
(0,0,0)
(0,0,0)
(0,0,0)
(0,0,0)
(0,0,0)
(0,0,0)
(0,0,0)
(0,0,0)
(0,0,0)
(0,0,0)
(0,0,0)
(0,0,0)
(0,0,0)
(0,0,0)
(0,0,0)
(0,0,0)
(0,0,0)
(0,0,0)
(0,0,0)
(0,0,0)
(0,0,0)
(0,0,0)
(0,0,0)
(0,0,0)
(0,0,0)
(0,0,0)
(0,0,0)
(0,0,0)
(0,0,0)
(0,0,0)
(0,0,0)
(0,0,0)
(0,0,0)
(0,0,0)
(0,0,0)
(0,0,0)
(0,0,0)
(0,0,0)
(0,0,0)
(0,0,0)
(0,0,0)
(0,0,0)
(0,0,0)
(0,0,0)
(0,0,0)
(0,0,0)
(0,0,0)
(0,0,0)
(0,0,0)
(0,0,0)
(0,0,0)
(0,0,0)
(0,0,0)
(0,0,0)
(0,0,0)
(0,0,0)
(0,0,0)
(0,0,0)
(0,0,0)
(0,0,0)
(0,0,0)
(0,0,0)
(0,0,0)
(0,0,0)
(0,0,0)
(0,0,0)
(0,0,0)
(0,0,0)
(0,0,0)
(0,0,0)
(0,0,0)
(0,0,0)
(0,0,0)
(0,0,0)
(0,0,0)
(0,0,0)
(0,0,0)
(0,0,0)
(0,0,0)
(0,0,0)
(0,0,0)
(0,0,0)
(0,0,0)
(0,0,0)
(0,0,0)
(0,0,0)
(0,0,0)
(-1.61012120785158e-12,-3.16368252678349e-11,3.57841992237663e-11)
(-2.89552310440053e-12,-6.89417064225675e-11,3.42494472210788e-11)
(-3.47813432794942e-12,-1.15869676379602e-10,3.10326943611297e-11)
(-2.9089037820424e-12,-1.79878457429893e-10,2.59574556594507e-11)
(-7.85385823081726e-13,-2.69244774925879e-10,1.77740317448909e-11)
(1.18532721917168e-12,-3.99964456463495e-10,7.65517471168439e-12)
(3.43610958465176e-12,-5.91064537788824e-10,-1.36313194059859e-12)
(5.90782977515876e-12,-8.67931085289136e-10,-4.66625590481169e-12)
(8.63681093885466e-12,-1.26232259269154e-09,-3.84319105433404e-12)
(1.06589009050709e-11,-1.74160944610117e-09,-1.90114615453504e-12)
(0,0,0)
(0,0,0)
(0,0,0)
(0,0,0)
(0,0,0)
(0,0,0)
(-1.72416006476524e-12,-3.02797025413714e-11,7.47617520666509e-11)
(-4.13346075906032e-12,-6.58393969339438e-11,7.21261300959873e-11)
(-5.94397631833188e-12,-1.10957385840914e-10,6.6393888647884e-11)
(-5.59105897393907e-12,-1.72392160850901e-10,5.60471159806066e-11)
(-2.09159708025057e-12,-2.60358126456525e-10,3.89356004435478e-11)
(1.269908492424e-12,-3.92478294118407e-10,1.70994246076324e-11)
(5.12693110301678e-12,-5.89371014459601e-10,-3.75993199895619e-12)
(1.09132339503369e-11,-8.70522284405259e-10,-9.26297525341248e-12)
(1.5794753659779e-11,-1.26578571655456e-09,-6.07162753905958e-12)
(1.85387359396435e-11,-1.74439744729714e-09,-2.46565077580863e-12)
(0,0,0)
(0,0,0)
(0,0,0)
(0,0,0)
(0,0,0)
(0,0,0)
(-3.08545904322315e-12,-2.74541924181603e-11,1.24034241620383e-10)
(-6.22894411806602e-12,-5.95884226945228e-11,1.20354052599498e-10)
(-8.2368955266888e-12,-1.00329522498477e-10,1.11824006871708e-10)
(-7.56015346470909e-12,-1.56046293537703e-10,9.6219980697712e-11)
(-3.65295435399066e-12,-2.39943061815114e-10,7.07435585625618e-11)
(-1.18086518239265e-12,-3.73670728070351e-10,3.51831644617089e-11)
(2.43126929336905e-12,-5.86046268615458e-10,-4.06985810538517e-12)
(1.36897722033096e-11,-8.77304047091478e-10,-8.86414437715005e-12)
(1.96034213369472e-11,-1.27202047975857e-09,-2.0729989614991e-12)
(2.16033943462797e-11,-1.7483102906598e-09,1.34261197021781e-12)
(0,0,0)
(0,0,0)
(0,0,0)
(0,0,0)
(0,0,0)
(0,0,0)
(-3.76662457869861e-12,-2.35716016493457e-11,1.89581658443497e-10)
(-7.26531640350497e-12,-5.0611610188159e-11,1.84973132656362e-10)
(-9.88203631610338e-12,-8.44687632577731e-11,1.74370984214612e-10)
(-1.08352115178759e-11,-1.31031946774569e-10,1.55872634749019e-10)
(-9.72531401672322e-12,-2.04988384547947e-10,1.26047144839088e-10)
(-9.93909011258897e-12,-3.3469645410717e-10,8.08222126896497e-11)
(-7.22893373690435e-12,-5.76574442992176e-10,1.95438223086159e-11)
(1.49426965369761e-11,-8.90557000687402e-10,1.85309546330609e-11)
(2.15300577332535e-11,-1.28113425992509e-09,2.2034577423816e-11)
(2.20118655484827e-11,-1.75104167530184e-09,1.48434760997276e-11)
(0,0,0)
(0,0,0)
(0,0,0)
(0,0,0)
(0,0,0)
(0,0,0)
(-5.07695408421028e-12,-1.8722720185543e-11,2.76118323057856e-10)
(-8.63646574783901e-12,-3.96162918733845e-11,2.71757650607093e-10)
(-1.23581117275324e-11,-6.52778167732243e-11,2.61813647021531e-10)
(-1.53373745400816e-11,-9.99537898011448e-11,2.45501542023131e-10)
(-1.74290825693731e-11,-1.55885542924432e-10,2.21032336537928e-10)
(-1.88235047472474e-11,-2.60187312439407e-10,1.92198918716792e-10)
(1.76976330001027e-11,-5.08459205653479e-10,2.00677204645137e-10)
(2.35702887174826e-11,-9.03575619068685e-10,1.32653962983317e-10)
(2.30355217645948e-11,-1.28365043532535e-09,9.11481415276454e-11)
(2.16290912108697e-11,-1.74260193117914e-09,4.80558764212954e-11)
(0,0,0)
(0,0,0)
(0,0,0)
(0,0,0)
(0,0,0)
(0,0,0)
(-5.66475811270994e-12,-1.43581048016931e-11,3.98924363146411e-10)
(-9.94506981778758e-12,-2.90335830671173e-11,3.94740851412407e-10)
(-1.3903202490013e-11,-4.64843225782333e-11,3.8702274144809e-10)
(-1.61302868433321e-11,-6.92450834128963e-11,3.7593783187922e-10)
(-1.69327553922941e-11,-1.09132650347609e-10,3.60812345402272e-10)
(-1.6106044184568e-11,-2.03195183689484e-10,3.42139985815796e-10)
(1.51592653012288e-11,-5.070488706509e-10,3.44707714916197e-10)
(2.23583996886775e-11,-8.89562161762978e-10,2.7393103016832e-10)
(2.17005711483211e-11,-1.25299996358263e-09,1.91382034976519e-10)
(1.97747872235052e-11,-1.7014278520848e-09,9.89903749962147e-11)
(0,0,0)
(0,0,0)
(0,0,0)
(0,0,0)
(0,0,0)
(0,0,0)
(-5.59974428749722e-12,-1.02907790169569e-11,5.76395249217913e-10)
(-9.84834852546687e-12,-2.01101036622069e-11,5.73521389977201e-10)
(-1.32418650716705e-11,-3.10877149016511e-11,5.69417468122437e-10)
(-1.2830075063963e-11,-4.42232595238958e-11,5.65342928905182e-10)
(-3.83194452061262e-12,-6.5838843895316e-11,5.65877964346586e-10)
(2.17973827475183e-11,-1.23850315632072e-10,5.73428477133324e-10)
(9.48909424206017e-12,-4.68605816904409e-10,5.01383666327715e-10)
(1.56621162558795e-11,-8.30536355348593e-10,4.82260294594799e-10)
(1.6827394277929e-11,-1.17111753071364e-09,3.35909635110376e-10)
(1.63048076062847e-11,-1.60819848733048e-09,1.72986939197249e-10)
(0,0,0)
(0,0,0)
(0,0,0)
(0,0,0)
(0,0,0)
(0,0,0)
(-4.06027662077889e-12,-7.47244704909222e-12,8.38600544065831e-10)
(-7.89831525526507e-12,-1.45736338686646e-11,8.36304536661813e-10)
(-1.07770349218433e-11,-2.24860222124882e-11,8.33801566282173e-10)
(-1.0875088165782e-11,-3.58198780805316e-11,8.3227591615475e-10)
(-4.23403770426129e-12,-6.74589377354675e-11,8.34290706994481e-10)
(7.4196899892613e-12,-1.57505956990548e-10,8.40266106626655e-10)
(9.28807240925063e-12,-4.25502682572487e-10,8.22064182410123e-10)
(1.34426249032253e-11,-6.86853881283357e-10,7.0139749786501e-10)
(1.47129712332868e-11,-1.01175698087013e-09,5.11958105281925e-10)
(1.55173513826507e-11,-1.43777065870566e-09,2.76083457131626e-10)
(0,0,0)
(0,0,0)
(0,0,0)
(0,0,0)
(0,0,0)
(0,0,0)
(-1.36009125949262e-12,-4.82715947828608e-12,1.22110956458402e-09)
(-4.42561870143682e-12,-1.01873960129335e-11,1.21931107942059e-09)
(-7.18817129339625e-12,-1.66464176844591e-11,1.21674023409951e-09)
(-8.54315582127885e-12,-2.98097759408138e-11,1.21369572683234e-09)
(-4.03783971120889e-12,-6.18737368712722e-11,1.20829775444499e-09)
(3.02300149267847e-12,-1.37711372130633e-10,1.193252273675e-09)
(8.17691443379354e-12,-2.9950886845292e-10,1.14307254880723e-09)
(1.2258090304176e-11,-4.96441684430106e-10,1.00540252681751e-09)
(1.39973841144513e-11,-7.76147035270769e-10,7.78327507516109e-10)
(1.55611223937321e-11,-1.16164840677188e-09,4.46715578933843e-10)
(0,0,0)
(0,0,0)
(0,0,0)
(0,0,0)
(0,0,0)
(0,0,0)
(1.7514180698591e-13,-2.25853381622183e-12,1.69170967571743e-09)
(-2.45834994060691e-12,-5.25410324917624e-12,1.69066086206967e-09)
(-4.48771837824794e-12,-9.32073169529709e-12,1.6880085401731e-09)
(-6.36315114907586e-12,-1.76455585062559e-11,1.68291059438372e-09)
(-3.4865187727453e-12,-3.69903937228554e-11,1.67136396931173e-09)
(2.57061865603178e-12,-7.84535409972772e-11,1.6424517533481e-09)
(7.55251677602363e-12,-1.5668982298287e-10,1.57198769681978e-09)