/*--------------------------------*- C++ -*----------------------------------*\
| =========                 |                                                 |
| \\      /  F ield         | foam-extend: Open Source CFD                    |
|  \\    /   O peration     | Version:     4.0                                |
|   \\  /    A nd           | Web:         http://www.foam-extend.org         |
|    \\/     M anipulation  |                                                 |
\*---------------------------------------------------------------------------*/
FoamFile
{
    version 2.0;
    format ascii;
    class volVectorField;
    location "Data/2277";
    object      E;
}
// * * * * * * * * * * * * * * * * * * * * * * * * * * * * * * * * * * * * * //

dimensions      [0 1 -1 0 0 0 0];

internalField   nonuniform List<vector>
4096
(
(0,0,0)
(0,0,0)
(0,0,0)
(0,0,0)
(0,0,0)
(0,0,0)
(0,0,0)
(0,0,0)
(0,0,0)
(0,0,0)
(0,0,0)
(0,0,0)
(0,0,0)
(0,0,0)
(0,0,0)
(0,0,0)
(0,0,0)
(0,0,0)
(0,0,0)
(0,0,0)
(0,0,0)
(0,0,0)
(0,0,0)
(0,0,0)
(0,0,0)
(0,0,0)
(0,0,0)
(0,0,0)
(0,0,0)
(0,0,0)
(0,0,0)
(0,0,0)
(0,0,0)
(0,0,0)
(0,0,0)
(0,0,0)
(0,0,0)
(0,0,0)
(0,0,0)
(0,0,0)
(0,0,0)
(0,0,0)
(0,0,0)
(0,0,0)
(0,0,0)
(0,0,0)
(0,0,0)
(0,0,0)
(0,0,0)
(0,0,0)
(0,0,0)
(0,0,0)
(0,0,0)
(0,0,0)
(0,0,0)
(0,0,0)
(0,0,0)
(0,0,0)
(0,0,0)
(0,0,0)
(0,0,0)
(0,0,0)
(0,0,0)
(0,0,0)
(0,0,0)
(0,0,0)
(0,0,0)
(0,0,0)
(0,0,0)
(0,0,0)
(0,0,0)
(0,0,0)
(0,0,0)
(0,0,0)
(0,0,0)
(0,0,0)
(0,0,0)
(0,0,0)
(0,0,0)
(0,0,0)
(0,0,0)
(0,0,0)
(0,0,0)
(0,0,0)
(0,0,0)
(0,0,0)
(0,0,0)
(0,0,0)
(0,0,0)
(0,0,0)
(0,0,0)
(0,0,0)
(0,0,0)
(0,0,0)
(0,0,0)
(0,0,0)
(0,0,0)
(0,0,0)
(0,0,0)
(0,0,0)
(0,0,0)
(0,0,0)
(0,0,0)
(0,0,0)
(0,0,0)
(0,0,0)
(0,0,0)
(0,0,0)
(0,0,0)
(0,0,0)
(0,0,0)
(0,0,0)
(0,0,0)
(0,0,0)
(0,0,0)
(0,0,0)
(0,0,0)
(0,0,0)
(0,0,0)
(0,0,0)
(0,0,0)
(0,0,0)
(0,0,0)
(0,0,0)
(0,0,0)
(0,0,0)
(0,0,0)
(0,0,0)
(0,0,0)
(0,0,0)
(0,0,0)
(0,0,0)
(0,0,0)
(0,0,0)
(0,0,0)
(0,0,0)
(0,0,0)
(0,0,0)
(0,0,0)
(0,0,0)
(0,0,0)
(0,0,0)
(0,0,0)
(0,0,0)
(0,0,0)
(0,0,0)
(0,0,0)
(0,0,0)
(0,0,0)
(0,0,0)
(0,0,0)
(0,0,0)
(0,0,0)
(0,0,0)
(0,0,0)
(0,0,0)
(0,0,0)
(0,0,0)
(0,0,0)
(0,0,0)
(0,0,0)
(0,0,0)
(0,0,0)
(0,0,0)
(0,0,0)
(0,0,0)
(0,0,0)
(0,0,0)
(0,0,0)
(0,0,0)
(0,0,0)
(0,0,0)
(0,0,0)
(0,0,0)
(0,0,0)
(0,0,0)
(0,0,0)
(0,0,0)
(0,0,0)
(0,0,0)
(0,0,0)
(0,0,0)
(0,0,0)
(0,0,0)
(0,0,0)
(0,0,0)
(0,0,0)
(0,0,0)
(0,0,0)
(0,0,0)
(0,0,0)
(0,0,0)
(0,0,0)
(0,0,0)
(0,0,0)
(0,0,0)
(0,0,0)
(0,0,0)
(0,0,0)
(0,0,0)
(0,0,0)
(0,0,0)
(0,0,0)
(0,0,0)
(0,0,0)
(0,0,0)
(0,0,0)
(0,0,0)
(0,0,0)
(0,0,0)
(0,0,0)
(0,0,0)
(0,0,0)
(0,0,0)
(0,0,0)
(0,0,0)
(0,0,0)
(0,0,0)
(0,0,0)
(0,0,0)
(0,0,0)
(0,0,0)
(0,0,0)
(0,0,0)
(0,0,0)
(0,0,0)
(0,0,0)
(0,0,0)
(0,0,0)
(0,0,0)
(0,0,0)
(0,0,0)
(0,0,0)
(0,0,0)
(0,0,0)
(0,0,0)
(0,0,0)
(0,0,0)
(0,0,0)
(0,0,0)
(0,0,0)
(0,0,0)
(0,0,0)
(0,0,0)
(0,0,0)
(0,0,0)
(0,0,0)
(0,0,0)
(0,0,0)
(0,0,0)
(0,0,0)
(0,0,0)
(0,0,0)
(0,0,0)
(0,0,0)
(0,0,0)
(0,0,0)
(0,0,0)
(0,0,0)
(0,0,0)
(0,0,0)
(0,0,0)
(0,0,0)
(0,0,0)
(0,0,0)
(0,0,0)
(0,0,0)
(0,0,0)
(0,0,0)
(0,0,0)
(0,0,0)
(0,0,0)
(0,0,0)
(0,0,0)
(0,0,0)
(0,0,0)
(0,0,0)
(0,0,0)
(0,0,0)
(0,0,0)
(0,0,0)
(0,0,0)
(0,0,0)
(0,0,0)
(0,0,0)
(0,0,0)
(0,0,0)
(0,0,0)
(0,0,0)
(0,0,0)
(0,0,0)
(0,0,0)
(0,0,0)
(0,0,0)
(0,0,0)
(0,0,0)
(0,0,0)
(0,0,0)
(0,0,0)
(0,0,0)
(0,0,0)
(0,0,0)
(0,0,0)
(0,0,0)
(0,0,0)
(0,0,0)
(0,0,0)
(0,0,0)
(0,0,0)
(0,0,0)
(0,0,0)
(0,0,0)
(0,0,0)
(0,0,0)
(0,0,0)
(0,0,0)
(0,0,0)
(0,0,0)
(0,0,0)
(0,0,0)
(0,0,0)
(0,0,0)
(0,0,0)
(0,0,0)
(0,0,0)
(0,0,0)
(0,0,0)
(0,0,0)
(0,0,0)
(0,0,0)
(0,0,0)
(0,0,0)
(0,0,0)
(0,0,0)
(0,0,0)
(0,0,0)
(0,0,0)
(0,0,0)
(0,0,0)
(0,0,0)
(0,0,0)
(0,0,0)
(0,0,0)
(0,0,0)
(0,0,0)
(0,0,0)
(0,0,0)
(0,0,0)
(0,0,0)
(0,0,0)
(0,0,0)
(0,0,0)
(0,0,0)
(0,0,0)
(0,0,0)
(0,0,0)
(0,0,0)
(0,0,0)
(0,0,0)
(0,0,0)
(0,0,0)
(0,0,0)
(0,0,0)
(0,0,0)
(0,0,0)
(0,0,0)
(0,0,0)
(0,0,0)
(0,0,0)
(0,0,0)
(0,0,0)
(0,0,0)
(0,0,0)
(0,0,0)
(0,0,0)
(0,0,0)
(0,0,0)
(0,0,0)
(0,0,0)
(0,0,0)
(0,0,0)
(0,0,0)
(0,0,0)
(0,0,0)
(0,0,0)
(0,0,0)
(0,0,0)
(0,0,0)
(0,0,0)
(0,0,0)
(0,0,0)
(0,0,0)
(0,0,0)
(0,0,0)
(0,0,0)
(0,0,0)
(0,0,0)
(0,0,0)
(0,0,0)
(0,0,0)
(0,0,0)
(0,0,0)
(0,0,0)
(0,0,0)
(0,0,0)
(0,0,0)
(0,0,0)
(0,0,0)
(0,0,0)
(0,0,0)
(0,0,0)
(0,0,0)
(0,0,0)
(0,0,0)
(0,0,0)
(0,0,0)
(0,0,0)
(0,0,0)
(0,0,0)
(0,0,0)
(0,0,0)
(0,0,0)
(0,0,0)
(0,0,0)
(0,0,0)
(0,0,0)
(0,0,0)
(0,0,0)
(0,0,0)
(0,0,0)
(0,0,0)
(0,0,0)
(0,0,0)
(0,0,0)
(0,0,0)
(0,0,0)
(0,0,0)
(0,0,0)
(0,0,0)
(0,0,0)
(0,0,0)
(0,0,0)
(0,0,0)
(0,0,0)
(0,0,0)
(0,0,0)
(0,0,0)
(0,0,0)
(0,0,0)
(0,0,0)
(0,0,0)
(0,0,0)
(0,0,0)
(0,0,0)
(0,0,0)
(0,0,0)
(0,0,0)
(0,0,0)
(0,0,0)
(0,0,0)
(0,0,0)
(0,0,0)
(0,0,0)
(0,0,0)
(0,0,0)
(0,0,0)
(0,0,0)
(0,0,0)
(0,0,0)
(0,0,0)
(0,0,0)
(0,0,0)
(0,0,0)
(0,0,0)
(0,0,0)
(0,0,0)
(0,0,0)
(0,0,0)
(0,0,0)
(0,0,0)
(0,0,0)
(0,0,0)
(0,0,0)
(0,0,0)
(0,0,0)
(0,0,0)
(0,0,0)
(0,0,0)
(0,0,0)
(0,0,0)
(0,0,0)
(0,0,0)
(0,0,0)
(0,0,0)
(0,0,0)
(0,0,0)
(0,0,0)
(0,0,0)
(0,0,0)
(0,0,0)
(0,0,0)
(0,0,0)
(0,0,0)
(0,0,0)
(0,0,0)
(0,0,0)
(0,0,0)
(0,0,0)
(0,0,0)
(0,0,0)
(0,0,0)
(0,0,0)
(0,0,0)
(0,0,0)
(0,0,0)
(0,0,0)
(0,0,0)
(0,0,0)
(0,0,0)
(0,0,0)
(0,0,0)
(0,0,0)
(0,0,0)
(0,0,0)
(0,0,0)
(0,0,0)
(0,0,0)
(0,0,0)
(0,0,0)
(0,0,0)
(0,0,0)
(0,0,0)
(0,0,0)
(0,0,0)
(0,0,0)
(0,0,0)
(0,0,0)
(0,0,0)
(0,0,0)
(0,0,0)
(0,0,0)
(0,0,0)
(0,0,0)
(0,0,0)
(0,0,0)
(0,0,0)
(0,0,0)
(0,0,0)
(0,0,0)
(0,0,0)
(0,0,0)
(0,0,0)
(0,0,0)
(0,0,0)
(0,0,0)
(0,0,0)
(0,0,0)
(0,0,0)
(0,0,0)
(0,0,0)
(0,0,0)
(0,0,0)
(0,0,0)
(0,0,0)
(0,0,0)
(0,0,0)
(0,0,0)
(0,0,0)
(0,0,0)
(0,0,0)
(0,0,0)
(0,0,0)
(0,0,0)
(0,0,0)
(0,0,0)
(0,0,0)
(0,0,0)
(0,0,0)
(0,0,0)
(0,0,0)
(0,0,0)
(0,0,0)
(0,0,0)
(0,0,0)
(0,0,0)
(0,0,0)
(0,0,0)
(0,0,0)
(0,0,0)
(0,0,0)
(0,0,0)
(0,0,0)
(0,0,0)
(0,0,0)
(0,0,0)
(0,0,0)
(0,0,0)
(0,0,0)
(0,0,0)
(0,0,0)
(0,0,0)
(0,0,0)
(0,0,0)
(0,0,0)
(0,0,0)
(0,0,0)
(0,0,0)
(0,0,0)
(0,0,0)
(0,0,0)
(0,0,0)
(0,0,0)
(0,0,0)
(0,0,0)
(0,0,0)
(0,0,0)
(0,0,0)
(0,0,0)
(0,0,0)
(0,0,0)
(0,0,0)
(0,0,0)
(0,0,0)
(0,0,0)
(0,0,0)
(0,0,0)
(0,0,0)
(0,0,0)
(0,0,0)
(0,0,0)
(0,0,0)
(0,0,0)
(0,0,0)
(0,0,0)
(0,0,0)
(0,0,0)
(0,0,0)
(0,0,0)
(0,0,0)
(0,0,0)
(0,0,0)
(0,0,0)
(0,0,0)
(0,0,0)
(0,0,0)
(0,0,0)
(0,0,0)
(0,0,0)
(0,0,0)
(0,0,0)
(0,0,0)
(0,0,0)
(0,0,0)
(0,0,0)
(0,0,0)
(0,0,0)
(0,0,0)
(0,0,0)
(0,0,0)
(0,0,0)
(0,0,0)
(0,0,0)
(0,0,0)
(0,0,0)
(0,0,0)
(0,0,0)
(0,0,0)
(0,0,0)
(0,0,0)
(0,0,0)
(0,0,0)
(0,0,0)
(0,0,0)
(0,0,0)
(0,0,0)
(0,0,0)
(0,0,0)
(0,0,0)
(0,0,0)
(0,0,0)
(0,0,0)
(0,0,0)
(0,0,0)
(0,0,0)
(0,0,0)
(0,0,0)
(0,0,0)
(0,0,0)
(0,0,0)
(0,0,0)
(0,0,0)
(0,0,0)
(0,0,0)
(0,0,0)
(0,0,0)
(0,0,0)
(0,0,0)
(0,0,0)
(0,0,0)
(0,0,0)
(0,0,0)
(0,0,0)
(0,0,0)
(0,0,0)
(0,0,0)
(0,0,0)
(0,0,0)
(0,0,0)
(0,0,0)
(0,0,0)
(0,0,0)
(0,0,0)
(0,0,0)
(0,0,0)
(0,0,0)
(0,0,0)
(0,0,0)
(0,0,0)
(0,0,0)
(0,0,0)
(0,0,0)
(0,0,0)
(0,0,0)
(0,0,0)
(0,0,0)
(0,0,0)
(0,0,0)
(0,0,0)
(0,0,0)
(0,0,0)
(0,0,0)
(0,0,0)
(0,0,0)
(0,0,0)
(0,0,0)
(0,0,0)
(0,0,0)
(0,0,0)
(0,0,0)
(0,0,0)
(0,0,0)
(0,0,0)
(0,0,0)
(0,0,0)
(0,0,0)
(0,0,0)
(0,0,0)
(0,0,0)
(0,0,0)
(0,0,0)
(0,0,0)
(0,0,0)
(0,0,0)
(0,0,0)
(0,0,0)
(0,0,0)
(0,0,0)
(0,0,0)
(0,0,0)
(0,0,0)
(0,0,0)
(0,0,0)
(0,0,0)
(0,0,0)
(0,0,0)
(0,0,0)
(0,0,0)
(0,0,0)
(0,0,0)
(0,0,0)
(0,0,0)
(0,0,0)
(0,0,0)
(0,0,0)
(0,0,0)
(0,0,0)
(0,0,0)
(0,0,0)
(0,0,0)
(0,0,0)
(0,0,0)
(0,0,0)
(0,0,0)
(0,0,0)
(0,0,0)
(0,0,0)
(0,0,0)
(0,0,0)
(0,0,0)
(0,0,0)
(0,0,0)
(0,0,0)
(0,0,0)
(0,0,0)
(0,0,0)
(0,0,0)
(0,0,0)
(0,0,0)
(0,0,0)
(0,0,0)
(0,0,0)
(0,0,0)
(0,0,0)
(0,0,0)
(0,0,0)
(0,0,0)
(0,0,0)
(0,0,0)
(0,0,0)
(0,0,0)
(0,0,0)
(0,0,0)
(0,0,0)
(0,0,0)
(0,0,0)
(0,0,0)
(0,0,0)
(0,0,0)
(0,0,0)
(-71489.0776595634,38233.1137265197,33255.9639330421)
(-75675.280843245,36701.9262688072,72229.3185074801)
(-85298.3423035242,33464.0754902623,124063.585320742)
(-103409.84718442,28355.3986499596,199118.033855209)
(-136023.867014138,21415.523499618,313726.377369738)
(-194568.488151997,13386.698499871,494908.167021855)
(-300490.452119686,6082.86207203023,789315.757069537)
(-491936.552557054,1604.93550182355,1279647.37412481)
(-811382.6041493,102.069547863425,2090927.90872622)
(-1130563.25880964,-79.6205167065493,3221570.78805259)
(0,0,0)
(0,0,0)
(0,0,0)
(0,0,0)
(0,0,0)
(0,0,0)
(-75712.0241416221,82253.514415555,31691.6234525851)
(-79913.2740057623,79336.8890880353,68969.9346391243)
(-89659.8460604198,73164.4403686137,118929.415821189)
(-108176.03333551,63256.8040948396,192204.043711825)
(-141687.686347194,49482.3732710493,305824.880287578)
(-201618.623526689,33085.921612358,487744.280701778)
(-308696.343133316,17550.7650387546,784972.720868369)
(-499403.671558875,7713.25744786847,1278268.07048112)
(-816345.993803064,3828.63678482753,2090887.49704727)
(-1132863.54079712,1953.80432467007,3221717.61300294)
(0,0,0)
(0,0,0)
(0,0,0)
(0,0,0)
(0,0,0)
(0,0,0)
(-85251.9139516562,138768.564663268,28736.8637039428)
(-89495.1086660867,134800.782345404,62768.0791126634)
(-99521.3019409684,126412.746501467,109041.074920783)
(-118949.087912527,112691.217043578,178555.749884574)
(-154586.220617477,93016.7238085597,289607.619964529)
(-218216.325103498,68475.7825948674,472434.084085518)
(-328965.501808046,43637.305870814,775313.04506152)
(-518050.302052649,26558.8398090418,1274517.76475297)
(-828351.824163491,17507.8054008381,2089190.42030047)
(-1138283.58772619,9491.72771358515,3219936.08463781)
(0,0,0)
(0,0,0)
(0,0,0)
(0,0,0)
(0,0,0)
(0,0,0)
(-102891.36089665,216892.961430252,24766.9641296677)
(-107196.730853371,212433.312431176,54331.1648972697)
(-117605.72685954,202989.680165404,95359.9580928658)
(-138380.396560551,187342.139109034,159089.432587953)
(-177548.019966528,164353.091430052,265301.084932994)
(-248299.239666706,134217.131792806,447858.975401766)
(-367829.282033291,100802.398918531,758523.164387334)
(-554182.264895287,73522.405074143,1265741.86401746)
(-850392.029652348,52238.9991923348,2081402.69987827)
(-1147906.29561766,28108.7885054535,3210691.93470419)
(0,0,0)
(0,0,0)
(0,0,0)
(0,0,0)
(0,0,0)
(0,0,0)
(-134451.405837372,330980.117078367,20364.2501892535)
(-138734.605064743,326614.661581146,44917.5061040238)
(-149353.68673639,317385.841226233,79875.0317795854)
(-171271.799443771,302093.251935371,136395.718397018)
(-214114.997277955,279410.197767929,235453.609337099)
(-293717.652303162,248662.709637925,414725.68379512)
(-427073.456061624,211068.130642856,731533.408132421)
(-609231.398405252,169529.523195495,1244757.68841633)
(-882419.781409522,121876.476766258,2057539.99225201)
(-1161798.48214816,64616.1676786302,3182831.09522697)
(0,0,0)
(0,0,0)
(0,0,0)
(0,0,0)
(0,0,0)
(0,0,0)
(-191458.589604456,506343.828897729,16094.8777850967)
(-195524.121316595,502445.161554347,35788.4991284856)
(-205804.434253786,494191.990470368,64786.784138139)
(-227515.625102304,480389.951952589,114005.709223223)
(-270830.299380543,459251.201824596,204995.004547103)
(-351959.014462314,428243.596097964,377373.132549396)
(-485715.777158807,383929.922298184,690227.118052887)
(-659594.937962257,322004.675547682,1197346.90366296)
(-917126.284235193,235773.834713575,2000575.8299509)
(-1179276.56369502,125864.625529905,3118603.93579448)
(0,0,0)
(0,0,0)
(0,0,0)
(0,0,0)
(0,0,0)
(0,0,0)
(-296215.791200733,790258.907755638,12300.712342822)
(-299816.249872527,786880.761295012,27681.3624746947)
(-309034.26673842,779655.006639349,51252.6130441389)
(-328846.71071844,767286.28662188,93202.989093291)
(-369082.199916341,747257.799223592,174278.591610632)
(-445329.82776836,714500.524892218,333351.490584735)
(-570870.805539335,659511.835713378,628640.382708887)
(-728961.908195282,568134.107541905,1111472.85890995)
(-968868.660277262,425052.928715228,1891062.42518551)
(-1207818.45249271,231579.227674416,2993166.27553382)
(0,0,0)
(0,0,0)
(0,0,0)
(0,0,0)
(0,0,0)
(0,0,0)
(-487788.024931811,1269051.3490623,8995.58362514804)
(-490678.742726899,1265971.40834517,20583.6793018934)
(-498090.771493235,1259199.0584269,39130.3990075919)
(-514192.749925015,1247132.22526896,73477.2102855142)
(-547251.925069211,1226176.04854705,141810.886031266)
(-610629.95993469,1188270.20560077,278671.165257382)
(-715771.92502375,1116376.94752072,537577.978473771)
(-843756.207285835,980762.887755367,968705.405546164)
(-1062845.45370765,758685.687311905,1697918.10065713)
(-1262427.11845041,430029.833807907,2761894.61297398)
(0,0,0)
(0,0,0)
(0,0,0)
(0,0,0)
(0,0,0)
(0,0,0)
(-808537.629182193,2071612.64056402,5976.33768044743)
(-810521.641076397,2068504.35157989,13965.0355221444)
(-815573.689139468,2061419.18826711,27318.5948213611)
(-826405.10177993,2048032.56794935,52823.3539208863)
(-848240.669488713,2023013.00981341,104227.062143235)
(-889225.437058111,1974605.92771023,207116.777091886)
(-958043.279186687,1879238.06928984,402298.934509466)
(-1060296.65710458,1696415.62791207,746942.851457351)
(-1236226.66056245,1372331.91706765,1369523.28226398)
(-1357704.90483903,825111.7689586,2332146.25195233)
(0,0,0)
(0,0,0)
(0,0,0)
(0,0,0)
(0,0,0)
(0,0,0)
(-1129244.87070736,3197810.96036205,3046.55090935961)
(-1130230.4238345,3194558.93535979,7222.39096396429)
(-1132752.27787775,3187053.73288267,14340.1242261897)
(-1138078.18246408,3172272.34920637,28178.5254332948)
(-1148658.52964107,3143647.68591065,56202.37897715)
(-1168382.79588225,3086994.58658924,112196.515980385)
(-1202807.85691267,2974323.72522603,219918.716956855)
(-1260851.12289642,2753949.04206876,423236.425696538)
(-1357397.04173149,2330343.99423202,822621.390263627)
(-1367079.72410162,1507479.07501808,1507333.8083058)
(0,0,0)
(0,0,0)
(0,0,0)
(0,0,0)
(0,0,0)
(0,0,0)
(0,0,0)
(0,0,0)
(0,0,0)
(0,0,0)
(0,0,0)
(0,0,0)
(0,0,0)
(0,0,0)
(0,0,0)
(0,0,0)
(0,0,0)
(0,0,0)
(0,0,0)
(0,0,0)
(0,0,0)
(0,0,0)
(0,0,0)
(0,0,0)
(0,0,0)
(0,0,0)
(0,0,0)
(0,0,0)
(0,0,0)
(0,0,0)
(0,0,0)
(0,0,0)
(0,0,0)
(0,0,0)
(0,0,0)
(0,0,0)
(0,0,0)
(0,0,0)
(0,0,0)
(0,0,0)
(0,0,0)
(0,0,0)
(0,0,0)
(0,0,0)
(0,0,0)
(0,0,0)
(0,0,0)
(0,0,0)
(0,0,0)
(0,0,0)
(0,0,0)
(0,0,0)
(0,0,0)
(0,0,0)
(0,0,0)
(0,0,0)
(0,0,0)
(0,0,0)
(0,0,0)
(0,0,0)
(0,0,0)
(0,0,0)
(0,0,0)
(0,0,0)
(0,0,0)
(0,0,0)
(0,0,0)
(0,0,0)
(0,0,0)
(0,0,0)
(0,0,0)
(0,0,0)
(0,0,0)
(0,0,0)
(0,0,0)
(0,0,0)
(0,0,0)
(0,0,0)
(0,0,0)
(0,0,0)
(0,0,0)
(0,0,0)
(0,0,0)
(0,0,0)
(0,0,0)
(0,0,0)
(0,0,0)
(0,0,0)
(0,0,0)
(0,0,0)
(0,0,0)
(0,0,0)
(0,0,0)
(0,0,0)
(0,0,0)
(0,0,0)
(0,0,0)
(0,0,0)
(0,0,0)
(0,0,0)
(0,0,0)
(0,0,0)
(10603948.211689,34126.529456906,29160.8684042085)
(10596974.8304392,32544.7202340842,62690.7240974564)
(10580978.0357056,29131.0053667856,106008.027931183)
(10551169.698871,23588.0145610685,166565.154524351)
(10498211.7808413,15753.5771350999,255300.616743481)
(10404067.0745215,6327.30506239507,389062.436217149)
(10231473.8779742,-2136.99785947772,597959.79119235)
(9890363.18259178,-5898.93285978985,960283.676113)
(9120658.23968507,-4924.52333190694,1771892.04282026)
(7030171.27708619,-2430.44052697764,4352312.6346611)
(0,0,0)
(0,0,0)
(0,0,0)
(0,0,0)
(0,0,0)
(0,0,0)
(10596770.8083051,72820.5753375614,27547.8088823077)
(10589795.0073376,69820.629310121,59288.3056726052)
(10573692.7530347,63314.3619669091,100477.037187028)
(10543366.1518119,52475.4035251506,158772.150285162)
(10488987.5279493,36583.2611404319,245991.939193002)
(10392226.5135393,16487.9089592589,380710.885439913)
(10216991.9899988,-2718.46628533044,594328.707943399)
(9877314.99038892,-10964.1268857929,961399.927231316)
(9112576.10522414,-8233.84897173745,1774511.84105343)
(7026652.06007998,-3527.63666952954,4354818.12352851)
(0,0,0)
(0,0,0)
(0,0,0)
(0,0,0)
(0,0,0)
(0,0,0)
(10580694.9198267,121105.509566118,24492.9192027163)
(10573717.9860121,117066.299094721,52758.8419496367)
(10557328.9613145,108283.115860167,89664.5120107104)
(10525707.0612084,93231.2164977507,142977.237126955)
(10467594.4602289,70060.1245263464,226044.380104391)
(10362923.7038569,38406.5455235956,361710.401789399)
(10177654.0485103,4785.70750170617,586311.36489375)
(9841238.29802798,-9580.95684286477,964364.28198001)
(9091612.88441274,-4559.51810817064,1779449.92974984)
(7017983.10485913,-148.114116535294,4358528.40182128)
(0,0,0)
(0,0,0)
(0,0,0)
(0,0,0)
(0,0,0)
(0,0,0)
(10551280.9607282,185192.331760926,20465.5433900411)
(10544344.426622,180762.650567284,43952.7216518717)
(10527576.9869442,171123.38612666,74654.4247913306)
(10493883.4691169,154379.930201018,119966.532620368)
(10428822.4985535,127791.175301941,194589.650534548)
(10306233.0728477,88850.1163075444,328338.45444593)
(10090156.7283915,41608.3710177375,572254.467714807)
(9759026.49500905,18481.2020370878,969708.236140213)
(9049190.16422337,20185.1315407833,1784106.07982512)
(7001689.36967935,14191.8987467578,4358895.08887465)
(0,0,0)
(0,0,0)
(0,0,0)
(0,0,0)
(0,0,0)
(0,0,0)
(10499599.160063,273797.636983619,16068.8160866075)
(10492832.3294672,269675.755282721,34313.4640488685)
(10475974.9425459,260806.586891596,58026.3212113979)
(10440491.0478576,245755.905910832,93612.1854098531)
(10367447.0435156,222661.512360968,155904.494766995)
(10217958.882493,190420.177728458,281382.585759675)
(9932779.69046384,152426.544457777,549435.953003897)
(9606537.89661966,119153.100786966,971719.446438878)
(8982686.23395485,87130.5206347017,1778392.72919017)
(6977461.65256715,47084.5835622321,4344964.59686908)
(0,0,0)
(0,0,0)
(0,0,0)
(0,0,0)
(0,0,0)
(0,0,0)
(10407576.116802,401503.56576487,11984.0520219499)
(10401273.1993157,398098.571116462,25488.6027657042)
(10385206.231075,390899.858964884,43109.3525732867)
(10350352.9075659,378980.91959065,70740.4934350828)
(10276443.6519005,360940.502821963,123912.238902768)
(10122663.4437431,334829.714292847,243604.931342593)
(9833879.84131489,298776.152568618,516384.391967793)
(9522066.55318375,252638.879672985,939961.809145357)
(8926019.69740302,183998.179255125,1738672.85609643)
(6949670.65839928,97289.4472608464,4298245.45751316)
(0,0,0)
(0,0,0)
(0,0,0)
(0,0,0)
(0,0,0)
(0,0,0)
(10236724.107224,598638.391715711,8649.96283412424)
(10231233.1957848,596003.270079001,18420.5054240274)
(10217004.3739697,590579.775174693,31426.6357158875)
(10185376.398572,581909.479343169,52999.6538826444)
(10116454.4718514,569044.084468006,98084.087678613)
(9969374.27257271,549145.934332064,207788.454507954)
(9689259.30678745,514620.540832669,470538.641126754)
(9407884.09799001,453388.624781926,871667.577042285)
(8842047.09166483,331109.683090752,1652365.00847408)
(6902208.25174698,176987.128460905,4201365.31024414)
(0,0,0)
(0,0,0)
(0,0,0)
(0,0,0)
(0,0,0)
(0,0,0)
(9895225.48928552,948248.977059148,6100.5876489739)
(9890886.67244701,946105.622143081,13157.5076206911)
(9879583.74096977,941753.040959349,23034.4165827393)
(9854048.34969255,934977.71955463,40449.7639634393)
(9797264.72380885,925231.826346601,78470.0604163368)
(9672500.20477476,909701.475631307,173509.041617459)
(9427291.77036312,874201.986962398,409588.587310514)
(9243889.77530964,764360.214788207,749695.701918338)
(8672664.27548845,585438.262383815,1498582.08063882)
(6792345.86106732,334816.643789068,4024704.27300263)
(0,0,0)
(0,0,0)
(0,0,0)
(0,0,0)
(0,0,0)
(0,0,0)
(9123489.70117329,1750916.32960799,4030.0043054334)
(9120557.19071993,1748820.76735719,8960.71450477429)
(9113003.16717786,1744323.68797029,16537.8983862135)
(9096305.49260511,1736485.8211551,31043.8896103635)
(9060772.95481571,1722728.75997858,63258.0188836438)
(8988561.75801013,1695602.8379348,138294.148721604)
(8858411.58547071,1634695.45915055,300070.499085822)
(8675677.32892699,1496093.49854741,571087.916504809)
(8159454.44090469,1251342.51443161,1248227.25019958)
(6458127.49491172,815811.650814696,3690124.53063285)
(0,0,0)
(0,0,0)
(0,0,0)
(0,0,0)
(0,0,0)
(0,0,0)
(7031220.7106222,4327106.10935299,2069.32613505714)
(7029779.1697866,4324877.73636348,4727.45071729326)
(7026069.00250014,4319903.46576241,9051.07975700802)
(7018046.2302211,4310487.08039374,17650.0950430043)
(7001519.34328184,4292447.41230919,36478.2569992532)
(6969080.33897687,4255584.51113797,77758.1361467018)
(6909022.36512469,4177453.52171882,161894.538750799)
(6794004.56936857,4015131.18465961,326725.847583385)
(6458378.59515958,3688001.15457281,813016.257760833)
(5251237.10880603,2874697.37756601,2874538.38531145)
(0,0,0)
(0,0,0)
(0,0,0)
(0,0,0)
(0,0,0)
(0,0,0)
(0,0,0)
(0,0,0)
(0,0,0)
(0,0,0)
(0,0,0)
(0,0,0)
(0,0,0)
(0,0,0)
(0,0,0)
(0,0,0)
(0,0,0)
(0,0,0)
(0,0,0)
(0,0,0)
(0,0,0)
(0,0,0)
(0,0,0)
(0,0,0)
(0,0,0)
(0,0,0)
(0,0,0)
(0,0,0)
(0,0,0)
(0,0,0)
(0,0,0)
(0,0,0)
(0,0,0)
(0,0,0)
(0,0,0)
(0,0,0)
(0,0,0)
(0,0,0)
(0,0,0)
(0,0,0)
(0,0,0)
(0,0,0)
(0,0,0)
(0,0,0)
(0,0,0)
(0,0,0)
(0,0,0)
(0,0,0)
(0,0,0)
(0,0,0)
(0,0,0)
(0,0,0)
(0,0,0)
(0,0,0)
(0,0,0)
(0,0,0)
(0,0,0)
(0,0,0)
(0,0,0)
(0,0,0)
(0,0,0)
(0,0,0)
(0,0,0)
(0,0,0)
(0,0,0)
(0,0,0)
(0,0,0)
(0,0,0)
(0,0,0)
(0,0,0)
(0,0,0)
(0,0,0)
(0,0,0)
(0,0,0)
(0,0,0)
(0,0,0)
(0,0,0)
(0,0,0)
(0,0,0)
(0,0,0)
(0,0,0)
(0,0,0)
(0,0,0)
(0,0,0)
(0,0,0)
(0,0,0)
(0,0,0)
(0,0,0)
(0,0,0)
(0,0,0)
(0,0,0)
(0,0,0)
(0,0,0)
(0,0,0)
(0,0,0)
(0,0,0)
(0,0,0)
(0,0,0)
(0,0,0)
(0,0,0)
(0,0,0)
(0,0,0)
(-184128.032106311,27080.7455385793,22270.8110470554)
(-191832.325952186,25514.4600326758,46838.8201959842)
(-209212.822024555,21949.6528447364,76355.3378717672)
(-240777.740427681,15816.5439847613,113761.545976031)
(-294603.540286013,6520.52408600929,161331.655807672)
(-384368.730817059,-5540.3677549129,216583.141691573)
(-531028.588670928,-16642.1487232006,257003.069850257)
(-763121.323989085,-18976.5326766614,190739.421898099)
(-1095944.21205699,-13041.2707600067,-318341.542809584)
(-1343501.58460616,-5968.09078137603,-2677425.2775454)
(0,0,0)
(0,0,0)
(0,0,0)
(0,0,0)
(0,0,0)
(0,0,0)
(-192333.934893604,56813.3888206629,20647.4127069342)
(-199893.298085106,53824.8648319488,43300.6261206688)
(-217050.254808228,46992.2111447618,70276.3884539036)
(-248585.881463754,34800.1895343196,104520.088970372)
(-303206.071628434,15142.6292912321,149366.896133223)
(-395381.86338735,-12874.0695730038,205584.287668205)
(-545475.461861188,-42097.3479180179,254782.251513282)
(-775309.75510769,-47091.3935010404,196797.170624542)
(-1102011.48849618,-29233.9670661642,-311147.226558491)
(-1345619.38547174,-12232.2433140954,-2671336.31568368)
(0,0,0)
(0,0,0)
(0,0,0)
(0,0,0)
(0,0,0)
(0,0,0)
(-210434.974935784,91645.7126956405,17572.8836778787)
(-217710.969474603,87642.0510293492,36459.9657574725)
(-234536.105095085,78441.5645553738,58150.9915466403)
(-266339.368257629,61317.9328504026,84954.9904868211)
(-323761.259375285,31246.5295357637,121482.122636739)
(-425409.819695931,-18333.1509692413,176550.040376061)
(-593865.894087776,-82769.4532320662,250017.401078458)
(-817614.251912617,-91847.6745000648,214901.544808247)
(-1120539.81144021,-47011.5134716508,-293892.900142908)
(-1351534.09073805,-16447.7051132804,-2658884.92995626)
(0,0,0)
(0,0,0)
(0,0,0)
(0,0,0)
(0,0,0)
(0,0,0)
(-242670.440851573,133320.39532747,13552.0317382437)
(-249527.396943026,129081.098492869,27260.1206299866)
(-265861.904479219,119343.30691014,41072.5824889492)
(-298303.478504429,100861.705534468,54991.0702164528)
(-362135.559132094,66383.3233767096,72087.6468513055)
(-491648.100299399,557.407590491717,112353.574228948)
(-744394.845029906,-115819.104783374,241230.111991966)
(-956278.449548951,-134081.929058972,260044.623899207)
(-1167054.39386606,-46381.5043848366,-263065.51430781)
(-1364294.71200946,-10065.5042093949,-2642188.32073267)
(0,0,0)
(0,0,0)
(0,0,0)
(0,0,0)
(0,0,0)
(0,0,0)
(-296682.607923815,181587.437763292,9290.03834131255)
(-302976.652496875,177949.263950721,17506.1676378898)
(-318428.125308613,169870.259166416,22657.5960263658)
(-350902.527454228,155500.876567288,20687.3130957324)
(-422329.620614953,131603.928661392,6518.68473188343)
(-605056.006691898,95069.498097791,-3703.20380026925)
(-1202181.69333383,53426.4349711169,223287.953033154)
(-1425599.3490497,34588.6560372167,348029.926396601)
(-1258308.24802342,30384.9450821829,-226466.728301765)
(-1385201.4100485,19242.1813299076,-2631836.03843498)
(0,0,0)
(0,0,0)
(0,0,0)
(0,0,0)
(0,0,0)
(0,0,0)
(-385820.627095188,230598.164442615,5661.33000821288)
(-391337.418813044,228020.113279655,9476.41159824018)
(-405192.485989086,222644.438696648,8376.26192243482)
(-435428.299914341,213968.963589317,-3035.30482916878)
(-504901.06147246,200956.704183042,-29768.054187577)
(-687200.228842936,181552.605518873,-45112.1762322488)
(-1255342.84997232,154167.295246839,204644.967569485)
(-1459975.79929944,138449.834860914,344101.454019332)
(-1300937.74262629,99992.8652018982,-237273.713280819)
(-1406154.68937875,49806.4083243998,-2650737.27970685)
(0,0,0)
(0,0,0)
(0,0,0)
(0,0,0)
(0,0,0)
(0,0,0)
(-531691.571020814,257161.607337243,3127.54814047556)
(-536254.354300074,255699.664095371,4210.86019987106)
(-547908.690161263,253169.794715236,-126.118897561782)
(-574272.417653374,250581.366572341,-15814.3928649289)
(-638082.435605267,249859.052894767,-48904.5213297263)
(-816669.533031935,252262.360703128,-72295.1581189556)
(-1409443.64488761,252671.067093263,189179.334500067)
(-1598595.78701258,289415.886677289,305968.480476539)
(-1365370.81394404,161740.013785087,-287085.449707293)
(-1440737.9200977,67129.1154417282,-2700186.67218979)
(0,0,0)
(0,0,0)
(0,0,0)
(0,0,0)
(0,0,0)
(0,0,0)
(-764557.666940615,176479.931399511,1740.14495413027)
(-767994.479878893,175771.660554402,1824.61361129213)
(-776872.722047252,175202.868199264,-2476.68406542368)
(-797555.63288451,177265.042525418,-16281.0646511666)
(-850377.771894089,188764.323092472,-46268.5263554899)
(-1014282.00650794,225771.457336987,-71720.0989164387)
(-1662068.48617261,305399.759419942,226186.778082957)
(-1354092.48931853,196266.460408245,178593.781770522)
(-1416707.72471498,72361.0753490919,-381379.966799642)
(-1494272.08354325,675.717177824762,-2767033.3111348)
(0,0,0)
(0,0,0)
(0,0,0)
(0,0,0)
(0,0,0)
(0,0,0)
(-1098509.41575904,-341356.928026542,1111.28914861847)
(-1100751.83964826,-341932.879364179,1400.17222561177)
(-1106447.14414365,-342518.375491938,-152.959971369111)
(-1119174.26996142,-341660.257855713,-4472.58423336995)
(-1148286.83847111,-336387.245119148,-8985.9099446067)
(-1217819.71912827,-323673.577832818,8115.91515387669)
(-1369755.91572434,-314395.981560142,117354.470119256)
(-1419180.7469163,-385247.235303404,55001.5544644231)
(-1549671.4790813,-449444.060271119,-452792.07713907)
(-1574294.74099538,-390914.124389203,-2767504.68687464)
(0,0,0)
(0,0,0)
(0,0,0)
(0,0,0)
(0,0,0)
(0,0,0)
(-1345545.05798794,-2703924.36258877,608.515962691234)
(-1346625.74493336,-2704638.36851758,994.232626311773)
(-1349348.98004893,-2705853.03827083,1022.19074458481)
(-1355229.67093229,-2707228.1500513,1141.29688372975)
(-1367751.02917947,-2708718.230905,4017.9679211939)
(-1393947.35601185,-2713031.08293555,17678.4808029038)
(-1442298.91615479,-2730999.18280136,46878.2761139431)
(-1495962.7257668,-2778289.87122315,-8836.48004076109)
(-1574793.87208069,-2769860.8419216,-393971.918359751)
(-1519796.3571272,-2376183.82360681,-2376393.44041858)
(0,0,0)
(0,0,0)
(0,0,0)
(0,0,0)
(0,0,0)
(0,0,0)
(0,0,0)
(0,0,0)
(0,0,0)
(0,0,0)
(0,0,0)
(0,0,0)
(0,0,0)
(0,0,0)
(0,0,0)
(0,0,0)
(0,0,0)
(0,0,0)
(0,0,0)
(0,0,0)
(0,0,0)
(0,0,0)
(0,0,0)
(0,0,0)
(0,0,0)
(0,0,0)
(0,0,0)
(0,0,0)
(0,0,0)
(0,0,0)
(0,0,0)
(0,0,0)
(0,0,0)
(0,0,0)
(0,0,0)
(0,0,0)
(0,0,0)
(0,0,0)
(0,0,0)
(0,0,0)
(0,0,0)
(0,0,0)
(0,0,0)
(0,0,0)
(0,0,0)
(0,0,0)
(0,0,0)
(0,0,0)
(0,0,0)
(0,0,0)
(0,0,0)
(0,0,0)
(0,0,0)
(0,0,0)
(0,0,0)
(0,0,0)
(0,0,0)
(0,0,0)
(0,0,0)
(0,0,0)
(0,0,0)
(0,0,0)
(0,0,0)
(0,0,0)
(0,0,0)
(0,0,0)
(0,0,0)
(0,0,0)
(0,0,0)
(0,0,0)
(0,0,0)
(0,0,0)
(0,0,0)
(0,0,0)
(0,0,0)
(0,0,0)
(0,0,0)
(0,0,0)
(0,0,0)
(0,0,0)
(0,0,0)
(0,0,0)
(0,0,0)
(0,0,0)
(0,0,0)
(0,0,0)
(0,0,0)
(0,0,0)
(0,0,0)
(0,0,0)
(0,0,0)
(0,0,0)
(0,0,0)
(0,0,0)
(0,0,0)
(0,0,0)
(0,0,0)
(0,0,0)
(0,0,0)
(0,0,0)
(0,0,0)
(0,0,0)
(-217822.55330157,19038.6299267755,14655.8912684841)
(-224389.274831144,17582.4000795531,29630.4400678935)
(-238816.568576807,14186.1476404838,45048.0389796629)
(-263890.7284743,8003.42609815743,60157.6009281204)
(-304136.801314375,-2108.4157416071,71799.277698091)
(-366022.332345848,-16603.8101308448,70056.6893577274)
(-454875.817216907,-31136.9875266493,25040.9054303573)
(-564980.025583153,-31199.6317312729,-141900.761244309)
(-653026.666478873,-19151.7948826142,-565666.511939792)
(-567442.308961122,-8104.28700439227,-1333621.50058042)
(0,0,0)
(0,0,0)
(0,0,0)
(0,0,0)
(0,0,0)
(0,0,0)
(-225249.614023883,38777.4873019106,13176.8217551427)
(-231445.876964831,36021.0443974495,26290.7563169718)
(-245042.917687146,29498.6777111267,38970.8891252498)
(-268727.863641029,16996.611880877,50119.6855198011)
(-307123.85794995,-5471.33692448547,57400.3930241987)
(-367217.334843973,-42982.8662152398,55614.9205652244)
(-455497.246665665,-90560.685932316,25060.4037753737)
(-562239.464904609,-89458.634607206,-129750.88355177)
(-648619.186818303,-47790.9509578724,-554504.029154385)
(-564732.347138004,-18149.0670327616,-1325346.2874598)
(0,0,0)
(0,0,0)
(0,0,0)
(0,0,0)
(0,0,0)
(0,0,0)
(-241366.830295335,59345.8201080441,10363.5225534223)
(-246827.098594706,55727.1306884707,19773.5653824994)
(-258821.973874123,46999.6832140599,26558.428658603)
(-279753.391446069,29231.2598884858,27737.8038394374)
(-314313.081852997,-7215.62771950548,20033.9171121671)
(-371932.025162794,-84662.458488518,8235.71485229589)
(-469196.477479858,-233380.440471023,26386.0527830863)
(-562262.42531484,-230573.815884143,-87850.5925377649)
(-638012.187230632,-93546.0906518522,-524623.077053351)
(-558190.023428489,-29187.7694481998,-1306928.44194748)
(0,0,0)
(0,0,0)
(0,0,0)
(0,0,0)
(0,0,0)
(0,0,0)
(-269100.097708611,79059.0534351038,6716.42352998493)
(-273546.00419713,75420.5970896769,11041.5643828881)
(-283209.585820139,66597.3098588639,8791.61907900666)
(-299712.388552594,48113.1766150406,-8681.38759938445)
(-326839.98512919,6070.0622224912,-57262.6515442827)
(-380347.134576642,-112972.721014968,-140253.35474059)
(-573761.094755711,-573732.618981233,29465.0734954174)
(-603333.29907628,-603495.536120603,49441.6432592106)
(-613419.762139234,-137705.350047002,-460033.729072468)
(-545040.077187302,-30993.6942202329,-1277482.43912261)
(0,0,0)
(0,0,0)
(0,0,0)
(0,0,0)
(0,0,0)
(0,0,0)
(-312839.324216902,92205.4656850909,3010.30404309836)
(-316119.823166894,89394.3485916212,2179.7232111723)
(-322920.84049424,82940.3698454846,-9670.62158982017)
(-332703.671261535,70847.9295637973,-50604.2307312661)
(-339690.940037436,48912.3984041577,-176085.247490453)
(-306174.543359592,12771.4774084,-600710.909246134)
(-7.96659416569646e-05,-2.10135459305767e-05,5.13808210477609e-05)