/*--------------------------------*- C++ -*----------------------------------*\
| =========                 |                                                 |
| \\      /  F ield         | foam-extend: Open Source CFD                    |
|  \\    /   O peration     | Version:     4.0                                |
|   \\  /    A nd           | Web:         http://www.foam-extend.org         |
|    \\/     M anipulation  |                                                 |
\*---------------------------------------------------------------------------*/
FoamFile
{
    version 2.0;
    format ascii;
    class volVectorField;
    location "2777";
    object      E;
}
// * * * * * * * * * * * * * * * * * * * * * * * * * * * * * * * * * * * * * //

dimensions      [0 1 -1 0 0 0 0];

internalField   nonuniform List<vector>
4096
(
(0,0,0)
(0,0,0)
(0,0,0)
(0,0,0)
(0,0,0)
(0,0,0)
(0,0,0)
(0,0,0)
(0,0,0)
(0,0,0)
(0,0,0)
(0,0,0)
(0,0,0)
(0,0,0)
(0,0,0)
(0,0,0)
(0,0,0)
(0,0,0)
(0,0,0)
(0,0,0)
(0,0,0)
(0,0,0)
(0,0,0)
(0,0,0)
(0,0,0)
(0,0,0)
(0,0,0)
(0,0,0)
(0,0,0)
(0,0,0)
(0,0,0)
(0,0,0)
(0,0,0)
(0,0,0)
(0,0,0)
(0,0,0)
(0,0,0)
(0,0,0)
(0,0,0)
(0,0,0)
(0,0,0)
(0,0,0)
(0,0,0)
(0,0,0)
(0,0,0)
(0,0,0)
(0,0,0)
(0,0,0)
(0,0,0)
(0,0,0)
(0,0,0)
(0,0,0)
(0,0,0)
(0,0,0)
(0,0,0)
(0,0,0)
(0,0,0)
(0,0,0)
(0,0,0)
(0,0,0)
(0,0,0)
(0,0,0)
(0,0,0)
(0,0,0)
(0,0,0)
(0,0,0)
(0,0,0)
(0,0,0)
(0,0,0)
(0,0,0)
(0,0,0)
(0,0,0)
(0,0,0)
(0,0,0)
(0,0,0)
(0,0,0)
(0,0,0)
(0,0,0)
(0,0,0)
(0,0,0)
(0,0,0)
(0,0,0)
(0,0,0)
(0,0,0)
(0,0,0)
(0,0,0)
(0,0,0)
(0,0,0)
(0,0,0)
(0,0,0)
(0,0,0)
(0,0,0)
(0,0,0)
(0,0,0)
(0,0,0)
(0,0,0)
(0,0,0)
(0,0,0)
(0,0,0)
(0,0,0)
(0,0,0)
(0,0,0)
(0,0,0)
(0,0,0)
(0,0,0)
(0,0,0)
(0,0,0)
(0,0,0)
(0,0,0)
(0,0,0)
(0,0,0)
(0,0,0)
(0,0,0)
(0,0,0)
(0,0,0)
(0,0,0)
(0,0,0)
(0,0,0)
(0,0,0)
(0,0,0)
(0,0,0)
(0,0,0)
(0,0,0)
(0,0,0)
(0,0,0)
(0,0,0)
(0,0,0)
(0,0,0)
(0,0,0)
(0,0,0)
(0,0,0)
(0,0,0)
(0,0,0)
(0,0,0)
(0,0,0)
(0,0,0)
(0,0,0)
(0,0,0)
(0,0,0)
(0,0,0)
(0,0,0)
(0,0,0)
(0,0,0)
(0,0,0)
(0,0,0)
(0,0,0)
(0,0,0)
(0,0,0)
(0,0,0)
(0,0,0)
(0,0,0)
(0,0,0)
(0,0,0)
(0,0,0)
(0,0,0)
(0,0,0)
(0,0,0)
(0,0,0)
(0,0,0)
(0,0,0)
(0,0,0)
(0,0,0)
(0,0,0)
(0,0,0)
(0,0,0)
(0,0,0)
(0,0,0)
(0,0,0)
(0,0,0)
(0,0,0)
(0,0,0)
(0,0,0)
(0,0,0)
(0,0,0)
(0,0,0)
(0,0,0)
(0,0,0)
(0,0,0)
(0,0,0)
(0,0,0)
(0,0,0)
(0,0,0)
(0,0,0)
(0,0,0)
(0,0,0)
(0,0,0)
(0,0,0)
(0,0,0)
(0,0,0)
(0,0,0)
(0,0,0)
(0,0,0)
(0,0,0)
(0,0,0)
(0,0,0)
(0,0,0)
(0,0,0)
(0,0,0)
(0,0,0)
(0,0,0)
(0,0,0)
(0,0,0)
(0,0,0)
(0,0,0)
(0,0,0)
(0,0,0)
(0,0,0)
(0,0,0)
(0,0,0)
(0,0,0)
(0,0,0)
(0,0,0)
(0,0,0)
(0,0,0)
(0,0,0)
(0,0,0)
(0,0,0)
(0,0,0)
(0,0,0)
(0,0,0)
(0,0,0)
(0,0,0)
(0,0,0)
(0,0,0)
(0,0,0)
(0,0,0)
(0,0,0)
(0,0,0)
(0,0,0)
(0,0,0)
(0,0,0)
(0,0,0)
(0,0,0)
(0,0,0)
(0,0,0)
(0,0,0)
(0,0,0)
(0,0,0)
(0,0,0)
(0,0,0)
(0,0,0)
(0,0,0)
(0,0,0)
(0,0,0)
(0,0,0)
(0,0,0)
(0,0,0)
(0,0,0)
(0,0,0)
(0,0,0)
(0,0,0)
(0,0,0)
(0,0,0)
(0,0,0)
(0,0,0)
(0,0,0)
(0,0,0)
(0,0,0)
(0,0,0)
(0,0,0)
(0,0,0)
(0,0,0)
(0,0,0)
(0,0,0)
(0,0,0)
(0,0,0)
(0,0,0)
(0,0,0)
(0,0,0)
(0,0,0)
(0,0,0)
(0,0,0)
(0,0,0)
(0,0,0)
(0,0,0)
(0,0,0)
(0,0,0)
(0,0,0)
(0,0,0)
(0,0,0)
(0,0,0)
(0,0,0)
(0,0,0)
(0,0,0)
(0,0,0)
(0,0,0)
(0,0,0)
(0,0,0)
(0,0,0)
(0,0,0)
(0,0,0)
(0,0,0)
(0,0,0)
(0,0,0)
(0,0,0)
(0,0,0)
(0,0,0)
(0,0,0)
(0,0,0)
(0,0,0)
(0,0,0)
(0,0,0)
(0,0,0)
(0,0,0)
(0,0,0)
(0,0,0)
(0,0,0)
(0,0,0)
(0,0,0)
(0,0,0)
(0,0,0)
(0,0,0)
(0,0,0)
(0,0,0)
(0,0,0)
(0,0,0)
(0,0,0)
(0,0,0)
(0,0,0)
(0,0,0)
(0,0,0)
(0,0,0)
(0,0,0)
(0,0,0)
(0,0,0)
(0,0,0)
(0,0,0)
(0,0,0)
(0,0,0)
(0,0,0)
(0,0,0)
(0,0,0)
(0,0,0)
(0,0,0)
(0,0,0)
(0,0,0)
(0,0,0)
(0,0,0)
(0,0,0)
(0,0,0)
(0,0,0)
(0,0,0)
(0,0,0)
(0,0,0)
(0,0,0)
(0,0,0)
(0,0,0)
(0,0,0)
(0,0,0)
(0,0,0)
(0,0,0)
(0,0,0)
(0,0,0)
(0,0,0)
(0,0,0)
(0,0,0)
(0,0,0)
(0,0,0)
(0,0,0)
(0,0,0)
(0,0,0)
(0,0,0)
(0,0,0)
(0,0,0)
(0,0,0)
(0,0,0)
(0,0,0)
(0,0,0)
(0,0,0)
(0,0,0)
(0,0,0)
(0,0,0)
(0,0,0)
(0,0,0)
(0,0,0)
(0,0,0)
(0,0,0)
(0,0,0)
(0,0,0)
(0,0,0)
(0,0,0)
(0,0,0)
(0,0,0)
(0,0,0)
(0,0,0)
(0,0,0)
(0,0,0)
(0,0,0)
(0,0,0)
(0,0,0)
(0,0,0)
(0,0,0)
(0,0,0)
(0,0,0)
(0,0,0)
(0,0,0)
(0,0,0)
(0,0,0)
(0,0,0)
(0,0,0)
(0,0,0)
(0,0,0)
(0,0,0)
(0,0,0)
(0,0,0)
(0,0,0)
(0,0,0)
(0,0,0)
(0,0,0)
(0,0,0)
(0,0,0)
(0,0,0)
(0,0,0)
(0,0,0)
(0,0,0)
(0,0,0)
(0,0,0)
(0,0,0)
(0,0,0)
(0,0,0)
(0,0,0)
(0,0,0)
(0,0,0)
(0,0,0)
(0,0,0)
(0,0,0)
(0,0,0)
(0,0,0)
(0,0,0)
(0,0,0)
(0,0,0)
(0,0,0)
(0,0,0)
(0,0,0)
(0,0,0)
(0,0,0)
(0,0,0)
(0,0,0)
(0,0,0)
(0,0,0)
(0,0,0)
(0,0,0)
(0,0,0)
(0,0,0)
(0,0,0)
(0,0,0)
(0,0,0)
(0,0,0)
(0,0,0)
(0,0,0)
(0,0,0)
(0,0,0)
(0,0,0)
(0,0,0)
(0,0,0)
(0,0,0)
(0,0,0)
(0,0,0)
(0,0,0)
(0,0,0)
(0,0,0)
(0,0,0)
(0,0,0)
(0,0,0)
(0,0,0)
(0,0,0)
(0,0,0)
(0,0,0)
(0,0,0)
(0,0,0)
(0,0,0)
(0,0,0)
(0,0,0)
(0,0,0)
(0,0,0)
(0,0,0)
(0,0,0)
(0,0,0)
(0,0,0)
(0,0,0)
(0,0,0)
(0,0,0)
(0,0,0)
(0,0,0)
(0,0,0)
(0,0,0)
(0,0,0)
(0,0,0)
(0,0,0)
(0,0,0)
(0,0,0)
(0,0,0)
(0,0,0)
(0,0,0)
(0,0,0)
(0,0,0)
(0,0,0)
(0,0,0)
(0,0,0)
(0,0,0)
(0,0,0)
(0,0,0)
(0,0,0)
(0,0,0)
(0,0,0)
(0,0,0)
(0,0,0)
(0,0,0)
(0,0,0)
(0,0,0)
(0,0,0)
(0,0,0)
(0,0,0)
(0,0,0)
(0,0,0)
(0,0,0)
(0,0,0)
(0,0,0)
(0,0,0)
(0,0,0)
(0,0,0)
(0,0,0)
(0,0,0)
(0,0,0)
(0,0,0)
(0,0,0)
(0,0,0)
(0,0,0)
(0,0,0)
(0,0,0)
(0,0,0)
(0,0,0)
(0,0,0)
(0,0,0)
(0,0,0)
(0,0,0)
(0,0,0)
(0,0,0)
(0,0,0)
(0,0,0)
(0,0,0)
(0,0,0)
(0,0,0)
(0,0,0)
(0,0,0)
(0,0,0)
(0,0,0)
(0,0,0)
(0,0,0)
(0,0,0)
(0,0,0)
(0,0,0)
(0,0,0)
(0,0,0)
(0,0,0)
(0,0,0)
(0,0,0)
(0,0,0)
(0,0,0)
(0,0,0)
(0,0,0)
(0,0,0)
(0,0,0)
(0,0,0)
(0,0,0)
(0,0,0)
(0,0,0)
(0,0,0)
(0,0,0)
(0,0,0)
(0,0,0)
(0,0,0)
(0,0,0)
(0,0,0)
(0,0,0)
(0,0,0)
(0,0,0)
(0,0,0)
(0,0,0)
(0,0,0)
(0,0,0)
(0,0,0)
(0,0,0)
(0,0,0)
(0,0,0)
(0,0,0)
(0,0,0)
(0,0,0)
(0,0,0)
(0,0,0)
(0,0,0)
(0,0,0)
(0,0,0)
(0,0,0)
(0,0,0)
(0,0,0)
(0,0,0)
(0,0,0)
(0,0,0)
(0,0,0)
(0,0,0)
(0,0,0)
(0,0,0)
(0,0,0)
(0,0,0)
(0,0,0)
(0,0,0)
(0,0,0)
(0,0,0)
(0,0,0)
(0,0,0)
(0,0,0)
(0,0,0)
(0,0,0)
(0,0,0)
(0,0,0)
(0,0,0)
(0,0,0)
(0,0,0)
(0,0,0)
(0,0,0)
(0,0,0)
(0,0,0)
(0,0,0)
(0,0,0)
(0,0,0)
(0,0,0)
(0,0,0)
(0,0,0)
(0,0,0)
(0,0,0)
(0,0,0)
(0,0,0)
(0,0,0)
(0,0,0)
(0,0,0)
(0,0,0)
(0,0,0)
(0,0,0)
(0,0,0)
(0,0,0)
(0,0,0)
(0,0,0)
(0,0,0)
(0,0,0)
(0,0,0)
(0,0,0)
(0,0,0)
(0,0,0)
(0,0,0)
(0,0,0)
(0,0,0)
(0,0,0)
(0,0,0)
(0,0,0)
(0,0,0)
(0,0,0)
(0,0,0)
(0,0,0)
(0,0,0)
(0,0,0)
(0,0,0)
(0,0,0)
(0,0,0)
(0,0,0)
(0,0,0)
(0,0,0)
(0,0,0)
(0,0,0)
(0,0,0)
(0,0,0)
(0,0,0)
(0,0,0)
(0,0,0)
(0,0,0)
(0,0,0)
(0,0,0)
(0,0,0)
(0,0,0)
(0,0,0)
(0,0,0)
(0,0,0)
(0,0,0)
(0,0,0)
(0,0,0)
(0,0,0)
(0,0,0)
(0,0,0)
(0,0,0)
(0,0,0)
(0,0,0)
(0,0,0)
(0,0,0)
(0,0,0)
(0,0,0)
(0,0,0)
(0,0,0)
(0,0,0)
(0,0,0)
(0,0,0)
(0,0,0)
(0,0,0)
(0,0,0)
(0,0,0)
(0,0,0)
(0,0,0)
(0,0,0)
(0,0,0)
(0,0,0)
(0,0,0)
(0,0,0)
(0,0,0)
(0,0,0)
(0,0,0)
(0,0,0)
(0,0,0)
(0,0,0)
(0,0,0)
(0,0,0)
(0,0,0)
(0,0,0)
(0,0,0)
(0,0,0)
(0,0,0)
(0,0,0)
(0,0,0)
(0,0,0)
(0,0,0)
(0,0,0)
(0,0,0)
(0,0,0)
(0,0,0)
(0,0,0)
(0,0,0)
(0,0,0)
(0,0,0)
(0,0,0)
(0,0,0)
(0,0,0)
(0,0,0)
(0,0,0)
(0,0,0)
(0,0,0)
(0,0,0)
(0,0,0)
(0,0,0)
(0,0,0)
(0,0,0)
(0,0,0)
(0,0,0)
(0,0,0)
(0,0,0)
(0,0,0)
(0,0,0)
(0,0,0)
(0,0,0)
(0,0,0)
(0,0,0)
(0,0,0)
(0,0,0)
(0,0,0)
(0,0,0)
(0,0,0)
(0,0,0)
(0,0,0)
(0,0,0)
(0,0,0)
(0,0,0)
(0,0,0)
(0,0,0)
(0,0,0)
(0,0,0)
(0,0,0)
(0,0,0)
(0,0,0)
(0,0,0)
(0,0,0)
(0,0,0)
(0,0,0)
(0,0,0)
(0,0,0)
(0,0,0)
(0,0,0)
(0,0,0)
(0,0,0)
(0,0,0)
(0,0,0)
(0,0,0)
(0,0,0)
(0,0,0)
(0,0,0)
(0,0,0)
(0,0,0)
(0,0,0)
(0,0,0)
(0,0,0)
(0,0,0)
(0,0,0)
(0,0,0)
(0,0,0)
(0,0,0)
(0,0,0)
(0,0,0)
(0,0,0)
(0,0,0)
(0,0,0)
(0,0,0)
(0,0,0)
(0,0,0)
(0,0,0)
(0,0,0)
(0,0,0)
(0,0,0)
(0,0,0)
(0,0,0)
(0,0,0)
(0,0,0)
(0,0,0)
(0,0,0)
(-160809.928451277,85668.2966763946,75141.6317748812)
(-170159.798468482,82154.5968478751,163146.833395488)
(-191646.393350301,74790.8615789188,280002.365166867)
(-232192.80231287,63226.4672970117,448968.700182735)
(-305276.364737506,47644.3452369455,706600.719683296)
(-436482.853853599,29735.4685454721,1113348.10499143)
(-674042.230614108,13428.7379523262,1773961.59765323)
(-1103315.67936353,3422.18205085032,2873855.09496592)
(-1819619.05900904,58.6549719046252,4693415.49900303)
(-2535214.35897102,-232.897291231347,7228862.75526536)
(0,0,0)
(0,0,0)
(0,0,0)
(0,0,0)
(0,0,0)
(0,0,0)
(-170126.043822507,184147.063374945,71647.2771239551)
(-179533.026900963,177492.3390581,155842.561814696)
(-201323.919211777,163490.715640806,268466.626964584)
(-242831.863024675,141139.745458759,433385.211827513)
(-317962.385891915,110314.116998779,688677.825957591)
(-452314.593353389,73667.7352423265,1097060.15261412)
(-692479.233970792,38954.3764935053,1764013.74804372)
(-1120125.04750852,16962.9801398708,2870597.99746317)
(-1830818.53458961,8249.00160865046,4693226.18541608)
(-2540421.27073138,4179.39530696348,7229235.16354921)
(0,0,0)
(0,0,0)
(0,0,0)
(0,0,0)
(0,0,0)
(0,0,0)
(-191355.756700105,310474.070319556,65028.7497554943)
(-200916.427912783,301543.89611979,141893.62060659)
(-223395.678369741,282540.20663634,246239.807980802)
(-266980.249326267,251687.796624098,402672.006141732)
(-346911.661295253,207796.451353597,652101.333082154)
(-489589.381469484,152922.699592116,1062435.75020185)
(-738033.253770043,97305.2126608268,1742118.16780459)
(-1162074.42079581,59091.8836518899,2862063.68508833)
(-1857829.35759772,38870.6464513299,4689271.39784343)
(-2552652.38163875,21010.543360607,7225092.63142854)
(0,0,0)
(0,0,0)
(0,0,0)
(0,0,0)
(0,0,0)
(0,0,0)
(-230885.696924051,485232.08087674,56127.6863668662)
(-240602.398128947,475275.925429534,122998.055186072)
(-263961.878606299,453971.458431855,215528.681996847)
(-310534.119154649,418921.970038618,358828.627736968)
(-398384.850464615,367707.319337741,597302.610217451)
(-557087.021927997,300342.402620164,1006969.92911739)
(-825280.155636191,225485.599926085,1704069.69748832)
(-1243233.61217195,164353.23697412,2842041.95633802)
(-1907344.86959399,116732.225993499,4671525.24638977)
(-2574253.95922137,62751.7111165645,7204038.03785535)
(0,0,0)
(0,0,0)
(0,0,0)
(0,0,0)
(0,0,0)
(0,0,0)
(-301733.914078766,740768.40797057,46197.5869849309)
(-311405.180158053,731077.906927922,101800.785644593)
(-335220.511698197,710374.474141104,180618.281633541)
(-384305.467242417,676203.72926332,307641.989651256)
(-480326.293655146,625644.699732401,530030.902911742)
(-658854.527087145,556919.211055444,932308.621563588)
(-958100.134233494,472738.063000489,1643156.29272267)
(-1366766.30404434,379659.359424566,2794616.47431662)
(-1979278.79698588,272891.808040363,4617735.68925574)
(-2605459.73315335,144594.288763869,7141352.84476177)
(0,0,0)
(0,0,0)
(0,0,0)
(0,0,0)
(0,0,0)
(0,0,0)
(-429681.705747335,1133908.17360491,36541.9401130033)
(-438852.781495897,1125271.99312451,81200.6354123063)
(-461882.061875495,1106832.83437282,146624.337056083)
(-510488.682239738,1076079.98977423,257236.758784902)
(-607529.640056071,1028942.19896368,461468.899609706)
(-789460.137767631,959584.170758892,848264.077673896)
(-1089639.51622047,860430.580517218,1550211.07637764)
(-1479765.21651369,721706.74438387,2687928.90793204)
(-2057167.97872091,528412.798380412,4489575.89631295)
(-2644708.92889289,282041.872085269,6996837.24188437)
(0,0,0)
(0,0,0)
(0,0,0)
(0,0,0)
(0,0,0)
(0,0,0)
(-664576.831101618,1770551.08064676,27933.9240597567)
(-672701.496949887,1763083.28020628,62824.1339278804)
(-693379.848540099,1747030.22165114,116006.595189669)
(-737753.29496404,1719549.93483798,210289.945089959)
(-827887.669380484,1674839.1102275,392280.703206617)
(-998852.605648693,1601569.39664205,749148.082972159)
(-1280565.14296169,1478562.0741755,1411581.73227557)
(-1635291.91380043,1273845.48729036,2494734.9031695)
(-2173219.7972751,953061.039964589,4243306.45886036)
(-2708730.28655194,519235.415494084,6714843.2020036)
(0,0,0)
(0,0,0)
(0,0,0)
(0,0,0)
(0,0,0)
(0,0,0)
(-1094128.11999155,2844186.05026146,20493.1503768475)
(-1100622.19780825,2837392.14810682,46806.480284575)
(-1117291.43979782,2822485.54301904,88642.5987145038)
(-1153367.74476569,2795747.44382622,165812.834491932)
(-1227463.97255253,2748944.68218648,319171.235085473)
(-1369599.05541732,2664157.75278598,626181.934358852)
(-1605492.17164398,2503251.52640318,1206984.65377511)
(-1892637.24071979,2199375.16089393,2174092.22089137)
(-2383908.42290962,1701462.78359263,3809598.90017294)
(-2831154.06115263,964372.106211119,6195616.27060848)
(0,0,0)
(0,0,0)
(0,0,0)
(0,0,0)
(0,0,0)
(0,0,0)
(-1813354.60782562,4643783.26067444,13757.397412624)
(-1817782.60456289,4637003.12078339,31929.0292989394)
(-1829125.42383356,4621486.51148948,62053.4846620027)
(-1853403.91334299,4591843.44205543,119361.39977577)
(-1902353.59907757,4535990.31337049,234669.367669341)
(-1994324.74701263,4427693.595411,465458.272056965)
(-2148725.21282449,4214155.48494925,903279.526335384)
(-2378067.55514881,3804439.58857646,1676282.65380169)
(-2772521.72779205,3077732.74212301,3072534.42306326)
(-3044697.91149455,1850445.51905312,5231158.92171582)
(0,0,0)
(0,0,0)
(0,0,0)
(0,0,0)
(0,0,0)
(0,0,0)
(-2532328.58199953,7169131.5991386,6980.24353537336)
(-2534546.51204701,7162104.32307689,16425.5532888897)
(-2540175.0476239,7145528.08237369,32559.0300286189)
(-2552100.68816752,7112770.12923232,63733.0310193019)
(-2575801.80166824,7048938.84247079,126586.303587252)
(-2620096.34137674,6922247.34494005,252128.895434906)
(-2697367.28907109,6669912.42966927,493739.239785951)
(-2827525.62819165,6175991.75753051,949712.699023536)
(-3043970.62411725,5226091.01678018,1845325.04848355)
(-3065572.32365207,3380665.76992674,3380677.12126205)
(0,0,0)
(0,0,0)
(0,0,0)
(0,0,0)
(0,0,0)
(0,0,0)
(0,0,0)
(0,0,0)
(0,0,0)
(0,0,0)
(0,0,0)
(0,0,0)
(0,0,0)
(0,0,0)
(0,0,0)
(0,0,0)
(0,0,0)
(0,0,0)
(0,0,0)
(0,0,0)
(0,0,0)
(0,0,0)
(0,0,0)
(0,0,0)
(0,0,0)
(0,0,0)
(0,0,0)
(0,0,0)
(0,0,0)
(0,0,0)
(0,0,0)
(0,0,0)
(0,0,0)
(0,0,0)
(0,0,0)
(0,0,0)
(0,0,0)
(0,0,0)
(0,0,0)
(0,0,0)
(0,0,0)
(0,0,0)
(0,0,0)
(0,0,0)
(0,0,0)
(0,0,0)
(0,0,0)
(0,0,0)
(0,0,0)
(0,0,0)
(0,0,0)
(0,0,0)
(0,0,0)
(0,0,0)
(0,0,0)
(0,0,0)
(0,0,0)
(0,0,0)
(0,0,0)
(0,0,0)
(0,0,0)
(0,0,0)
(0,0,0)
(0,0,0)
(0,0,0)
(0,0,0)
(0,0,0)
(0,0,0)
(0,0,0)
(0,0,0)
(0,0,0)
(0,0,0)
(0,0,0)
(0,0,0)
(0,0,0)
(0,0,0)
(0,0,0)
(0,0,0)
(0,0,0)
(0,0,0)
(0,0,0)
(0,0,0)
(0,0,0)
(0,0,0)
(0,0,0)
(0,0,0)
(0,0,0)
(0,0,0)
(0,0,0)
(0,0,0)
(0,0,0)
(0,0,0)
(0,0,0)
(0,0,0)
(0,0,0)
(0,0,0)
(0,0,0)
(0,0,0)
(0,0,0)
(0,0,0)
(0,0,0)
(0,0,0)
(23775181.5838779,76380.9756557895,65910.364757692)
(23759567.8309676,72764.0689440321,141701.519120324)
(23723825.1714702,65039.8753369865,239472.931705449)
(23657140.0244604,52538.7769097547,375884.180765066)
(23538514.7024743,34956.4537902025,575419.512505685)
(23327528.2721808,13899.4028157791,875791.83639815)
(22940453.451938,-5032.80360414277,1344611.8101927)
(22175561.9130975,-13412.1612624671,2157429.23173682)
(20449629.7651611,-11158.1888680733,3977621.44917752)
(15762437.072812,-5469.98490627908,9763722.85504348)
(0,0,0)
(0,0,0)
(0,0,0)
(0,0,0)
(0,0,0)
(0,0,0)
(23759328.8745616,162897.661171322,62311.2488430878)
(23743731.0049888,156052.665238656,134041.473401397)
(23707718.5735043,141344.859355548,226976.849409421)
(23639764.4328254,116957.24098632,358244.942225469)
(23517860.6081865,81365.5375242858,554295.717155689)
(23300931.2465847,36386.9606866638,856845.172089427)
(22907934.4824734,-6586.25233549323,1336267.75711935)
(22146229.3094879,-24971.2714076941,2159755.36301075)
(20431427.4913481,-18741.7920852656,3983375.79303288)
(15754499.0199138,-8038.15056916068,9769306.52079311)
(0,0,0)
(0,0,0)
(0,0,0)
(0,0,0)
(0,0,0)
(0,0,0)
(23723408.4814122,270882.810496529,55533.4653050339)
(23707778.6884616,261760.202152048,119413.664759944)
(23671083.8798319,241887.613776464,202674.204880105)
(23600166.5845686,208058.73055401,322708.734160318)
(23469826.3174129,156252.546898468,509366.598820705)
(23235119.1560654,85366.9363984457,813960.938316833)
(22819596.6850527,10039.4759421912,1317988.1239591)
(22065138.6058602,-22049.575361688,2166136.25399981)
(20384274.4946009,-10607.3096011136,3994180.77205962)
(15734935.3528451,-549.061161357916,9777386.80091066)
(0,0,0)
(0,0,0)
(0,0,0)
(0,0,0)
(0,0,0)
(0,0,0)
(23657532.5136458,414280.81018721,46466.642482148)
(23641920.332211,404336.325224942,99650.6418120037)
(23604331.061139,382570.216024464,168957.952561415)
(23528794.3352849,345013.848329154,270957.233089532)
(23382885.6643017,285623.722757938,438598.395206506)
(23107924.3411669,198439.866434509,738796.954818288)
(22623233.7863487,92566.3817976985,1286038.9597206)
(21880517.0594616,40798.2085513471,2177723.35691677)
(20288919.22252,44819.0367521686,4004315.77119204)
(15698300.9680347,31589.965224079,9777904.67029348)
(0,0,0)
(0,0,0)
(0,0,0)
(0,0,0)
(0,0,0)
(0,0,0)
(23541533.1006499,612745.129337241,36551.5188639215)
(23526277.5806728,603507.387464511,77980.5485361342)
(23488500.9505619,583580.968340449,131531.186702865)
(23409013.8152573,549906.30554873,211602.299726209)
(23245300.0758256,498360.520893633,351521.984852569)
(22910029.100964,426250.727559081,633110.348419675)
(22270277.6341277,341141.170424564,1234440.64417434)
(21538244.4006322,266625.195703529,2181885.80508834)
(20139495.3348729,194988.67747674,3991224.88524757)
(15643854.3478837,105385.687527509,9746397.93464965)
(0,0,0)
(0,0,0)
(0,0,0)
(0,0,0)
(0,0,0)
(0,0,0)
(23335022.9624762,898945.045199232,27378.2686570715)
(23320816.1862479,891337.082931254,58162.4581891825)
(23284852.1979176,875264.076626401,98027.9428528515)
(23206816.5564272,848725.573132916,160186.289344553)
(23041203.8647543,808524.041958884,279572.116211644)
(22696320.58329,750169.962423959,548155.013031747)
(22048454.8324941,669444.276533107,1160040.41095131)
(21348764.8150188,566106.514916741,2110311.9129482)
(20012377.7083493,412318.281145146,3901719.47495228)
(15581501.806633,218040.790602282,9641136.48909417)
(0,0,0)
(0,0,0)
(0,0,0)
(0,0,0)
(0,0,0)
(0,0,0)
(22951919.6139074,1340909.35684672,19822.0960861173)
(22939541.1084389,1335050.04604019,42149.3803310496)
(22907684.8109642,1323018.6160842,71613.0341116862)
(22836898.0868207,1303832.56081432,120137.517388219)
(22682485.147198,1275215.30156272,221356.293948608)
(22352679.6019059,1230785.45109223,467491.450468335)
(21724330.5330623,1153524.34157832,1056798.56214179)
(21092911.687114,1016377.3929491,1956606.93593768)
(19824153.5121982,742310.432362785,3707524.32798926)
(15475100.9149622,396813.013561863,9423203.7562583)
(0,0,0)
(0,0,0)
(0,0,0)
(0,0,0)
(0,0,0)
(0,0,0)
(22186260.5585888,2124805.35096853,13998.1800405591)
(22176500.3033454,2120066.97723169,30141.6004379913)
(22151117.5968858,2110494.60192733,52539.4306539303)
(22093966.1610554,2095575.86689718,91745.0714926033)
(21966739.1068786,2073937.8384855,177102.307881237)
(21686977.8165924,2039277.81319363,390315.926512974)
(21137018.5961162,1959830.9701452,919781.382928576)
(20725365.8922495,1713767.87053632,1682670.62511462)
(19444480.4631846,1312739.30229839,3362135.72182749)
(15228819.5223353,750805.913345119,9026452.09129891)
(0,0,0)
(0,0,0)
(0,0,0)
(0,0,0)
(0,0,0)
(0,0,0)
(20455823.8277363,3924587.60909946,9322.15904987965)
(20449261.300106,3920020.41693539,20607.6674200298)
(20432288.8557322,3910191.72302867,37779.1194955445)
(20394905.9379343,3892887.86337941,70440.1244786178)
(20315288.3359595,3862277.87771303,142741.002956644)
(20153306.2778983,3801620.72738012,311049.916602091)
(19861375.4944304,3665207.74054089,673855.291694229)
(19451413.4150371,3354711.81137823,1281713.23340913)
(18293946.7939988,2806080.56590842,2800186.30075101)
(14479546.7246233,1829480.88438349,8275549.54633753)
(0,0,0)
(0,0,0)
(0,0,0)
(0,0,0)
(0,0,0)
(0,0,0)
(15764693.6740655,9701073.5324433,4774.6733337899)
(15761429.2464385,9696294.83175414,10807.3527721873)
(15753112.5061674,9685364.04986478,20630.3248875192)
(15735163.6932429,9664507.90014814,40028.759451195)
(15698147.9715249,9624337.07345702,82302.6432567827)
(15625364.9291088,9541897.45052439,174847.502369711)
(15490643.1247913,9366819.18142029,363508.500370615)
(15232668.383857,9003117.97360435,733191.17883871)
(14480159.0721246,8269777.80886108,1823647.09238694)
(11773678.6578738,6446079.87977963,6446079.96820762)
(0,0,0)
(0,0,0)
(0,0,0)
(0,0,0)
(0,0,0)
(0,0,0)
(0,0,0)
(0,0,0)
(0,0,0)
(0,0,0)
(0,0,0)
(0,0,0)
(0,0,0)
(0,0,0)
(0,0,0)
(0,0,0)
(0,0,0)
(0,0,0)
(0,0,0)
(0,0,0)
(0,0,0)
(0,0,0)
(0,0,0)
(0,0,0)
(0,0,0)
(0,0,0)
(0,0,0)
(0,0,0)
(0,0,0)
(0,0,0)
(0,0,0)
(0,0,0)
(0,0,0)
(0,0,0)
(0,0,0)
(0,0,0)
(0,0,0)
(0,0,0)
(0,0,0)
(0,0,0)
(0,0,0)
(0,0,0)
(0,0,0)
(0,0,0)
(0,0,0)
(0,0,0)
(0,0,0)
(0,0,0)
(0,0,0)
(0,0,0)
(0,0,0)
(0,0,0)
(0,0,0)
(0,0,0)
(0,0,0)
(0,0,0)
(0,0,0)
(0,0,0)
(0,0,0)
(0,0,0)
(0,0,0)
(0,0,0)
(0,0,0)
(0,0,0)
(0,0,0)
(0,0,0)
(0,0,0)
(0,0,0)
(0,0,0)
(0,0,0)
(0,0,0)
(0,0,0)
(0,0,0)
(0,0,0)
(0,0,0)
(0,0,0)
(0,0,0)
(0,0,0)
(0,0,0)
(0,0,0)
(0,0,0)
(0,0,0)
(0,0,0)
(0,0,0)
(0,0,0)
(0,0,0)
(0,0,0)
(0,0,0)
(0,0,0)
(0,0,0)
(0,0,0)
(0,0,0)
(0,0,0)
(0,0,0)
(0,0,0)
(0,0,0)
(0,0,0)
(0,0,0)
(0,0,0)
(0,0,0)
(0,0,0)
(0,0,0)
(-414075.98392011,60527.374121406,50447.3409339471)
(-431239.781049353,56853.3711588885,106118.729049262)
(-470050.601815051,48800.6846171559,172910.964974746)
(-540577.261745318,35039.073006548,257306.325431271)
(-661124.135789774,14216.5605329204,364445.750419811)
(-862209.959785926,-12766.6618272655,488667.791471146)
(-1191102.21365192,-37632.4572087595,579573.061527268)
(-1711601.7355125,-42824.346566792,431278.203961376)
(-2457935.5078204,-29449.3013007158,-709990.074499153)
(-3012862.7499356,-13479.8356838357,-5999493.26881035)
(0,0,0)
(0,0,0)
(0,0,0)
(0,0,0)
(0,0,0)
(0,0,0)
(-432213.653769865,126974.471013224,46812.5786969161)
(-449062.228824883,120049.551532546,98126.7793942441)
(-487447.325863682,104639.746274634,159170.764362085)
(-558040.53196349,77293.2993763285,236438.650038509)
(-680437.464925548,33255.3587919116,337415.072148863)
(-887005.002151212,-29504.5884819767,463806.394796773)
(-1223594.88635375,-94990.5778456836,574411.0315181)
(-1739049.50353594,-106118.492942995,444701.138175493)
(-2471663.79857281,-65941.2254109457,-693998.50053599)
(-3017683.14844119,-27606.337988191,-5985972.6826192)
(0,0,0)
(0,0,0)
(0,0,0)
(0,0,0)
(0,0,0)
(0,0,0)
(-472709.264956413,204831.340720162,39978.0239191297)
(-488985.457381735,195720.910735429,82787.9578168929)
(-526641.725985768,174984.242566372,131886.214600101)
(-597895.89879496,136536.108364585,192423.036232642)
(-726610.502767996,69161.2296153473,274671.13284737)
(-954475.113777049,-41922.2427410599,398400.204206107)
(-1332278.83696085,-186378.971347299,563381.266978577)
(-1834182.07746283,-206695.382644966,484995.98726085)
(-2513395.62228518,-105955.551877381,-655602.422129206)
(-3031053.67146606,-37155.9877494192,-5958346.60079954)
(0,0,0)
(0,0,0)
(0,0,0)
(0,0,0)
(0,0,0)
(0,0,0)
(-544878.426987312,298038.612760512,30920.8158500773)
(-560309.571929781,288453.060518415,62135.7174651772)
(-596884.973284279,266521.905266909,93531.2364452061)
(-669578.345345273,225034.45407609,125122.718621064)
(-812651.097270723,147828.758499345,163709.09856674)
(-1103068.65202637,371.008215452479,254125.988060777)
(-1669997.28270416,-260520.648434214,543215.881457843)
(-2145594.92712931,-301518.928166061,585868.560827104)
(-2618061.45900684,-104639.883796394,-586749.278469604)
(-3059803.59454239,-22880.4888438702,-5921203.06754092)
(0,0,0)
(0,0,0)
(0,0,0)
(0,0,0)
(0,0,0)
(0,0,0)
(-666125.375143725,406064.252569596,21349.9832419203)
(-680314.52403917,397846.449899487,40265.8458301797)
(-714860.551663026,379711.785852751,52154.6147264443)
(-787572.965057452,347506.373100198,47986.6232744538)
(-947607.343256593,294078.930615181,16361.0174980109)
(-1357356.68506557,212405.356160195,-6570.39715997922)
(-2696699.58405845,119212.325598631,502390.994250569)
(-3199134.70820327,77053.6577964545,782914.664380845)
(-2823376.35025732,67746.0496406468,-504882.436668573)
(-3106915.47838494,42969.9653673153,-5898245.91735374)
(0,0,0)
(0,0,0)
(0,0,0)
(0,0,0)
(0,0,0)
(0,0,0)
(-866128.121515055,515721.662200485,13210.8216177724)
(-878559.576170958,509923.66299844,22226.5181950386)
(-909510.370925025,497942.451365805,20075.56878189)
(-977141.272594111,478605.927107452,-5349.00894687458)
(-1132760.55452286,449624.393131117,-65212.9049283559)
(-1541544.55758407,406414.211782254,-99639.4724189513)
(-2815769.8537192,345214.100241888,460300.58640839)
(-3275976.59601082,310127.908813048,773684.893678759)
(-2918822.5822356,223961.807491323,-529613.426329775)
(-3153890.65354818,111589.109277993,-5941122.96280181)
(0,0,0)
(0,0,0)
(0,0,0)
(0,0,0)
(0,0,0)
(0,0,0)
(-1193228.22325561,575087.819398444,7498.82722240971)
(-1203479.39729033,571831.273317126,10328.8698902981)
(-1229495.65216267,566293.313713107,875.617927111037)
(-1288407.22447947,560700.770037555,-34196.7664454936)
(-1431309.51291296,559283.955187268,-108344.521133386)
(-1831668.275248,564915.384282436,-160780.669222256)
(-3160888.94733734,566032.838274224,425337.220402403)
(-3586187.76013363,648654.400065307,687627.323655138)
(-3063130.91565155,362512.133232556,-641921.4269788)
(-3231396.49261522,150477.803918739,-6052595.56678488)
(0,0,0)
(0,0,0)
(0,0,0)
(0,0,0)
(0,0,0)
(0,0,0)
(-1715314.05127196,394108.609177222,4270.9673392614)
(-1723044.06720516,392570.695807725,4793.06265663631)
(-1742910.81698303,391434.207296896,-4602.26980101096)
(-1789080.55270019,396274.501588385,-35412.1403388913)
(-1907338.22218413,422232.39349629,-102566.102327722)
(-2274688.91770738,505318.923299834,-159585.759788176)
(-3726812.03377611,683901.318146308,508093.537489399)
(-3037298.65059683,439552.909148356,401576.718510034)
(-3177839.0163409,162019.386054258,-853893.90752877)
(-3351293.85857193,1456.05121114055,-6203041.62665651)
(0,0,0)
(0,0,0)
(0,0,0)
(0,0,0)
(0,0,0)
(0,0,0)
(-2464089.57184863,-767022.102985077,2761.25900449622)
(-2469103.35165775,-768244.19347254,3657.94730575969)
(-2481853.70952482,-769431.196108157,383.063225227605)
(-2510245.05716165,-767314.76510836,-9159.52772467572)
(-2575379.56651855,-755332.898660067,-19209.1858329007)
(-2731159.81005287,-726830.347718924,19123.3203941402)
(-3071690.63760612,-706015.527099738,263823.444934027)
(-3183080.26923076,-864460.529887434,124047.715494938)
(-3475723.54314344,-1008019.92731528,-1014525.486736)
(-3530590.4878947,-876567.688222936,-6204647.38752669)
(0,0,0)
(0,0,0)
(0,0,0)
(0,0,0)
(0,0,0)
(0,0,0)
(-3017613.46324865,-6064526.04423303,1528.22581938722)
(-3020060.4746875,-6065997.96869457,2488.86942464079)
(-3026171.30086197,-6068590.46878,2649.09638317913)
(-3039291.27135707,-6071489.70741242,2996.15054438976)
(-3067276.5192112,-6074696.10787369,9500.99775146738)
(-3125934.86192459,-6084405.50306417,40093.0913873756)
(-3234312.63998424,-6124708.12808835,105458.604408864)
(-3354860.18376634,-6230305.45459972,-19450.7559983933)
(-3531627.01459299,-6210953.30659403,-883014.142744803)
(-3408123.28232514,-5328013.83737449,-5328048.90613709)
(0,0,0)
(0,0,0)
(0,0,0)
(0,0,0)
(0,0,0)
(0,0,0)
(0,0,0)
(0,0,0)
(0,0,0)
(0,0,0)
(0,0,0)
(0,0,0)
(0,0,0)
(0,0,0)
(0,0,0)
(0,0,0)
(0,0,0)
(0,0,0)
(0,0,0)
(0,0,0)
(0,0,0)
(0,0,0)
(0,0,0)
(0,0,0)
(0,0,0)
(0,0,0)
(0,0,0)
(0,0,0)
(0,0,0)
(0,0,0)
(0,0,0)
(0,0,0)
(0,0,0)
(0,0,0)
(0,0,0)
(0,0,0)
(0,0,0)
(0,0,0)
(0,0,0)
(0,0,0)
(0,0,0)
(0,0,0)
(0,0,0)
(0,0,0)
(0,0,0)
(0,0,0)
(0,0,0)
(0,0,0)
(0,0,0)
(0,0,0)
(0,0,0)
(0,0,0)
(0,0,0)
(0,0,0)
(0,0,0)
(0,0,0)
(0,0,0)
(0,0,0)
(0,0,0)
(0,0,0)
(0,0,0)
(0,0,0)
(0,0,0)
(0,0,0)
(0,0,0)
(0,0,0)
(0,0,0)
(0,0,0)
(0,0,0)
(0,0,0)
(0,0,0)
(0,0,0)
(0,0,0)
(0,0,0)
(0,0,0)
(0,0,0)
(0,0,0)
(0,0,0)
(0,0,0)
(0,0,0)
(0,0,0)
(0,0,0)
(0,0,0)
(0,0,0)
(0,0,0)
(0,0,0)
(0,0,0)
(0,0,0)
(0,0,0)
(0,0,0)
(0,0,0)
(0,0,0)
(0,0,0)
(0,0,0)
(0,0,0)
(0,0,0)
(0,0,0)
(0,0,0)
(0,0,0)
(0,0,0)
(0,0,0)
(0,0,0)
(-489874.435576466,42434.3385377589,33364.1131185961)
(-504392.353083726,39055.5168153554,67461.1683376174)
(-536487.193225312,31401.1043671948,102496.655380687)
(-592415.147195284,17549.80511553,136784.73571512)
(-682532.113063327,-5130.48215668335,163323.195145354)
(-821038.577996889,-37583.6536014078,159735.466957726)
(-1020194.33441835,-70145.09989266,58972.6876168249)
(-1267115.60735348,-70293.8865377156,-315219.554004481)
(-1464602.07617935,-43246.5001815105,-1265306.48546399)
(-1272616.11344738,-18366.5585549422,-2987186.56339724)
(0,0,0)
(0,0,0)
(0,0,0)
(0,0,0)
(0,0,0)
(0,0,0)
(-506330.281783513,86530.8320267165,30020.1345246892)
(-520026.25837655,80174.021353483,59865.65953823)
(-550328.720396998,65437.8256403561,88710.3327983883)
(-603282.84122092,37397.4741481883,114104.973023154)
(-689316.026474758,-12996.7647725074,130849.817188183)
(-823848.118140886,-97054.9240464053,127164.20362286)
(-1021689.5953789,-203714.557348194,58828.370103553)
(-1261111.97268688,-201271.962954816,-288131.084328403)
(-1454885.51901839,-107734.366698655,-1240421.49736567)
(-1266622.19168069,-41023.7450747488,-2968825.26760643)
(0,0,0)
(0,0,0)
(0,0,0)
(0,0,0)
(0,0,0)
(0,0,0)
(-542404.087951878,132487.659694462,23737.9953277259)
(-554534.671780961,124247.906031701,45213.3250487329)
(-581292.717596842,104559.221854329,60742.9204458335)
(-628137.950792665,64649.4860795015,63732.9605122262)
(-705575.691878683,-17088.6115839615,46789.9964343652)
(-834606.395960771,-190651.094136285,20517.448707953)
(-1052618.37882203,-524157.896574968,61300.3297959124)
(-1261510.62248158,-518128.439693018,-194514.648447152)
(-1431326.18291035,-210631.167628739,-1173687.28689189)
(-1252030.8497667,-65911.3640714063,-2927822.4895946)
(0,0,0)
(0,0,0)
(0,0,0)
(0,0,0)
(0,0,0)
(0,0,0)
(-604463.771819736,176544.170999025,15528.8335278705)
(-614404.130827163,168247.069543387,25624.2289135715)
(-635974.680086664,148337.575836448,20935.5817338403)
(-672920.268773521,106842.216656201,-17915.2254146113)
(-733628.561951605,12667.2862975753,-126693.658615264)
(-853454.890899031,-254081.185519126,-312877.328359768)
(-1287160.01500791,-1287315.36162013,67442.8689891413)
(-1354311.71089114,-1355082.51571754,113113.72877549)
(-1376667.59693218,-309969.505612896,-1028941.79531503)
(-1222681.42419292,-70025.8469684848,-2861949.48276748)
(0,0,0)
(0,0,0)
(0,0,0)
(0,0,0)
(0,0,0)
(0,0,0)
(-702654.369686518,205835.446880252,7237.71866156344)
(-710028.916582576,199397.865315622,5801.31543273757)
(-725120.602943796,184841.078835616,-20442.1362856528)
(-746908.577784907,157731.393853602,-111995.700755597)
(-762332.820501866,108733.693670695,-393336.630883449)
(-686943.499438009,28075.7927618067,-1345906.79479195)
(7.92466269167899e-05,2.16415501888171e-05,-5.21734387303416e-05)