/*--------------------------------*- C++ -*----------------------------------*\
| =========                 |                                                 |
| \\      /  F ield         | foam-extend: Open Source CFD                    |
|  \\    /   O peration     | Version:     4.0                                |
|   \\  /    A nd           | Web:         http://www.foam-extend.org         |
|    \\/     M anipulation  |                                                 |
\*---------------------------------------------------------------------------*/
FoamFile
{
    version 2.0;
    format ascii;
    class volVectorField;
    location "3285";
    object      H;
}
// * * * * * * * * * * * * * * * * * * * * * * * * * * * * * * * * * * * * * //

dimensions      [0 1 -1 0 0 0 0];

internalField   nonuniform List<vector>
4096
(
(0,0,0)
(0,0,0)
(0,0,0)
(0,0,0)
(0,0,0)
(0,0,0)
(0,0,0)
(0,0,0)
(0,0,0)
(0,0,0)
(0,0,0)
(0,0,0)
(0,0,0)
(0,0,0)
(0,0,0)
(0,0,0)
(0,0,0)
(0,0,0)
(0,0,0)
(0,0,0)
(0,0,0)
(0,0,0)
(0,0,0)
(0,0,0)
(0,0,0)
(0,0,0)
(0,0,0)
(0,0,0)
(0,0,0)
(0,0,0)
(0,0,0)
(0,0,0)
(0,0,0)
(0,0,0)
(0,0,0)
(0,0,0)
(0,0,0)
(0,0,0)
(0,0,0)
(0,0,0)
(0,0,0)
(0,0,0)
(0,0,0)
(0,0,0)
(0,0,0)
(0,0,0)
(0,0,0)
(0,0,0)
(0,0,0)
(0,0,0)
(0,0,0)
(0,0,0)
(0,0,0)
(0,0,0)
(0,0,0)
(0,0,0)
(0,0,0)
(0,0,0)
(0,0,0)
(0,0,0)
(0,0,0)
(0,0,0)
(0,0,0)
(0,0,0)
(0,0,0)
(0,0,0)
(0,0,0)
(0,0,0)
(0,0,0)
(0,0,0)
(0,0,0)
(0,0,0)
(0,0,0)
(0,0,0)
(0,0,0)
(0,0,0)
(0,0,0)
(0,0,0)
(0,0,0)
(0,0,0)
(0,0,0)
(0,0,0)
(0,0,0)
(0,0,0)
(0,0,0)
(0,0,0)
(0,0,0)
(0,0,0)
(0,0,0)
(0,0,0)
(0,0,0)
(0,0,0)
(0,0,0)
(0,0,0)
(0,0,0)
(0,0,0)
(0,0,0)
(0,0,0)
(0,0,0)
(0,0,0)
(0,0,0)
(0,0,0)
(0,0,0)
(0,0,0)
(0,0,0)
(0,0,0)
(0,0,0)
(0,0,0)
(0,0,0)
(0,0,0)
(0,0,0)
(0,0,0)
(0,0,0)
(0,0,0)
(0,0,0)
(0,0,0)
(0,0,0)
(0,0,0)
(0,0,0)
(0,0,0)
(0,0,0)
(0,0,0)
(0,0,0)
(0,0,0)
(0,0,0)
(0,0,0)
(0,0,0)
(0,0,0)
(0,0,0)
(0,0,0)
(0,0,0)
(0,0,0)
(0,0,0)
(0,0,0)
(0,0,0)
(0,0,0)
(0,0,0)
(0,0,0)
(0,0,0)
(0,0,0)
(0,0,0)
(0,0,0)
(0,0,0)
(0,0,0)
(0,0,0)
(0,0,0)
(0,0,0)
(0,0,0)
(0,0,0)
(0,0,0)
(0,0,0)
(0,0,0)
(0,0,0)
(0,0,0)
(0,0,0)
(0,0,0)
(0,0,0)
(0,0,0)
(0,0,0)
(0,0,0)
(0,0,0)
(0,0,0)
(0,0,0)
(0,0,0)
(0,0,0)
(0,0,0)
(0,0,0)
(0,0,0)
(0,0,0)
(0,0,0)
(0,0,0)
(0,0,0)
(0,0,0)
(0,0,0)
(0,0,0)
(0,0,0)
(0,0,0)
(0,0,0)
(0,0,0)
(0,0,0)
(0,0,0)
(0,0,0)
(0,0,0)
(0,0,0)
(0,0,0)
(0,0,0)
(0,0,0)
(0,0,0)
(0,0,0)
(0,0,0)
(0,0,0)
(0,0,0)
(0,0,0)
(0,0,0)
(0,0,0)
(0,0,0)
(0,0,0)
(0,0,0)
(0,0,0)
(0,0,0)
(0,0,0)
(0,0,0)
(0,0,0)
(0,0,0)
(0,0,0)
(0,0,0)
(0,0,0)
(0,0,0)
(0,0,0)
(0,0,0)
(0,0,0)
(0,0,0)
(0,0,0)
(0,0,0)
(0,0,0)
(0,0,0)
(0,0,0)
(0,0,0)
(0,0,0)
(0,0,0)
(0,0,0)
(0,0,0)
(0,0,0)
(0,0,0)
(0,0,0)
(0,0,0)
(0,0,0)
(0,0,0)
(0,0,0)
(0,0,0)
(0,0,0)
(0,0,0)
(0,0,0)
(0,0,0)
(0,0,0)
(0,0,0)
(0,0,0)
(0,0,0)
(0,0,0)
(0,0,0)
(0,0,0)
(0,0,0)
(0,0,0)
(0,0,0)
(0,0,0)
(0,0,0)
(0,0,0)
(0,0,0)
(0,0,0)
(0,0,0)
(0,0,0)
(0,0,0)
(0,0,0)
(0,0,0)
(0,0,0)
(0,0,0)
(0,0,0)
(0,0,0)
(0,0,0)
(0,0,0)
(0,0,0)
(0,0,0)
(0,0,0)
(0,0,0)
(0,0,0)
(0,0,0)
(0,0,0)
(0,0,0)
(0,0,0)
(0,0,0)
(0,0,0)
(0,0,0)
(0,0,0)
(0,0,0)
(0,0,0)
(0,0,0)
(0,0,0)
(0,0,0)
(0,0,0)
(0,0,0)
(0,0,0)
(0,0,0)
(0,0,0)
(0,0,0)
(0,0,0)
(0,0,0)
(0,0,0)
(0,0,0)
(0,0,0)
(0,0,0)
(0,0,0)
(0,0,0)
(0,0,0)
(0,0,0)
(0,0,0)
(0,0,0)
(0,0,0)
(0,0,0)
(0,0,0)
(0,0,0)
(0,0,0)
(0,0,0)
(0,0,0)
(0,0,0)
(0,0,0)
(0,0,0)
(0,0,0)
(0,0,0)
(0,0,0)
(0,0,0)
(0,0,0)
(0,0,0)
(0,0,0)
(0,0,0)
(0,0,0)
(0,0,0)
(0,0,0)
(0,0,0)
(0,0,0)
(0,0,0)
(0,0,0)
(0,0,0)
(0,0,0)
(0,0,0)
(0,0,0)
(0,0,0)
(0,0,0)
(0,0,0)
(0,0,0)
(0,0,0)
(0,0,0)
(0,0,0)
(0,0,0)
(0,0,0)
(0,0,0)
(0,0,0)
(0,0,0)
(0,0,0)
(0,0,0)
(0,0,0)
(0,0,0)
(0,0,0)
(0,0,0)
(0,0,0)
(0,0,0)
(0,0,0)
(0,0,0)
(0,0,0)
(0,0,0)
(0,0,0)
(0,0,0)
(0,0,0)
(0,0,0)
(0,0,0)
(0,0,0)
(0,0,0)
(0,0,0)
(0,0,0)
(0,0,0)
(0,0,0)
(0,0,0)
(0,0,0)
(0,0,0)
(0,0,0)
(0,0,0)
(0,0,0)
(0,0,0)
(0,0,0)
(0,0,0)
(0,0,0)
(0,0,0)
(0,0,0)
(0,0,0)
(0,0,0)
(0,0,0)
(0,0,0)
(0,0,0)
(0,0,0)
(0,0,0)
(0,0,0)
(0,0,0)
(0,0,0)
(0,0,0)
(0,0,0)
(0,0,0)
(0,0,0)
(0,0,0)
(0,0,0)
(0,0,0)
(0,0,0)
(0,0,0)
(0,0,0)
(0,0,0)
(0,0,0)
(0,0,0)
(0,0,0)
(0,0,0)
(0,0,0)
(0,0,0)
(0,0,0)
(0,0,0)
(0,0,0)
(0,0,0)
(0,0,0)
(0,0,0)
(0,0,0)
(0,0,0)
(0,0,0)
(0,0,0)
(0,0,0)
(0,0,0)
(0,0,0)
(0,0,0)
(0,0,0)
(0,0,0)
(0,0,0)
(0,0,0)
(0,0,0)
(0,0,0)
(0,0,0)
(0,0,0)
(0,0,0)
(0,0,0)
(0,0,0)
(0,0,0)
(0,0,0)
(0,0,0)
(0,0,0)
(0,0,0)
(0,0,0)
(0,0,0)
(0,0,0)
(0,0,0)
(0,0,0)
(0,0,0)
(0,0,0)
(0,0,0)
(0,0,0)
(0,0,0)
(0,0,0)
(0,0,0)
(0,0,0)
(0,0,0)
(0,0,0)
(0,0,0)
(0,0,0)
(0,0,0)
(0,0,0)
(0,0,0)
(0,0,0)
(0,0,0)
(0,0,0)
(0,0,0)
(0,0,0)
(0,0,0)
(0,0,0)
(0,0,0)
(0,0,0)
(0,0,0)
(0,0,0)
(0,0,0)
(0,0,0)
(0,0,0)
(0,0,0)
(0,0,0)
(0,0,0)
(0,0,0)
(0,0,0)
(0,0,0)
(0,0,0)
(0,0,0)
(0,0,0)
(0,0,0)
(0,0,0)
(0,0,0)
(0,0,0)
(0,0,0)
(0,0,0)
(0,0,0)
(0,0,0)
(0,0,0)
(0,0,0)
(0,0,0)
(0,0,0)
(0,0,0)
(0,0,0)
(0,0,0)
(0,0,0)
(0,0,0)
(0,0,0)
(0,0,0)
(0,0,0)
(0,0,0)
(0,0,0)
(0,0,0)
(0,0,0)
(0,0,0)
(0,0,0)
(0,0,0)
(0,0,0)
(0,0,0)
(0,0,0)
(0,0,0)
(0,0,0)
(0,0,0)
(0,0,0)
(0,0,0)
(0,0,0)
(0,0,0)
(0,0,0)
(0,0,0)
(0,0,0)
(0,0,0)
(0,0,0)
(0,0,0)
(0,0,0)
(0,0,0)
(0,0,0)
(0,0,0)
(0,0,0)
(0,0,0)
(0,0,0)
(0,0,0)
(0,0,0)
(0,0,0)
(0,0,0)
(0,0,0)
(0,0,0)
(0,0,0)
(0,0,0)
(0,0,0)
(0,0,0)
(0,0,0)
(0,0,0)
(0,0,0)
(0,0,0)
(0,0,0)
(0,0,0)
(0,0,0)
(0,0,0)
(0,0,0)
(0,0,0)
(0,0,0)
(0,0,0)
(0,0,0)
(0,0,0)
(0,0,0)
(0,0,0)
(0,0,0)
(0,0,0)
(0,0,0)
(0,0,0)
(0,0,0)
(0,0,0)
(0,0,0)
(0,0,0)
(0,0,0)
(0,0,0)
(0,0,0)
(0,0,0)
(0,0,0)
(0,0,0)
(0,0,0)
(0,0,0)
(0,0,0)
(0,0,0)
(0,0,0)
(0,0,0)
(0,0,0)
(0,0,0)
(0,0,0)
(0,0,0)
(0,0,0)
(0,0,0)
(0,0,0)
(0,0,0)
(0,0,0)
(0,0,0)
(0,0,0)
(0,0,0)
(0,0,0)
(0,0,0)
(0,0,0)
(0,0,0)
(0,0,0)
(0,0,0)
(0,0,0)
(0,0,0)
(0,0,0)
(0,0,0)
(0,0,0)
(0,0,0)
(0,0,0)
(0,0,0)
(0,0,0)
(0,0,0)
(0,0,0)
(0,0,0)
(0,0,0)
(0,0,0)
(0,0,0)
(0,0,0)
(0,0,0)
(0,0,0)
(0,0,0)
(0,0,0)
(0,0,0)
(0,0,0)
(0,0,0)
(0,0,0)
(0,0,0)
(0,0,0)
(0,0,0)
(0,0,0)
(0,0,0)
(0,0,0)
(0,0,0)
(0,0,0)
(0,0,0)
(0,0,0)
(0,0,0)
(0,0,0)
(0,0,0)
(0,0,0)
(0,0,0)
(0,0,0)
(0,0,0)
(0,0,0)
(0,0,0)
(0,0,0)
(0,0,0)
(0,0,0)
(0,0,0)
(0,0,0)
(0,0,0)
(0,0,0)
(0,0,0)
(0,0,0)
(0,0,0)
(0,0,0)
(0,0,0)
(0,0,0)
(0,0,0)
(0,0,0)
(0,0,0)
(0,0,0)
(0,0,0)
(0,0,0)
(0,0,0)
(0,0,0)
(0,0,0)
(0,0,0)
(0,0,0)
(0,0,0)
(0,0,0)
(0,0,0)
(0,0,0)
(0,0,0)
(0,0,0)
(0,0,0)
(0,0,0)
(0,0,0)
(0,0,0)
(0,0,0)
(0,0,0)
(0,0,0)
(0,0,0)
(0,0,0)
(0,0,0)
(0,0,0)
(0,0,0)
(0,0,0)
(0,0,0)
(0,0,0)
(0,0,0)
(0,0,0)
(0,0,0)
(0,0,0)
(0,0,0)
(0,0,0)
(0,0,0)
(0,0,0)
(0,0,0)
(0,0,0)
(0,0,0)
(0,0,0)
(0,0,0)
(0,0,0)
(0,0,0)
(0,0,0)
(0,0,0)
(0,0,0)
(0,0,0)
(0,0,0)
(0,0,0)
(0,0,0)
(0,0,0)
(0,0,0)
(0,0,0)
(0,0,0)
(0,0,0)
(0,0,0)
(0,0,0)
(0,0,0)
(0,0,0)
(0,0,0)
(0,0,0)
(0,0,0)
(0,0,0)
(0,0,0)
(0,0,0)
(0,0,0)
(0,0,0)
(0,0,0)
(0,0,0)
(0,0,0)
(0,0,0)
(0,0,0)
(0,0,0)
(0,0,0)
(0,0,0)
(0,0,0)
(0,0,0)
(0,0,0)
(0,0,0)
(0,0,0)
(0,0,0)
(0,0,0)
(0,0,0)
(0,0,0)
(0,0,0)
(0,0,0)
(0,0,0)
(0,0,0)
(0,0,0)
(0,0,0)
(0,0,0)
(0,0,0)
(0,0,0)
(0,0,0)
(0,0,0)
(0,0,0)
(0,0,0)
(0,0,0)
(0,0,0)
(0,0,0)
(0,0,0)
(0,0,0)
(0,0,0)
(0,0,0)
(0,0,0)
(0,0,0)
(0,0,0)
(0,0,0)
(0,0,0)
(0,0,0)
(0,0,0)
(0,0,0)
(0,0,0)
(0,0,0)
(0,0,0)
(0,0,0)
(0,0,0)
(0,0,0)
(0,0,0)
(0,0,0)
(0,0,0)
(0,0,0)
(0,0,0)
(0,0,0)
(0,0,0)
(0,0,0)
(0,0,0)
(0,0,0)
(0,0,0)
(0,0,0)
(0,0,0)
(0,0,0)
(0,0,0)
(0,0,0)
(0,0,0)
(0,0,0)
(0,0,0)
(0,0,0)
(0,0,0)
(0,0,0)
(0,0,0)
(0,0,0)
(0,0,0)
(0,0,0)
(0,0,0)
(0,0,0)
(0,0,0)
(0,0,0)
(0,0,0)
(0,0,0)
(0,0,0)
(0,0,0)
(0,0,0)
(0,0,0)
(0,0,0)
(0,0,0)
(0,0,0)
(0,0,0)
(0,0,0)
(0,0,0)
(0,0,0)
(0,0,0)
(0,0,0)
(0,0,0)
(0,0,0)
(0,0,0)
(0,0,0)
(0,0,0)
(0,0,0)
(0,0,0)
(0,0,0)
(0,0,0)
(0,0,0)
(5.61537772294291e-13,1.14928175218378e-11,-1.09107100079805e-11)
(9.63730824102032e-13,2.25998001735021e-11,-9.8088639175294e-12)
(1.56872438901046e-12,3.76533712321994e-11,-8.50797874160953e-12)
(2.29153770912259e-12,6.12132340572034e-11,-7.45872647964081e-12)
(1.87882271912005e-12,9.86487108966258e-11,-5.77073863451628e-12)
(1.66507613517003e-12,1.57224092065827e-10,-4.05499626613132e-12)
(2.45814864221754e-12,2.52130034375189e-10,-2.58779429925068e-12)
(3.52732568673905e-12,4.10768955182796e-10,-1.65617301155017e-12)
(4.05413873340915e-12,6.73688781864792e-10,-1.42307671635489e-12)
(4.2356695899888e-12,1.0407041207648e-09,-1.12456240140814e-12)
(0,0,0)
(0,0,0)
(0,0,0)
(0,0,0)
(0,0,0)
(0,0,0)
(2.92104524953279e-13,1.03647470955684e-11,-2.33663097444426e-11)
(1.64821732393799e-12,2.14005782541368e-11,-2.21541487630888e-11)
(3.25836013196809e-12,3.64425818886977e-11,-1.99918698840161e-11)
(4.83636478754879e-12,5.95022905766985e-11,-1.75532378197898e-11)
(4.87223430992138e-12,9.65014834410567e-11,-1.40914647341545e-11)
(5.07294616302155e-12,1.55144394478507e-10,-9.96298807493122e-12)
(6.04303282148345e-12,2.51056976843231e-10,-6.3911863630648e-12)
(7.10978651702874e-12,4.10720920175724e-10,-4.33401373097879e-12)
(8.18549759807226e-12,6.740543473601e-10,-3.45736308464724e-12)
(8.836238445283e-12,1.04072687907362e-09,-2.05921280102807e-12)
(0,0,0)
(0,0,0)
(0,0,0)
(0,0,0)
(0,0,0)
(0,0,0)
(5.37501648516076e-13,9.24674176227264e-12,-3.96864379479364e-11)
(2.49537021137083e-12,1.92117347508927e-11,-3.82231403500328e-11)
(4.99451015259945e-12,3.36531360602325e-11,-3.57918842977928e-11)
(7.56278827431514e-12,5.57362156608148e-11,-3.24885450642581e-11)
(8.75563994805987e-12,9.18224443588459e-11,-2.80324873324979e-11)
(9.28043795686159e-12,1.50925940634828e-10,-2.19500965590089e-11)
(9.59794919974056e-12,2.4866944302598e-10,-1.59651819250962e-11)
(9.96080960545449e-12,4.10087601517263e-10,-1.19076533290438e-11)
(1.09155664020217e-11,6.73978103024313e-10,-8.69373000125905e-12)
(1.16495760033451e-11,1.04060596231305e-09,-4.57536026519075e-12)
(0,0,0)
(0,0,0)
(0,0,0)
(0,0,0)
(0,0,0)
(0,0,0)
(7.40064078175374e-13,7.5841648217412e-12,-6.36911763344098e-11)
(2.8842652723822e-12,1.61706398541982e-11,-6.25592371551254e-11)
(5.7666407490525e-12,2.96608408242066e-11,-6.05392051368733e-11)
(8.96733031251441e-12,5.06306792154081e-11,-5.71104688038903e-11)
(1.16442635805988e-11,8.49799926152626e-11,-5.19339863317424e-11)
(1.31357004814264e-11,1.43644083396643e-10,-4.47286188287719e-11)
(1.28451622334328e-11,2.43232543412213e-10,-3.64653600863644e-11)
(1.28081065426421e-11,4.06868122215218e-10,-2.89013794331016e-11)
(1.34709200110761e-11,6.7114995492146e-10,-2.08744358989383e-11)
(1.43112810240351e-11,1.03779253769823e-09,-1.10635724636196e-11)
(0,0,0)
(0,0,0)
(0,0,0)
(0,0,0)
(0,0,0)
(0,0,0)
(7.07887186109033e-13,6.03269980572125e-12,-9.9931711610286e-11)
(2.87128122638255e-12,1.32700937685797e-11,-9.91620962203814e-11)
(5.92902430046304e-12,2.49179557465991e-11,-9.74566741228402e-11)
(9.87911798332114e-12,4.38353326632969e-11,-9.42940655000034e-11)
(1.30532723754038e-11,7.57124827112244e-11,-8.94366083483225e-11)
(1.48387767499154e-11,1.3250446644964e-10,-8.27343298901883e-11)
(1.40727104662268e-11,2.33235134448114e-10,-7.37959524195662e-11)
(1.39471286248068e-11,3.99611700195481e-10,-5.99089714895599e-11)
(1.41986731855445e-11,6.63599132218934e-10,-4.30036595392903e-11)
(1.55321733351611e-11,1.02914085469292e-09,-2.2816509378063e-11)
(0,0,0)
(0,0,0)
(0,0,0)
(0,0,0)
(0,0,0)
(0,0,0)
(9.03725259339413e-13,4.57190605015628e-12,-1.56210251530738e-10)
(2.74012304261506e-12,1.02490684280794e-11,-1.55702916352322e-10)
(6.18838818838962e-12,1.96915117525471e-11,-1.54679921485794e-10)
(1.03661995454402e-11,3.62091268111336e-11,-1.52271569570521e-10)
(1.32437465049104e-11,6.547561172829e-11,-1.48131145463434e-10)
(1.40104871869474e-11,1.20156622159828e-10,-1.4143541589769e-10)
(1.39989613820498e-11,2.20929620522084e-10,-1.29915033715803e-10)
(1.38766207044783e-11,3.85794120412741e-10,-1.08920221496388e-10)
(1.43189416170702e-11,6.4660308711332e-10,-7.96253122482469e-11)
(1.57944507705553e-11,1.00946542451813e-09,-4.26745822394139e-11)
(0,0,0)
(0,0,0)
(0,0,0)
(0,0,0)
(0,0,0)
(0,0,0)
(1.83808522479454e-12,3.18047471385007e-12,-2.48629263460395e-10)
(4.03913932963516e-12,7.55502776734292e-12,-2.48609393204322e-10)
(7.73316112092192e-12,1.5113014564292e-11,-2.48049416880663e-10)
(1.0945574412278e-11,2.92909411384641e-11,-2.45735393981868e-10)
(1.18346372535808e-11,5.55109314720083e-11,-2.41498022641741e-10)
(1.11425342254372e-11,1.06098490756387e-10,-2.33491952579205e-10)
(1.20802412098144e-11,2.02360330962045e-10,-2.1663428353819e-10)
(1.21588449345809e-11,3.59805545868153e-10,-1.87132018666879e-10)
(1.23710663719445e-11,6.12645302589005e-10,-1.39995727868566e-10)
(1.37808115673663e-11,9.69751082205096e-10,-7.63694685761184e-11)
(0,0,0)
(0,0,0)
(0,0,0)
(0,0,0)
(0,0,0)
(0,0,0)
(3.17429568860754e-12,2.38514069823821e-12,-4.04961517070498e-10)
(6.36745168564858e-12,5.62677254834451e-12,-4.0483923536123e-10)
(9.42109090756297e-12,1.14267617552261e-11,-4.04044074466645e-10)
(1.14637583960327e-11,2.36296833242764e-11,-4.01608173277347e-10)
(1.10589699960929e-11,4.66835386204329e-11,-3.96437856173738e-10)
(1.03454056112908e-11,9.12817087108814e-11,-3.85909308631319e-10)
(9.65268578456857e-12,1.74616559752729e-10,-3.63195838248303e-10)
(9.15026479518842e-12,3.1449902491021e-10,-3.19665444042205e-10)
(1.01765152001745e-11,5.50809605972302e-10,-2.47350581617993e-10)
(1.20445331802284e-11,8.95469802362798e-10,-1.40294878085623e-10)
(0,0,0)
(0,0,0)
(0,0,0)
(0,0,0)
(0,0,0)
(0,0,0)
(3.71917244790756e-12,1.79307965207232e-12,-6.66365067357426e-10)
(7.82161035360777e-12,4.09937862612901e-12,-6.66204915852936e-10)
(9.89475608524697e-12,8.07623486355241e-12,-6.65022091404654e-10)
(1.12761657644678e-11,1.73005887832263e-11,-6.62275446615436e-10)
(1.09512334163442e-11,3.50358392276448e-11,-6.55417866267195e-10)
(1.01410229306601e-11,6.90327434481325e-11,-6.40682928309576e-10)
(7.51390702323688e-12,1.31704944220762e-10,-6.10045522053317e-10)
(6.85791864281551e-12,2.42672389529276e-10,-5.5113856000143e-10)
(8.12882886205531e-12,4.44854523936364e-10,-4.46156671087958e-10)
(8.45454155721411e-12,7.57054842848217e-10,-2.68237437097306e-10)
(0,0,0)
(0,0,0)
(0,0,0)
(0,0,0)
(0,0,0)
(0,0,0)
(3.6481025408202e-12,8.77382103331147e-13,-1.0322832596236e-09)
(8.5868197727011e-12,2.26924825754964e-12,-1.03220414405091e-09)
(1.08301736260284e-11,4.33329366979794e-12,-1.03025277984325e-09)
(1.16265511257624e-11,9.0462541240197e-12,-1.02656569947984e-09)
(1.11998362224041e-11,1.8700603298446e-11,-1.01854531606687e-09)
(1.07893871501957e-11,3.73426400128681e-11,-1.0009192088251e-09)
(7.70703129016771e-12,7.203059683767e-11,-9.64767545999269e-10)
(6.5798077383788e-12,1.37269441665679e-10,-8.94002039805117e-10)
(7.30207839045296e-12,2.67383522541097e-10,-7.57374559387954e-10)
(6.34587590913613e-12,4.89620875366442e-10,-4.89844960545471e-10)
(0,0,0)
(0,0,0)
(0,0,0)
(0,0,0)
(0,0,0)
(0,0,0)
(0,0,0)
(0,0,0)
(0,0,0)
(0,0,0)
(0,0,0)
(0,0,0)
(0,0,0)
(0,0,0)
(0,0,0)
(0,0,0)
(0,0,0)
(0,0,0)
(0,0,0)
(0,0,0)
(0,0,0)
(0,0,0)
(0,0,0)
(0,0,0)
(0,0,0)
(0,0,0)
(0,0,0)
(0,0,0)
(0,0,0)
(0,0,0)
(0,0,0)
(0,0,0)
(0,0,0)
(0,0,0)
(0,0,0)
(0,0,0)
(0,0,0)
(0,0,0)
(0,0,0)
(0,0,0)
(0,0,0)
(0,0,0)
(0,0,0)
(0,0,0)
(0,0,0)
(0,0,0)
(0,0,0)
(0,0,0)
(0,0,0)
(0,0,0)
(0,0,0)
(0,0,0)
(0,0,0)
(0,0,0)
(0,0,0)
(0,0,0)
(0,0,0)
(0,0,0)
(0,0,0)
(0,0,0)
(0,0,0)
(0,0,0)
(0,0,0)
(0,0,0)
(0,0,0)
(0,0,0)
(0,0,0)
(0,0,0)
(0,0,0)
(0,0,0)
(0,0,0)
(0,0,0)
(0,0,0)
(0,0,0)
(0,0,0)
(0,0,0)
(0,0,0)
(0,0,0)
(0,0,0)
(0,0,0)
(0,0,0)
(0,0,0)
(0,0,0)
(0,0,0)
(0,0,0)
(0,0,0)
(0,0,0)
(0,0,0)
(0,0,0)
(0,0,0)
(0,0,0)
(0,0,0)
(0,0,0)
(0,0,0)
(0,0,0)
(0,0,0)
(0,0,0)
(0,0,0)
(0,0,0)
(0,0,0)
(0,0,0)
(0,0,0)
(5.87762108111043e-13,2.04654646053932e-11,-2.05435267604378e-11)
(8.62067567543784e-13,4.17821907634713e-11,-1.92284386845789e-11)
(1.73026147054385e-12,7.07942987991091e-11,-1.72662231845045e-11)
(2.31449334448909e-12,1.13346230560918e-10,-1.49771302553047e-11)
(2.31030780626184e-12,1.78985351993224e-10,-1.16929349513979e-11)
(2.27757175566192e-12,2.80269466500806e-10,-7.50655025680007e-12)
(2.59958488657929e-12,4.42403823804602e-10,-3.4885627536145e-12)
(3.3422643984096e-12,7.18052387379203e-10,-1.27324383637954e-12)
(3.39005892273483e-12,1.24414180124343e-09,-8.21735483876492e-13)
(3.08834887929114e-12,2.44739301524593e-09,-8.73501525308238e-13)
(0,0,0)
(0,0,0)
(0,0,0)
(0,0,0)
(0,0,0)
(0,0,0)
(1.97948876894573e-13,1.8995822441652e-11,-4.41675802955952e-11)
(1.67478194812296e-12,3.98525917897075e-11,-4.26499248184276e-11)
(3.60917389618765e-12,6.82807081063984e-11,-3.92658159051873e-11)
(5.14066661779319e-12,1.10044844190218e-10,-3.41642828173268e-11)
(5.42279673291708e-12,1.74847169592181e-10,-2.68018067623507e-11)
(5.71959829481266e-12,2.76278889791867e-10,-1.71171727058928e-11)
(6.37339400650445e-12,4.40530209155547e-10,-8.20804829167359e-12)
(6.86645452954324e-12,7.1836185164012e-10,-4.02726239295651e-12)
(6.86359165071613e-12,1.24545549167971e-09,-3.20446134608883e-12)
(6.89794240490838e-12,2.44844647107887e-09,-2.24813626857891e-12)
(0,0,0)
(0,0,0)
(0,0,0)
(0,0,0)
(0,0,0)
(0,0,0)
(7.36780991144776e-13,1.67877182541938e-11,-7.55736276869876e-11)
(3.10520905582896e-12,3.57855865281881e-11,-7.33271530214018e-11)
(5.6834661551145e-12,6.22721369098961e-11,-6.90751998444794e-11)
(8.21226698795563e-12,1.02026564137572e-10,-6.18661977773793e-11)
(9.51570091809885e-12,1.64950482151542e-10,-5.09765993636425e-11)
(1.05773805611385e-11,2.6741272774603e-10,-3.59737906242949e-11)
(1.09773202174676e-11,4.36681576845326e-10,-2.10408575595193e-11)
(9.96636557952475e-12,7.18931328810177e-10,-1.42817452437585e-11)
(9.62534476869238e-12,1.24696542448356e-09,-1.10937765872292e-11)
(9.88764035289718e-12,2.44931124950175e-09,-6.37272135971798e-12)
(0,0,0)
(0,0,0)
(0,0,0)
(0,0,0)
(0,0,0)
(0,0,0)
(1.15958991491089e-12,1.36216399894994e-11,-1.19814129722405e-10)
(3.76477933974682e-12,3.01511602262798e-11,-1.17564237443823e-10)
(7.08078949366933e-12,5.35796564669751e-11,-1.13343566646717e-10)
(1.05861943924825e-11,8.97481383248641e-11,-1.05457760073992e-10)
(1.37064059816598e-11,1.48671619545538e-10,-9.2780870256209e-11)
(1.6012058686047e-11,2.50591901597556e-10,-7.48422993100212e-11)
(1.52785905442664e-11,4.27356696621916e-10,-5.46838088693814e-11)
(1.20375850282448e-11,7.17327287561301e-10,-4.25261537015599e-11)
(1.12108792788676e-11,1.24578212343645e-09,-3.18226161092267e-11)
(1.18993915665373e-11,2.44681371758639e-09,-1.73505977379339e-11)
(0,0,0)
(0,0,0)
(0,0,0)
(0,0,0)
(0,0,0)
(0,0,0)
(1.39906555176913e-12,1.0653336740993e-11,-1.84838084398987e-10)
(4.1868844693408e-12,2.43244465315356e-11,-1.82990916109277e-10)
(7.99285967167584e-12,4.34561404246953e-11,-1.7904949676205e-10)
(1.26478666837929e-11,7.41235225135185e-11,-1.71936357081242e-10)
(1.65878649002261e-11,1.2648543185918e-10,-1.60902791110399e-10)
(1.82482435690473e-11,2.22914338448207e-10,-1.46794394935882e-10)
(1.24912434623018e-11,4.0451580801544e-10,-1.33259398176245e-10)
(1.08593964574308e-11,7.08942254334395e-10,-1.04403550358381e-10)
(1.10075681296726e-11,1.23659805012739e-09,-7.41554357929567e-11)
(1.2391094131438e-11,2.43452323089035e-09,-3.90476819920797e-11)
(0,0,0)
(0,0,0)
(0,0,0)
(0,0,0)
(0,0,0)
(0,0,0)
(1.78782141723004e-12,7.68663076320279e-12,-2.82897925943009e-10)
(4.41116883681899e-12,1.80252456037841e-11,-2.81508184400933e-10)
(8.35853346136726e-12,3.29141142961532e-11,-2.78663100207259e-10)
(1.31439611110337e-11,5.80363504270774e-11,-2.73289167437725e-10)
(1.65126971954613e-11,1.03766079652241e-10,-2.64917160772688e-10)
(1.6548236408458e-11,1.96132155000028e-10,-2.53094592502443e-10)
(1.15734387227097e-11,3.85442280340157e-10,-2.36034630460059e-10)
(1.05702860008454e-11,6.88015391931348e-10,-1.9602805189421e-10)
(1.13259961324905e-11,1.20872765359924e-09,-1.41473730318538e-10)
(1.28342108448257e-11,2.40137733854578e-09,-7.48742314281687e-11)
(0,0,0)
(0,0,0)
(0,0,0)
(0,0,0)
(0,0,0)
(0,0,0)
(2.61354898433202e-12,4.98556813806185e-12,-4.38903988000331e-10)
(5.40741822497699e-12,1.23738442291441e-11,-4.38174116825724e-10)
(9.10539103119649e-12,2.36311710565852e-11,-4.36321097321066e-10)
(1.23694608863322e-11,4.39927674005574e-11,-4.32553609069484e-10)
(1.26559600426494e-11,8.28901298822444e-11,-4.27172147813428e-10)
(9.10164722994891e-12,1.66280225017277e-10,-4.16740478876324e-10)
(1.03217475478081e-11,3.5352177643879e-10,-3.85366380018202e-10)
(1.03290750940806e-11,6.42381339847063e-10,-3.3715495955237e-10)
(1.05805036961766e-11,1.14863870260544e-09,-2.4896718492788e-10)
(1.16926228338866e-11,2.33171068273833e-09,-1.34204604359669e-10)
(0,0,0)
(0,0,0)
(0,0,0)
(0,0,0)
(0,0,0)
(0,0,0)
(3.64407502550638e-12,3.38474665056945e-12,-7.08405429567251e-10)
(7.09968471328016e-12,8.47358330250893e-12,-7.07937908683625e-10)
(1.03357166099413e-11,1.71573682265943e-11,-7.06383374759333e-10)
(1.26225358334685e-11,3.54090548538776e-11,-7.02873415567365e-10)
(1.21781218464383e-11,7.16838557290063e-11,-6.9633126890168e-10)
(9.88090049105162e-12,1.49536062023209e-10,-6.82676615498067e-10)
(9.03390711048029e-12,3.0822839432882e-10,-6.47255519446306e-10)
(8.66203775177272e-12,5.58446928472447e-10,-5.69082949779709e-10)
(9.07589370390252e-12,1.03764200030244e-09,-4.382705917427e-10)
(1.0164614608813e-11,2.20088892451291e-09,-2.49186358124076e-10)
(0,0,0)
(0,0,0)
(0,0,0)
(0,0,0)
(0,0,0)
(0,0,0)
(4.47471849215934e-12,2.17320396527938e-12,-1.22923733929429e-09)
(8.46891627390543e-12,5.54804503027945e-12,-1.22892203042994e-09)
(1.08910524897868e-11,1.18196923778038e-11,-1.2273392384265e-09)
(1.26729200754416e-11,2.65735993175597e-11,-1.22329615887531e-09)
(1.25515313879334e-11,5.60211290537821e-11,-1.21312244474471e-09)
(1.1193720109651e-11,1.16266025228486e-10,-1.1908803279584e-09)
(8.281292354457e-12,2.30713258417218e-10,-1.14048540387139e-09)
(7.27897759292911e-12,4.29088602439068e-10,-1.03725863211632e-09)
(7.68059626666677e-12,8.50550613720935e-10,-8.52654830424285e-10)
(7.65107194143105e-12,1.95365729594425e-09,-5.32876267036529e-10)
(0,0,0)
(0,0,0)
(0,0,0)
(0,0,0)
(0,0,0)
(0,0,0)
(4.44636907146332e-12,8.2753220143839e-13,-2.42839281302971e-09)
(8.90470382258871e-12,2.70055393597186e-12,-2.42851221741163e-09)
(1.14763869324209e-11,6.18188344698937e-12,-2.42629962217063e-09)
(1.26524218368134e-11,1.43013747149349e-11,-2.42089524329858e-09)
(1.22743322790708e-11,3.1008948720489e-11,-2.4083766591697e-09)
(1.1980364337216e-11,6.39775777162564e-11,-2.38013877290996e-09)
(8.97212193365698e-12,1.25728321802214e-10,-2.31884327560442e-09)
(7.22176898693332e-12,2.43946352311477e-10,-2.19570868898005e-09)
(7.15600208906209e-12,5.31407648139874e-10,-1.95278992171829e-09)
(6.121790730213e-12,1.42131774884054e-09,-1.42117202756534e-09)
(0,0,0)
(0,0,0)
(0,0,0)
(0,0,0)
(0,0,0)
(0,0,0)
(0,0,0)
(0,0,0)
(0,0,0)
(0,0,0)
(0,0,0)
(0,0,0)
(0,0,0)
(0,0,0)
(0,0,0)
(0,0,0)
(0,0,0)
(0,0,0)
(0,0,0)
(0,0,0)
(0,0,0)
(0,0,0)
(0,0,0)
(0,0,0)
(0,0,0)
(0,0,0)
(0,0,0)
(0,0,0)
(0,0,0)
(0,0,0)
(0,0,0)
(0,0,0)
(0,0,0)
(0,0,0)
(0,0,0)
(0,0,0)
(0,0,0)
(0,0,0)
(0,0,0)
(0,0,0)
(0,0,0)
(0,0,0)
(0,0,0)
(0,0,0)
(0,0,0)
(0,0,0)
(0,0,0)
(0,0,0)
(0,0,0)
(0,0,0)
(0,0,0)
(0,0,0)
(0,0,0)
(0,0,0)
(0,0,0)
(0,0,0)
(0,0,0)
(0,0,0)
(0,0,0)
(0,0,0)
(0,0,0)
(0,0,0)
(0,0,0)
(0,0,0)
(0,0,0)
(0,0,0)
(0,0,0)
(0,0,0)
(0,0,0)
(0,0,0)
(0,0,0)
(0,0,0)
(0,0,0)
(0,0,0)
(0,0,0)
(0,0,0)
(0,0,0)
(0,0,0)
(0,0,0)
(0,0,0)
(0,0,0)
(0,0,0)
(0,0,0)
(0,0,0)
(0,0,0)
(0,0,0)
(0,0,0)
(0,0,0)
(0,0,0)
(0,0,0)
(0,0,0)
(0,0,0)
(0,0,0)
(0,0,0)
(0,0,0)
(0,0,0)
(0,0,0)
(0,0,0)
(0,0,0)
(0,0,0)
(0,0,0)
(0,0,0)
(7.42316195646638e-13,2.7459738974211e-11,-2.92354269987024e-11)
(8.29451040979615e-13,5.69135589104968e-11,-2.80019719012929e-11)
(1.95475923496253e-12,9.5534268648739e-11,-2.55753984953407e-11)
(2.33168441085191e-12,1.49904391711793e-10,-2.11741076844335e-11)
(2.26210551289509e-12,2.30144404497407e-10,-1.50385032781298e-11)
(2.25016096162112e-12,3.48065548733107e-10,-7.37328295745905e-12)
(2.25788061774041e-12,5.21684211868445e-10,-2.20206097393871e-13)
(2.58129178475299e-12,7.73641767614156e-10,2.43559462214359e-12)
(2.12813452843499e-12,1.13423785900718e-09,1.79099606856755e-12)
(1.16139152013269e-12,1.5725921998097e-09,5.80352122021168e-13)
(0,0,0)
(0,0,0)
(0,0,0)
(0,0,0)
(0,0,0)
(0,0,0)
(8.88397587118352e-13,2.59562607201649e-11,-6.20332122721865e-11)
(2.35767829608529e-12,5.41433575664786e-11,-6.01794414555755e-11)
(4.51621200320679e-12,9.11721708013319e-11,-5.54431204056383e-11)
(5.79647061602631e-12,1.43964818919318e-10,-4.65244441667427e-11)
(5.63485011762882e-12,2.22913115690458e-10,-3.33223079219176e-11)
(5.67663592604704e-12,3.41776341547441e-10,-1.56843693543395e-11)
(6.04124041772589e-12,5.20449874931508e-10,1.27746371619634e-12)
(5.47417631321893e-12,7.7632003673718e-10,5.54906004944517e-12)
(4.39733376978875e-12,1.13740346949642e-09,2.81632435823976e-12)
(3.78502771368335e-12,1.57500695094041e-09,4.25165274365599e-13)
(0,0,0)
(0,0,0)
(0,0,0)
(0,0,0)
(0,0,0)
(0,0,0)
(1.65638458858157e-12,2.31888904364403e-11,-1.04030502740101e-10)
(4.48768218174466e-12,4.84707657865596e-11,-1.01134666528684e-10)
(7.1669445313292e-12,8.17186450667676e-11,-9.45339545651565e-11)
(9.60109438649763e-12,1.30468238020616e-10,-8.20493918871008e-11)
(1.07917547844292e-11,2.05918965256482e-10,-6.21163791216609e-11)
(1.24652736450243e-11,3.26688565479718e-10,-3.2187887050536e-11)
(1.35430881250135e-11,5.18856720381942e-10,1.78703144904347e-12)
(8.38243817179989e-12,7.83472421369068e-10,5.19159204544755e-12)
(6.08759058926935e-12,1.14431204510431e-09,-4.70127635986587e-13)
(6.01245090789047e-12,1.57940497559603e-09,-2.10531965279999e-12)
(0,0,0)
(0,0,0)
(0,0,0)
(0,0,0)
(0,0,0)
(0,0,0)
(1.87800088439418e-12,1.91026632325094e-11,-1.61937518564107e-10)
(5.3708222382133e-12,4.04983710444083e-11,-1.58678833630046e-10)
(9.31849896245244e-12,6.80743888470766e-11,-1.51008250293752e-10)
(1.35339203849709e-11,1.09659903437037e-10,-1.36524407952137e-10)
(1.79540227220947e-11,1.76294777940667e-10,-1.12481001558355e-10)
(2.35311313956896e-11,2.93714342970327e-10,-7.30250169772038e-11)
(2.59618239831278e-11,5.12674432700484e-10,-1.79274695821506e-11)
(9.71908066250005e-12,7.96603803855665e-10,-1.84922978707889e-11)
(5.92293421754557e-12,1.15390345102204e-09,-2.21443795930647e-11)
(6.83928052328813e-12,1.58401547335004e-09,-1.47354168481481e-11)
(0,0,0)
(0,0,0)
(0,0,0)
(0,0,0)
(0,0,0)
(0,0,0)
(2.51860323914726e-12,1.44539865149849e-11,-2.42577036359348e-10)
(6.54466605074934e-12,3.10747187241948e-11,-2.39545393259198e-10)
(1.14217461180319e-11,5.19548727648158e-11,-2.32275783972436e-10)
(1.7701472799456e-11,8.34391413680532e-11,-2.1914508829343e-10)
(2.51988209342434e-11,1.33655077654925e-10,-1.99114557972678e-10)
(3.14954302565221e-11,2.2745462009784e-10,-1.7382857954546e-10)
(2.70892331864874e-12,4.50938502142737e-10,-1.80825663547457e-10)
(1.5381442947822e-12,8.09318284166664e-10,-1.18557105045089e-10)
(3.77021085873268e-12,1.1570092310388e-09,-8.27800866621693e-11)
(6.48930448352326e-12,1.57740541437725e-09,-4.42318229076105e-11)
(0,0,0)
(0,0,0)
(0,0,0)
(0,0,0)
(0,0,0)
(0,0,0)
(3.09914250056727e-12,1.01928282370566e-11,-3.56198247652895e-10)
(7.21748601747545e-12,2.18116540278762e-11,-3.53758963262986e-10)
(1.22675439316205e-11,3.61909907784564e-11,-3.48526390882958e-10)
(1.88155374736571e-11,5.77855096399706e-11,-3.3938577411992e-10)
(2.5566078694519e-11,9.32323336828013e-11,-3.26433352359895e-10)
(2.93402043484381e-11,1.77533825442365e-10,-3.10086953338898e-10)
(3.48736405924686e-12,4.50395650550086e-10,-3.13000588536979e-10)
(1.65001650858341e-12,7.97508730081189e-10,-2.45621512458046e-10)
(4.81544823655345e-12,1.13054688398691e-09,-1.72328774663576e-10)
(7.6266352235739e-12,1.54150828621463e-09,-8.9718311714509e-11)
(0,0,0)
(0,0,0)
(0,0,0)
(0,0,0)
(0,0,0)
(0,0,0)
(3.48449929891195e-12,6.61184771424136e-12,-5.20598812509754e-10)
(7.45465964501477e-12,1.41997921795262e-11,-5.18707074373402e-10)
(1.18117056097501e-11,2.32132353959385e-11,-5.15405151063588e-10)
(1.55717121771124e-11,3.64444365022154e-11,-5.1214430742311e-10)
(1.34305652588658e-11,5.56205516463785e-11,-5.12766683314808e-10)
(-5.52828863359344e-12,1.0791129907024e-10,-5.19451237706427e-10)
(7.40370919164273e-12,4.17709828991226e-10,-4.55770603739351e-10)
(6.07571184321038e-12,7.45631825603688e-10,-4.34474356063312e-10)
(6.81462543164225e-12,1.05846183736319e-09,-3.02428970274364e-10)
(8.30977669947769e-12,1.4588372977914e-09,-1.55947693524275e-10)
(0,0,0)
(0,0,0)
(0,0,0)
(0,0,0)
(0,0,0)
(0,0,0)
(4.38809682806953e-12,3.6969404449656e-12,-7.63542487820475e-10)
(8.47068906142033e-12,8.72000090881234e-12,-7.62215537680063e-10)
(1.21634332659357e-11,1.58551100473127e-11,-7.59829660725997e-10)
(1.4915844704983e-11,2.94402734534614e-11,-7.57950594122993e-10)
(1.41861951173738e-11,5.7855919369907e-11,-7.58676767308998e-10)
(7.72984123425729e-12,1.404045776319e-10,-7.62419153174975e-10)
(8.37647335503235e-12,3.82584051819554e-10,-7.44527234001215e-10)
(7.20800574765655e-12,6.18741340563292e-10,-6.3436950972895e-10)
(7.0830466665716e-12,9.16722013136641e-10,-4.62804778752927e-10)
(8.20988505419052e-12,1.30675363995945e-09,-2.49803605776549e-10)
(0,0,0)
(0,0,0)
(0,0,0)
(0,0,0)
(0,0,0)
(0,0,0)
(5.50508139101989e-12,1.44514570475868e-12,-1.11489588725735e-09)
(9.73361536439132e-12,4.73810801628993e-12,-1.11392779433182e-09)
(1.24857818706475e-11,1.08279224439387e-11,-1.11191214963197e-09)
(1.47714305469611e-11,2.4122146210905e-11,-1.10885396493423e-09)
(1.5321594935422e-11,5.32191130100468e-11,-1.10241128706978e-09)
(1.30872435348306e-11,1.23532082928791e-10,-1.08695400767622e-09)
(1.00394572147886e-11,2.70171947174726e-10,-1.03932437500345e-09)
(7.81742602685241e-12,4.48363613976154e-10,-9.13780624098481e-10)
(7.04499846129998e-12,7.05365080339507e-10,-7.0799761912681e-10)
(7.11435200820491e-12,1.05855997303956e-09,-4.06922805818253e-10)
(0,0,0)
(0,0,0)
(0,0,0)
(0,0,0)
(0,0,0)
(0,0,0)
(5.3933056536158e-12,2.76040044175298e-13,-1.54709493783428e-09)
(9.39266251769623e-12,2.14918111093378e-12,-1.54681272386355e-09)
(1.2253891507443e-11,5.949979879673e-12,-1.54483374215744e-09)
(1.4435212423155e-11,1.3984891768616e-11,-1.53998521913362e-09)
(1.50453947399515e-11,3.19575425957863e-11,-1.52848173025663e-09)
(1.4662444747005e-11,7.06990582228255e-11,-1.50076429127491e-09)
(1.15658571121905e-11,1.41656468651695e-10,-1.43437632035082e-09)
(8.24935403523497e-12,2.41752904119659e-10,-1.29611184465695e-09)
(6.94575607625349e-12,4.04322751302037e-10,-1.05595591979586e-09)