/*--------------------------------*- C++ -*----------------------------------*\
| =========                 |                                                 |
| \\      /  F ield         | foam-extend: Open Source CFD                    |
|  \\    /   O peration     | Version:     4.0                                |
|   \\  /    A nd           | Web:         http://www.foam-extend.org         |
|    \\/     M anipulation  |                                                 |
\*---------------------------------------------------------------------------*/
FoamFile
{
    version 2.0;
    format ascii;
    class volVectorField;
    location "2460";
    object      E;
}
// * * * * * * * * * * * * * * * * * * * * * * * * * * * * * * * * * * * * * //

dimensions      [0 1 -1 0 0 0 0];

internalField   nonuniform List<vector>
4096
(
(0,0,0)
(0,0,0)
(0,0,0)
(0,0,0)
(0,0,0)
(0,0,0)
(0,0,0)
(0,0,0)
(0,0,0)
(0,0,0)
(0,0,0)
(0,0,0)
(0,0,0)
(0,0,0)
(0,0,0)
(0,0,0)
(0,0,0)
(0,0,0)
(0,0,0)
(0,0,0)
(0,0,0)
(0,0,0)
(0,0,0)
(0,0,0)
(0,0,0)
(0,0,0)
(0,0,0)
(0,0,0)
(0,0,0)
(0,0,0)
(0,0,0)
(0,0,0)
(0,0,0)
(0,0,0)
(0,0,0)
(0,0,0)
(0,0,0)
(0,0,0)
(0,0,0)
(0,0,0)
(0,0,0)
(0,0,0)
(0,0,0)
(0,0,0)
(0,0,0)
(0,0,0)
(0,0,0)
(0,0,0)
(0,0,0)
(0,0,0)
(0,0,0)
(0,0,0)
(0,0,0)
(0,0,0)
(0,0,0)
(0,0,0)
(0,0,0)
(0,0,0)
(0,0,0)
(0,0,0)
(0,0,0)
(0,0,0)
(0,0,0)
(0,0,0)
(0,0,0)
(0,0,0)
(0,0,0)
(0,0,0)
(0,0,0)
(0,0,0)
(0,0,0)
(0,0,0)
(0,0,0)
(0,0,0)
(0,0,0)
(0,0,0)
(0,0,0)
(0,0,0)
(0,0,0)
(0,0,0)
(0,0,0)
(0,0,0)
(0,0,0)
(0,0,0)
(0,0,0)
(0,0,0)
(0,0,0)
(0,0,0)
(0,0,0)
(0,0,0)
(0,0,0)
(0,0,0)
(0,0,0)
(0,0,0)
(0,0,0)
(0,0,0)
(0,0,0)
(0,0,0)
(0,0,0)
(0,0,0)
(0,0,0)
(0,0,0)
(0,0,0)
(0,0,0)
(0,0,0)
(0,0,0)
(0,0,0)
(0,0,0)
(0,0,0)
(0,0,0)
(0,0,0)
(0,0,0)
(0,0,0)
(0,0,0)
(0,0,0)
(0,0,0)
(0,0,0)
(0,0,0)
(0,0,0)
(0,0,0)
(0,0,0)
(0,0,0)
(0,0,0)
(0,0,0)
(0,0,0)
(0,0,0)
(0,0,0)
(0,0,0)
(0,0,0)
(0,0,0)
(0,0,0)
(0,0,0)
(0,0,0)
(0,0,0)
(0,0,0)
(0,0,0)
(0,0,0)
(0,0,0)
(0,0,0)
(0,0,0)
(0,0,0)
(0,0,0)
(0,0,0)
(0,0,0)
(0,0,0)
(0,0,0)
(0,0,0)
(0,0,0)
(0,0,0)
(0,0,0)
(0,0,0)
(0,0,0)
(0,0,0)
(0,0,0)
(0,0,0)
(0,0,0)
(0,0,0)
(0,0,0)
(0,0,0)
(0,0,0)
(0,0,0)
(0,0,0)
(0,0,0)
(0,0,0)
(0,0,0)
(0,0,0)
(0,0,0)
(0,0,0)
(0,0,0)
(0,0,0)
(0,0,0)
(0,0,0)
(0,0,0)
(0,0,0)
(0,0,0)
(0,0,0)
(0,0,0)
(0,0,0)
(0,0,0)
(0,0,0)
(0,0,0)
(0,0,0)
(0,0,0)
(0,0,0)
(0,0,0)
(0,0,0)
(0,0,0)
(0,0,0)
(0,0,0)
(0,0,0)
(0,0,0)
(0,0,0)
(0,0,0)
(0,0,0)
(0,0,0)
(0,0,0)
(0,0,0)
(0,0,0)
(0,0,0)
(0,0,0)
(0,0,0)
(0,0,0)
(0,0,0)
(0,0,0)
(0,0,0)
(0,0,0)
(0,0,0)
(0,0,0)
(0,0,0)
(0,0,0)
(0,0,0)
(0,0,0)
(0,0,0)
(0,0,0)
(0,0,0)
(0,0,0)
(0,0,0)
(0,0,0)
(0,0,0)
(0,0,0)
(0,0,0)
(0,0,0)
(0,0,0)
(0,0,0)
(0,0,0)
(0,0,0)
(0,0,0)
(0,0,0)
(0,0,0)
(0,0,0)
(0,0,0)
(0,0,0)
(0,0,0)
(0,0,0)
(0,0,0)
(0,0,0)
(0,0,0)
(0,0,0)
(0,0,0)
(0,0,0)
(0,0,0)
(0,0,0)
(0,0,0)
(0,0,0)
(0,0,0)
(0,0,0)
(0,0,0)
(0,0,0)
(0,0,0)
(0,0,0)
(0,0,0)
(0,0,0)
(0,0,0)
(0,0,0)
(0,0,0)
(0,0,0)
(0,0,0)
(0,0,0)
(0,0,0)
(0,0,0)
(0,0,0)
(0,0,0)
(0,0,0)
(0,0,0)
(0,0,0)
(0,0,0)
(0,0,0)
(0,0,0)
(0,0,0)
(0,0,0)
(0,0,0)
(0,0,0)
(0,0,0)
(0,0,0)
(0,0,0)
(0,0,0)
(0,0,0)
(0,0,0)
(0,0,0)
(0,0,0)
(0,0,0)
(0,0,0)
(0,0,0)
(0,0,0)
(0,0,0)
(0,0,0)
(0,0,0)
(0,0,0)
(0,0,0)
(0,0,0)
(0,0,0)
(0,0,0)
(0,0,0)
(0,0,0)
(0,0,0)
(0,0,0)
(0,0,0)
(0,0,0)
(0,0,0)
(0,0,0)
(0,0,0)
(0,0,0)
(0,0,0)
(0,0,0)
(0,0,0)
(0,0,0)
(0,0,0)
(0,0,0)
(0,0,0)
(0,0,0)
(0,0,0)
(0,0,0)
(0,0,0)
(0,0,0)
(0,0,0)
(0,0,0)
(0,0,0)
(0,0,0)
(0,0,0)
(0,0,0)
(0,0,0)
(0,0,0)
(0,0,0)
(0,0,0)
(0,0,0)
(0,0,0)
(0,0,0)
(0,0,0)
(0,0,0)
(0,0,0)
(0,0,0)
(0,0,0)
(0,0,0)
(0,0,0)
(0,0,0)
(0,0,0)
(0,0,0)
(0,0,0)
(0,0,0)
(0,0,0)
(0,0,0)
(0,0,0)
(0,0,0)
(0,0,0)
(0,0,0)
(0,0,0)
(0,0,0)
(0,0,0)
(0,0,0)
(0,0,0)
(0,0,0)
(0,0,0)
(0,0,0)
(0,0,0)
(0,0,0)
(0,0,0)
(0,0,0)
(0,0,0)
(0,0,0)
(0,0,0)
(0,0,0)
(0,0,0)
(0,0,0)
(0,0,0)
(0,0,0)
(0,0,0)
(0,0,0)
(0,0,0)
(0,0,0)
(0,0,0)
(0,0,0)
(0,0,0)
(0,0,0)
(0,0,0)
(0,0,0)
(0,0,0)
(0,0,0)
(0,0,0)
(0,0,0)
(0,0,0)
(0,0,0)
(0,0,0)
(0,0,0)
(0,0,0)
(0,0,0)
(0,0,0)
(0,0,0)
(0,0,0)
(0,0,0)
(0,0,0)
(0,0,0)
(0,0,0)
(0,0,0)
(0,0,0)
(0,0,0)
(0,0,0)
(0,0,0)
(0,0,0)
(0,0,0)
(0,0,0)
(0,0,0)
(0,0,0)
(0,0,0)
(0,0,0)
(0,0,0)
(0,0,0)
(0,0,0)
(0,0,0)
(0,0,0)
(0,0,0)
(0,0,0)
(0,0,0)
(0,0,0)
(0,0,0)
(0,0,0)
(0,0,0)
(0,0,0)
(0,0,0)
(0,0,0)
(0,0,0)
(0,0,0)
(0,0,0)
(0,0,0)
(0,0,0)
(0,0,0)
(0,0,0)
(0,0,0)
(0,0,0)
(0,0,0)
(0,0,0)
(0,0,0)
(0,0,0)
(0,0,0)
(0,0,0)
(0,0,0)
(0,0,0)
(0,0,0)
(0,0,0)
(0,0,0)
(0,0,0)
(0,0,0)
(0,0,0)
(0,0,0)
(0,0,0)
(0,0,0)
(0,0,0)
(0,0,0)
(0,0,0)
(0,0,0)
(0,0,0)
(0,0,0)
(0,0,0)
(0,0,0)
(0,0,0)
(0,0,0)
(0,0,0)
(0,0,0)
(0,0,0)
(0,0,0)
(0,0,0)
(0,0,0)
(0,0,0)
(0,0,0)
(0,0,0)
(0,0,0)
(0,0,0)
(0,0,0)
(0,0,0)
(0,0,0)
(0,0,0)
(0,0,0)
(0,0,0)
(0,0,0)
(0,0,0)
(0,0,0)
(0,0,0)
(0,0,0)
(0,0,0)
(0,0,0)
(0,0,0)
(0,0,0)
(0,0,0)
(0,0,0)
(0,0,0)
(0,0,0)
(0,0,0)
(0,0,0)
(0,0,0)
(0,0,0)
(0,0,0)
(0,0,0)
(0,0,0)
(0,0,0)
(0,0,0)
(0,0,0)
(0,0,0)
(0,0,0)
(0,0,0)
(0,0,0)
(0,0,0)
(0,0,0)
(0,0,0)
(0,0,0)
(0,0,0)
(0,0,0)
(0,0,0)
(0,0,0)
(0,0,0)
(0,0,0)
(0,0,0)
(0,0,0)
(0,0,0)
(0,0,0)
(0,0,0)
(0,0,0)
(0,0,0)
(0,0,0)
(0,0,0)
(0,0,0)
(0,0,0)
(0,0,0)
(0,0,0)
(0,0,0)
(0,0,0)
(0,0,0)
(0,0,0)
(0,0,0)
(0,0,0)
(0,0,0)
(0,0,0)
(0,0,0)
(0,0,0)
(0,0,0)
(0,0,0)
(0,0,0)
(0,0,0)
(0,0,0)
(0,0,0)
(0,0,0)
(0,0,0)
(0,0,0)
(0,0,0)
(0,0,0)
(0,0,0)
(0,0,0)
(0,0,0)
(0,0,0)
(0,0,0)
(0,0,0)
(0,0,0)
(0,0,0)
(0,0,0)
(0,0,0)
(0,0,0)
(0,0,0)
(0,0,0)
(0,0,0)
(0,0,0)
(0,0,0)
(0,0,0)
(0,0,0)
(0,0,0)
(0,0,0)
(0,0,0)
(0,0,0)
(0,0,0)
(0,0,0)
(0,0,0)
(0,0,0)
(0,0,0)
(0,0,0)
(0,0,0)
(0,0,0)
(0,0,0)
(0,0,0)
(0,0,0)
(0,0,0)
(0,0,0)
(0,0,0)
(0,0,0)
(0,0,0)
(0,0,0)
(0,0,0)
(0,0,0)
(0,0,0)
(0,0,0)
(0,0,0)
(0,0,0)
(0,0,0)
(0,0,0)
(0,0,0)
(0,0,0)
(0,0,0)
(0,0,0)
(0,0,0)
(0,0,0)
(0,0,0)
(0,0,0)
(0,0,0)
(0,0,0)
(0,0,0)
(0,0,0)
(0,0,0)
(0,0,0)
(0,0,0)
(0,0,0)
(0,0,0)
(0,0,0)
(0,0,0)
(0,0,0)
(0,0,0)
(0,0,0)
(0,0,0)
(0,0,0)
(0,0,0)
(0,0,0)
(0,0,0)
(0,0,0)
(0,0,0)
(0,0,0)
(0,0,0)
(0,0,0)
(0,0,0)
(0,0,0)
(0,0,0)
(0,0,0)
(0,0,0)
(0,0,0)
(0,0,0)
(0,0,0)
(0,0,0)
(0,0,0)
(0,0,0)
(0,0,0)
(0,0,0)
(0,0,0)
(0,0,0)
(0,0,0)
(0,0,0)
(0,0,0)
(0,0,0)
(0,0,0)
(0,0,0)
(0,0,0)
(0,0,0)
(0,0,0)
(0,0,0)
(0,0,0)
(0,0,0)
(0,0,0)
(0,0,0)
(0,0,0)
(0,0,0)
(0,0,0)
(0,0,0)
(0,0,0)
(0,0,0)
(0,0,0)
(0,0,0)
(0,0,0)
(0,0,0)
(0,0,0)
(0,0,0)
(0,0,0)
(0,0,0)
(0,0,0)
(0,0,0)
(0,0,0)
(0,0,0)
(0,0,0)
(0,0,0)
(0,0,0)
(0,0,0)
(0,0,0)
(0,0,0)
(0,0,0)
(0,0,0)
(0,0,0)
(0,0,0)
(0,0,0)
(0,0,0)
(0,0,0)
(0,0,0)
(0,0,0)
(0,0,0)
(0,0,0)
(0,0,0)
(0,0,0)
(0,0,0)
(0,0,0)
(0,0,0)
(0,0,0)
(0,0,0)
(0,0,0)
(0,0,0)
(0,0,0)
(0,0,0)
(0,0,0)
(0,0,0)
(0,0,0)
(0,0,0)
(0,0,0)
(0,0,0)
(0,0,0)
(0,0,0)
(0,0,0)
(0,0,0)
(0,0,0)
(0,0,0)
(0,0,0)
(0,0,0)
(0,0,0)
(0,0,0)
(0,0,0)
(0,0,0)
(0,0,0)
(0,0,0)
(0,0,0)
(0,0,0)
(0,0,0)
(0,0,0)
(0,0,0)
(0,0,0)
(0,0,0)
(0,0,0)
(0,0,0)
(0,0,0)
(0,0,0)
(0,0,0)
(0,0,0)
(0,0,0)
(0,0,0)
(0,0,0)
(0,0,0)
(0,0,0)
(0,0,0)
(0,0,0)
(0,0,0)
(0,0,0)
(0,0,0)
(0,0,0)
(0,0,0)
(0,0,0)
(0,0,0)
(0,0,0)
(0,0,0)
(0,0,0)
(0,0,0)
(0,0,0)
(0,0,0)
(0,0,0)
(0,0,0)
(0,0,0)
(0,0,0)
(0,0,0)
(0,0,0)
(0,0,0)
(0,0,0)
(0,0,0)
(0,0,0)
(0,0,0)
(0,0,0)
(0,0,0)
(0,0,0)
(0,0,0)
(0,0,0)
(0,0,0)
(0,0,0)
(0,0,0)
(0,0,0)
(0,0,0)
(0,0,0)
(0,0,0)
(0,0,0)
(0,0,0)
(0,0,0)
(0,0,0)
(0,0,0)
(0,0,0)
(0,0,0)
(0,0,0)
(0,0,0)
(0,0,0)
(0,0,0)
(0,0,0)
(0,0,0)
(0,0,0)
(0,0,0)
(0,0,0)
(0,0,0)
(0,0,0)
(0,0,0)
(0,0,0)
(0,0,0)
(0,0,0)
(0,0,0)
(0,0,0)
(0,0,0)
(0,0,0)
(0,0,0)
(0,0,0)
(0,0,0)
(0,0,0)
(0,0,0)
(0,0,0)
(0,0,0)
(0,0,0)
(0,0,0)
(0,0,0)
(0,0,0)
(0,0,0)
(0,0,0)
(0,0,0)
(0,0,0)
(0,0,0)
(0,0,0)
(0,0,0)
(0,0,0)
(0,0,0)
(-185621.315306087,98831.1055537306,86790.2097523546)
(-196337.166701416,94750.2472772307,188377.129176541)
(-221061.016978609,86276.0871964744,323162.058958675)
(-267859.386056885,72970.808408852,518050.636606714)
(-352259.82669297,55022.9099917195,815287.55330797)
(-503679.602310598,34338.0485664821,1284629.10705208)
(-777766.474087433,15483.3333085151,2046912.24783102)
(-1273164.07777289,3918.47363203612,3316157.85197192)
(-2099782.96234501,87.7271338918857,5415853.087183)
(-2925569.78088635,-245.506105198508,8341668.37417459)
(0,0,0)
(0,0,0)
(0,0,0)
(0,0,0)
(0,0,0)
(0,0,0)
(-196386.272722413,212438.42443767,82778.9538384722)
(-207191.873947558,204751.777436548,179969.297626717)
(-232308.834472825,188617.973986874,309936.24530914)
(-280178.956720503,162911.371729118,500174.63870938)
(-366903.678303016,127404.033594246,794697.19340986)
(-521975.242377053,85098.4419535236,1265912.04239987)
(-799095.693526282,45008.4285889291,2035482.64064573)
(-1292587.43644409,19596.0928237475,3312392.45789804)
(-2112721.95649964,9616.67221560438,5415585.46931602)
(-2931612.81010268,4902.67924523681,8342050.09406817)
(0,0,0)
(0,0,0)
(0,0,0)
(0,0,0)
(0,0,0)
(0,0,0)
(-220857.852218065,358179.498459982,75116.7781957518)
(-231849.515596386,347874.219576864,163843.851651825)
(-257778.584083886,325974.774085536,284265.635637053)
(-308046.158551771,290496.215474683,464726.950443261)
(-400324.765822039,239919.909838519,752535.840021017)
(-565000.608836572,176602.705664029,1226032.18514708)
(-851639.805239722,112426.421499626,2010253.99747612)
(-1340948.65507749,68328.9956031203,3302469.7497742)
(-2143864.58238718,45017.358420985,5410933.64595605)
(-2945735.06520367,24370.847045834,8337200.54335916)
(0,0,0)
(0,0,0)
(0,0,0)
(0,0,0)
(0,0,0)
(0,0,0)
(-266514.163870953,559880.174584134,64813.4877468028)
(-277678.891438071,548374.449598055,141992.149163685)
(-304626.951131089,523821.999419631,248771.874960673)
(-358379.662812258,483521.527085573,414126.226162033)
(-459792.432653555,424488.268131266,689350.300522848)
(-642884.070042449,346788.256701485,1162048.81952785)
(-952274.544715178,260418.247870899,1966331.53787175)
(-1434554.03863695,189886.712965723,3279327.85914603)
(-2200971.73127063,134888.764865388,5390428.18397221)
(-2970653.35826093,72544.332158632,8312908.05712047)
(0,0,0)
(0,0,0)
(0,0,0)
(0,0,0)
(0,0,0)
(0,0,0)
(-348324.607583497,854907.786414044,53296.9957535824)
(-359451.524382704,843693.995960686,117428.973773652)
(-386929.243443118,819797.574422855,208382.642213546)
(-443577.565486396,780511.748044855,354969.986740659)
(-554422.151040927,722271.318635898,611609.087276955)
(-760366.76862789,643006.453596976,1075757.65900933)
(-1105548.98446861,545827.267815962,1895897.62353288)
(-1577060.64530136,438369.215907681,3224475.76589229)
(-2283927.03207429,315059.29603783,5328232.26679423)
(-3006626.12956353,166951.112293047,8240451.61622333)
(0,0,0)
(0,0,0)
(0,0,0)
(0,0,0)
(0,0,0)
(0,0,0)
(-495954.709860747,1308755.96143322,42106.5348415821)
(-506533.48474876,1298768.0639005,93565.9516505248)
(-533120.133297852,1277463.66947297,169019.989898265)
(-589211.246635218,1242081.85731431,296661.127264029)
(-701202.690348168,1187793.0465861,532342.089662001)
(-911067.557028335,1107782.80739719,978633.29289014)
(-1257327.61871285,993231.415964262,1788556.76345469)
(-1707455.16886583,833048.99056604,3101332.15766216)
(-2373813.26341457,609904.689999456,5180300.02711518)
(-3051913.35306795,325541.457549693,8073623.03492633)
(0,0,0)
(0,0,0)
(0,0,0)
(0,0,0)
(0,0,0)
(0,0,0)
(-766994.093262554,2043569.6585674,32180.3961283589)
(-776376.697782676,2034969.61604074,72355.5417708011)
(-800243.682826238,2016398.70275057,133664.191319447)
(-851463.877768435,1984750.105555,242459.820847195)
(-955468.088058066,1933268.57788538,452452.377605982)
(-1152679.20659917,1848670.69315694,864243.698445405)
(-1477669.19128722,1706519.10958688,1628625.19611002)
(-1886982.56945186,1470193.22674756,2878463.52938036)
(-2507786.90613832,1099974.76281138,4896180.36270669)
(-3125823.26808951,599312.591629873,7748232.49671615)
(0,0,0)
(0,0,0)
(0,0,0)
(0,0,0)
(0,0,0)
(0,0,0)
(-1262667.60391606,3282593.23486368,23644.027619783)
(-1270175.00488222,3274825.87565209,53962.7728906606)
(-1289402.00536313,3257601.74422356,102161.736780806)
(-1331056.58615868,3226800.71262345,191167.715871014)
(-1416537.02807358,3172868.49238266,368104.829447304)
(-1580499.86952484,3074915.53608487,722359.856044195)
(-1852691.07704202,2889035.29540093,1392534.74727214)
(-2184054.24871074,2538312.85301436,2508469.3697161)
(-2750997.03792369,1963687.87146383,4395753.29898736)
(-3267141.15398408,1113044.33772699,7149162.70687424)
(0,0,0)
(0,0,0)
(0,0,0)
(0,0,0)
(0,0,0)
(0,0,0)
(-2092589.34091891,5359290.1058615,15892.4699210518)
(-2097728.00567124,5351571.57259182,36874.7786525881)
(-2110803.3990539,5333731.47588893,71548.4460410766)
(-2138839.31278787,5299619.41722648,137569.0542259)
(-2195316.75842942,5235151.12419707,270603.180840913)
(-2301411.0184277,5110010.95873881,536918.776614681)
(-2479594.84359825,4863433.206243,1042115.70937087)
(-2744278.74133473,4390579.5953666,1934127.70835337)
(-3199495.97154449,3551932.75911937,3545378.79224224)
(-3513578.1123112,2135598.46714503,6036402.77513541)
(0,0,0)
(0,0,0)
(0,0,0)
(0,0,0)
(0,0,0)
(0,0,0)
(-2922298.46635165,8273486.77366271,8101.79855047426)
(-2924873.68502026,8265529.39720325,19017.6589592903)
(-2931375.41472141,8246591.7040099,37532.8455597583)
(-2945160.01445472,8208901.71682505,73410.5604159572)
(-2972506.7933485,8135134.16604424,145934.311917308)
(-3023580.86717082,7988689.98460326,290836.153223648)
(-3112740.4834746,7697353.42279714,569656.420144102)
(-3262971.50150588,7127337.57888812,1095869.93812842)
(-3512774.11319249,6031164.5636875,2129412.24675275)
(-3537684.47271421,3901506.68251677,3901188.50409525)
(0,0,0)
(0,0,0)
(0,0,0)
(0,0,0)
(0,0,0)
(0,0,0)
(0,0,0)
(0,0,0)
(0,0,0)
(0,0,0)
(0,0,0)
(0,0,0)
(0,0,0)
(0,0,0)
(0,0,0)
(0,0,0)
(0,0,0)
(0,0,0)
(0,0,0)
(0,0,0)
(0,0,0)
(0,0,0)
(0,0,0)
(0,0,0)
(0,0,0)
(0,0,0)
(0,0,0)
(0,0,0)
(0,0,0)
(0,0,0)
(0,0,0)
(0,0,0)
(0,0,0)
(0,0,0)
(0,0,0)
(0,0,0)
(0,0,0)
(0,0,0)
(0,0,0)
(0,0,0)
(0,0,0)
(0,0,0)
(0,0,0)
(0,0,0)
(0,0,0)
(0,0,0)
(0,0,0)
(0,0,0)
(0,0,0)
(0,0,0)
(0,0,0)
(0,0,0)
(0,0,0)
(0,0,0)
(0,0,0)
(0,0,0)
(0,0,0)
(0,0,0)
(0,0,0)
(0,0,0)
(0,0,0)
(0,0,0)
(0,0,0)
(0,0,0)
(0,0,0)
(0,0,0)
(0,0,0)
(0,0,0)
(0,0,0)
(0,0,0)
(0,0,0)
(0,0,0)
(0,0,0)
(0,0,0)
(0,0,0)
(0,0,0)
(0,0,0)
(0,0,0)
(0,0,0)
(0,0,0)
(0,0,0)
(0,0,0)
(0,0,0)
(0,0,0)
(0,0,0)
(0,0,0)
(0,0,0)
(0,0,0)
(0,0,0)
(0,0,0)
(0,0,0)
(0,0,0)
(0,0,0)
(0,0,0)
(0,0,0)
(0,0,0)
(0,0,0)
(0,0,0)
(0,0,0)
(0,0,0)
(0,0,0)
(0,0,0)
(27436573.4250704,88128.5879907337,76128.1866579653)
(27418642.397888,83958.955644377,163641.18144937)
(27377516.0560038,75093.775663324,276421.847828768)
(27300601.0124983,60673.9191105952,433739.045188138)
(27163634.2647053,40388.6105381926,663907.858276841)
(26920105.816187,16072.4572808739,1010501.49752347)
(26473499.1240388,-5803.2109932666,1551490.62541562)
(25590828.0785019,-15488.470001025,2489438.45416706)
(23599131.9116513,-12856.789937608,4589831.88513359)
(18190057.4151467,-6293.22183808515,11266949.4259638)
(0,0,0)
(0,0,0)
(0,0,0)
(0,0,0)
(0,0,0)
(0,0,0)
(27418247.8845254,187961.600299033,71984.3454690991)
(27400297.3593698,180091.953524106,154813.629297222)
(27358806.7045744,163163.258239415,262080.122699051)
(27280461.6349279,135049.710372686,413515.254813725)
(27139769.2920011,94001.516263247,639680.893809822)
(26889392.7966444,42080.3921141858,988756.434980331)
(26435911.8858447,-7545.17297596502,1541942.33261731)
(25556934.0055281,-28779.3485530152,2492163.28422234)
(23578071.4079882,-21528.7498024376,4596493.39462436)
(18180833.6132619,-9186.3973932668,11273391.6618401)
(0,0,0)
(0,0,0)
(0,0,0)
(0,0,0)
(0,0,0)
(0,0,0)
(27376867.3518148,312556.310795592,64131.6004956461)
(27358861.2409318,302054.105296174,137910.207220558)
(27316542.3766097,279161.733703826,234042.286087808)
(27234748.7591465,240203.091517995,372545.502269511)
(27084294.909756,180468.348441063,587910.509538873)
(26813429.8920997,98679.423629962,939332.492112019)
(26333988.537512,11753.5799059111,1520856.9115036)
(25463396.9633665,-25273.5570115398,2499457.01654346)
(23523671.8699029,-12050.2776748195,4608893.60715081)
(18158253.8762186,-491.224591579382,11282661.0079521)
(0,0,0)
(0,0,0)
(0,0,0)
(0,0,0)
(0,0,0)
(0,0,0)
(27300798.020002,478061.556556485,53634.0853913256)
(27282826.8684442,466581.307049428,115052.638780995)
(27239453.1136746,441500.212526239,195085.610178037)
(27152278.4648779,398283.397120718,312798.69191037)
(26983878.0083807,329808.503902473,506239.610440008)
(26666679.4767389,229232.404449816,852574.597864026)
(26107488.3686049,107060.039602416,1483956.73987274)
(25250455.9854629,47323.7999688925,2512800.87381768)
(23413732.1336131,51916.4045116549,4620581.84177256)
(18116026.1443982,36576.3541209894,11283286.2754262)
(0,0,0)
(0,0,0)
(0,0,0)
(0,0,0)
(0,0,0)
(0,0,0)
(27166835.9955144,707167.240456942,42185.2280268124)
(27149265.9206906,696510.329077765,89990.2759503449)
(27105684.2426186,673521.082900478,151807.4345396)
(27013973.6878466,634782.958577292,244208.134775095)
(26825040.6766821,575365.025713749,405640.300266079)
(26438289.6445506,492168.173888909,730499.632673723)
(25700247.1523852,393905.083159773,1424309.96728781)
(24855650.6157283,307877.149275347,2517496.87197696)
(23241443.0587827,225133.712184382,4605360.98847233)
(18053256.6411548,121666.692807333,11246839.3940929)
(0,0,0)
(0,0,0)
(0,0,0)
(0,0,0)
(0,0,0)
(0,0,0)
(26928539.3137941,1037570.02530165,31554.7065256395)
(26912145.0693572,1028814.69346786,67023.3030548336)
(26870629.070689,1010251.93623415,112994.760759467)
(26780597.3519274,979707.429928067,184713.205871419)
(26589502.61181,933372.440804835,322452.003647374)
(26191647.2565938,866030.991838947,632325.88710042)
(25444209.2438397,772769.655658388,1338375.96707447)
(24636921.8008392,653467.142712947,2434860.51895692)
(23094700.643523,475918.108479472,4502013.73074948)
(17981271.2049602,251651.290020551,11125296.0905332)
(0,0,0)
(0,0,0)
(0,0,0)
(0,0,0)
(0,0,0)
(0,0,0)
(26486479.4182929,1547729.97527948,22818.0534919135)
(26472192.0220613,1541015.01347245,48500.5286685847)
(26435406.1590135,1527091.45587561,82462.6822127084)
(26353706.3098273,1504994.9870759,138456.4524943)
(26175552.8575864,1472047.23213464,255212.230545247)
(25795066.2839725,1420742.38387333,539206.862964321)
(25070078.05972,1331435.67879308,1219245.10384756)
(24341561.6124597,1173095.7564362,2257523.82323801)
(22877395.2097,856754.092547516,4277957.23835666)
(17858432.5513856,457996.635112865,10873807.5888145)
(0,0,0)
(0,0,0)
(0,0,0)
(0,0,0)
(0,0,0)
(0,0,0)
(25602964.4798726,2452416.47245841,16132.9340576681)
(25591695.2916243,2447020.23352758,34708.9325212082)
(25562402.6905034,2435949.81339239,60497.3941631363)
(25496416.2041931,2418786.11655199,105684.989360418)
(25349624.6696763,2393891.94540606,204130.09336424)
(25026834.9050103,2353841.60365954,450147.614068186)
(24392210.9997962,2262010.47086328,1061122.26018493)
(23917244.2885684,1977968.00830013,1941402.98606688)
(22439092.5785764,1515105.5541602,3879413.42297927)
(17574140.3527972,866561.67875543,10416018.3875807)
(0,0,0)
(0,0,0)
(0,0,0)
(0,0,0)
(0,0,0)
(0,0,0)
(23606119.050534,4529405.38182534,10754.21420546)
(23598520.6257959,4524205.78433425,23771.5469568651)
(23578954.348677,4512899.34718025,43515.7804632527)
(23535791.0214613,4493029.04427613,81094.0335151425)
(23443923.4479316,4457711.516713,164485.770872317)
(23257015.0524511,4387623.60822714,358729.210451166)
(22920108.6846213,4230088.38268246,777399.285437663)
(22447036.8790873,3871679.49077048,1478823.69757059)
(21111276.9975652,3238480.65748046,3231127.14016586)
(16709443.954634,2111395.8742842,9549722.39271708)
(0,0,0)
(0,0,0)
(0,0,0)
(0,0,0)
(0,0,0)
(0,0,0)
(18192527.207559,11195501.1158501,5530.10708969891)
(18188760.0245121,11190049.8116697,12503.8852469817)
(18179156.0586218,11177546.7459282,23776.5281810591)
(18158412.0448607,11153598.6411281,46086.3870390307)
(18115705.9964115,11107204.8982885,94831.7307288295)
(18031740.5420743,11011928.3986516,201657.046084516)
(17876263.8385062,10809804.4180279,419388.203783522)
(17578545.8447488,10390016.918263,845984.945061621)
(16710110.119079,9543671.84694683,2104361.03834901)
(13586841.1628844,7439014.60512414,7438668.18693557)
(0,0,0)
(0,0,0)
(0,0,0)
(0,0,0)
(0,0,0)
(0,0,0)
(0,0,0)
(0,0,0)
(0,0,0)
(0,0,0)
(0,0,0)
(0,0,0)
(0,0,0)
(0,0,0)
(0,0,0)
(0,0,0)
(0,0,0)
(0,0,0)
(0,0,0)
(0,0,0)
(0,0,0)
(0,0,0)
(0,0,0)
(0,0,0)
(0,0,0)
(0,0,0)
(0,0,0)
(0,0,0)
(0,0,0)
(0,0,0)
(0,0,0)
(0,0,0)
(0,0,0)
(0,0,0)
(0,0,0)
(0,0,0)
(0,0,0)
(0,0,0)
(0,0,0)
(0,0,0)
(0,0,0)
(0,0,0)
(0,0,0)
(0,0,0)
(0,0,0)
(0,0,0)
(0,0,0)
(0,0,0)
(0,0,0)
(0,0,0)
(0,0,0)
(0,0,0)
(0,0,0)
(0,0,0)
(0,0,0)
(0,0,0)
(0,0,0)
(0,0,0)
(0,0,0)
(0,0,0)
(0,0,0)
(0,0,0)
(0,0,0)
(0,0,0)
(0,0,0)
(0,0,0)
(0,0,0)
(0,0,0)
(0,0,0)
(0,0,0)
(0,0,0)
(0,0,0)
(0,0,0)
(0,0,0)
(0,0,0)
(0,0,0)
(0,0,0)
(0,0,0)
(0,0,0)
(0,0,0)
(0,0,0)
(0,0,0)
(0,0,0)
(0,0,0)
(0,0,0)
(0,0,0)
(0,0,0)
(0,0,0)
(0,0,0)
(0,0,0)
(0,0,0)
(0,0,0)
(0,0,0)
(0,0,0)
(0,0,0)
(0,0,0)
(0,0,0)
(0,0,0)
(0,0,0)
(0,0,0)
(0,0,0)
(0,0,0)
(-477991.437987989,69876.9263472203,58236.4216859843)
(-497739.125246483,65661.691814592,122504.737980673)
(-542395.900396178,56413.1002983115,199552.079057209)
(-623705.320052995,40551.0307026417,296855.865880713)
(-762889.152369672,16523.8353632594,420403.932567267)
(-995034.526870953,-14651.91899916,563744.679599261)
(-1374489.62871224,-43365.270209073,668647.187534227)
(-1975104.09337642,-49361.8594957379,497489.703883068)
(-2836270.06589139,-33907.8487280342,-819651.984871437)
(-3476690.47406779,-15501.9294796756,-6923853.68120233)
(0,0,0)
(0,0,0)
(0,0,0)
(0,0,0)
(0,0,0)
(0,0,0)
(-498923.145721887,146568.660097426,54027.7814718684)
(-518355.565906951,138616.081280644,113274.802257358)
(-562569.825959155,120876.149490296,183736.768573783)
(-643940.095038381,89361.3352963242,272876.678921212)
(-785206.820933443,38569.909223839,389355.202969915)
(-1023641.14166036,-33883.9597080386,535169.666958284)
(-1412026.3336088,-109475.942514097,662767.043691569)
(-2006812.22592504,-122317.123345454,513017.023969168)
(-2852175.04080927,-75913.7161695287,-801182.174816921)
(-3482320.36743281,-31732.2529097546,-6908249.38571725)
(0,0,0)
(0,0,0)
(0,0,0)
(0,0,0)
(0,0,0)
(0,0,0)
(-545555.803099569,236411.211580427,46129.0884063015)
(-564344.361786688,225919.141767091,95580.1156131752)
(-607776.462780855,202034.964958559,152288.624510215)
(-689950.036593148,157736.57530898,222160.665211932)
(-838519.888993655,80028.0172729563,317065.840887245)
(-1101485.81711754,-48141.8014661094,459787.876837364)
(-1537408.41468802,-214801.672230139,650059.043728256)
(-2116544.71107679,-238219.517058342,559451.596859091)
(-2900329.40973445,-121963.919889928,-756948.434808185)
(-3497771.47845183,-42681.8542273484,-6876424.99384542)
(0,0,0)
(0,0,0)
(0,0,0)
(0,0,0)
(0,0,0)
(0,0,0)
(-628895.735824877,343993.031312662,35660.4210694675)
(-646687.945898435,332929.745366935,71713.1167870656)
(-688919.224392139,307660.613666506,108008.291120713)
(-772798.749327796,259883.469813513,144487.095796658)
(-937906.514245545,170845.882918547,189002.237752015)
(-1272931.26372158,732.868827263554,293286.792893915)
(-1926986.35743123,-300256.000290964,626764.331965574)
(-2475725.72933546,-347525.613363359,675800.628043757)
(-3020943.4546931,-120390.326253465,-677548.892311636)
(-3530880.54880599,-26193.9743753563,-6833581.59398475)
(0,0,0)
(0,0,0)
(0,0,0)
(0,0,0)
(0,0,0)
(0,0,0)
(-768930.28831943,468682.496608553,24625.3035127658)
(-785283.015115393,459223.897855825,46428.5718046896)
(-825169.051604409,438319.473089753,60171.4915792348)
(-909049.879271647,401247.310614807,55379.7028711208)
(-1093694.26557536,339642.527852953,18866.4851688977)
(-1566339.29106501,245396.444721646,-7619.67013509873)
(-3111442.31624599,137778.310388176,579583.972791675)
(-3690831.12329949,89069.7567270991,903018.826703787)
(-3257487.25362356,78360.2419458097,-583252.944114343)
(-3585120.73143577,49701.7947393752,-6807222.85566361)
(0,0,0)
(0,0,0)
(0,0,0)
(0,0,0)
(0,0,0)
(0,0,0)
(-999756.227982234,595326.676067502,15199.8472921977)
(-1014108.37421408,588676.678073456,25548.9956206065)
(-1049853.85268703,574847.943627859,23051.9334333688)
(-1127866.26668148,552603.322480557,-6291.97484884416)
(-1307392.12466719,519196.319717518,-75402.5452614165)
(-1778956.61953287,469301.978304032,-115155.717742347)
(-3249145.41305991,398560.884869839,530964.84965037)
(-3779954.99632334,358063.828083916,892396.060430966)
(-3367770.27512869,258599.469647601,-611823.763644403)
(-3639371.3443506,128845.695079387,-6856776.62969868)
(0,0,0)
(0,0,0)
(0,0,0)
(0,0,0)
(0,0,0)
(0,0,0)
(-1377181.13118353,663967.093992197,8568.61652653313)
(-1389017.89657656,660257.242211653,11746.4560009636)
(-1419079.97766513,653816.556685012,812.464597098037)
(-1487066.61880489,647399.113564142,-39661.9128794456)
(-1651924.28720841,645830.222667175,-125270.186059502)
(-2113848.48761717,652303.353582073,-185808.304772988)
(-3647668.59443373,653459.128414278,490588.590811156)
(-4138085.79913336,748743.532766305,793104.78269659)
(-3534435.06944649,418470.837905781,-741387.82144011)
(-3728882.62291816,173745.148666677,-6985423.61574894)
(0,0,0)
(0,0,0)
(0,0,0)
(0,0,0)
(0,0,0)
(0,0,0)
(-1979576.65354968,455184.770437007,4871.9419522013)
(-1988495.40564991,453458.603810474,5409.76260239998)
(-2011439.35833741,452108.107951159,-5491.25484816063)
(-2064756.5492411,457743.545759428,-41114.4486344042)
(-2201233.19806994,487792.99467562,-118670.867921736)
(-2625170.50285963,583689.253967296,-184502.875462298)
(-4300991.43110653,789666.614733342,586040.554096219)
(-3505054.66500099,507587.560995884,463043.964410951)
(-3667155.96613707,187201.545147892,-985889.713142796)
(-3867380.46985557,1827.68439765932,-7158902.94124621)
(0,0,0)
(0,0,0)
(0,0,0)
(0,0,0)
(0,0,0)
(0,0,0)
(-2843601.19922981,-884688.929829947,3142.43500545808)
(-2849398.50371032,-886095.670042488,4164.32333942125)
(-2864104.63726787,-887442.92943761,322.831647922184)
(-2896895.39670526,-884891.806192915,-10806.913258383)
(-2972084.06622139,-871000.614603717,-22457.3048511896)
(-3151927.02577511,-838078.603614852,21801.115931893)
(-3545011.54701337,-814131.614806013,304268.062080692)
(-3673365.72294234,-997149.342153205,142956.052234095)
(-4011032.384353,-1162991.11426982,-1170993.4214552)
(-4074331.46870513,-1011404.81380509,-7160437.01493855)
(0,0,0)
(0,0,0)
(0,0,0)
(0,0,0)
(0,0,0)
(0,0,0)
(-3482372.66056412,-6997990.97200126,1750.39526929062)
(-3485177.58959247,-6999732.82749005,2873.65179621187)
(-3492221.88786267,-7002674.06698859,3031.22080649633)
(-3507388.0617148,-7005886.75093814,3374.75710190095)
(-3539690.02358946,-7009496.98147254,10815.6289464641)
(-3607430.06659258,-7020680.88139089,46137.0003641764)
(-3732540.26826963,-7067266.97857037,121624.955879183)
(-3871583.67976178,-7189319.72294155,-22526.6538472687)
(-4075554.52740077,-7167195.6795659,-1019108.95709668)
(-3933012.79675616,-6148398.00881372,-6148713.31747272)
(0,0,0)
(0,0,0)
(0,0,0)
(0,0,0)
(0,0,0)
(0,0,0)
(0,0,0)
(0,0,0)
(0,0,0)
(0,0,0)
(0,0,0)
(0,0,0)
(0,0,0)
(0,0,0)
(0,0,0)
(0,0,0)
(0,0,0)
(0,0,0)
(0,0,0)
(0,0,0)
(0,0,0)
(0,0,0)
(0,0,0)
(0,0,0)
(0,0,0)
(0,0,0)
(0,0,0)
(0,0,0)
(0,0,0)
(0,0,0)
(0,0,0)
(0,0,0)
(0,0,0)
(0,0,0)
(0,0,0)
(0,0,0)
(0,0,0)
(0,0,0)
(0,0,0)
(0,0,0)
(0,0,0)
(0,0,0)
(0,0,0)
(0,0,0)
(0,0,0)
(0,0,0)
(0,0,0)
(0,0,0)
(0,0,0)
(0,0,0)
(0,0,0)
(0,0,0)
(0,0,0)
(0,0,0)
(0,0,0)
(0,0,0)
(0,0,0)
(0,0,0)
(0,0,0)
(0,0,0)
(0,0,0)
(0,0,0)
(0,0,0)
(0,0,0)
(0,0,0)
(0,0,0)
(0,0,0)
(0,0,0)
(0,0,0)
(0,0,0)
(0,0,0)
(0,0,0)
(0,0,0)
(0,0,0)
(0,0,0)
(0,0,0)
(0,0,0)
(0,0,0)
(0,0,0)
(0,0,0)
(0,0,0)
(0,0,0)
(0,0,0)
(0,0,0)
(0,0,0)
(0,0,0)
(0,0,0)
(0,0,0)
(0,0,0)
(0,0,0)
(0,0,0)
(0,0,0)
(0,0,0)
(0,0,0)
(0,0,0)
(0,0,0)
(0,0,0)
(0,0,0)
(0,0,0)
(0,0,0)
(0,0,0)
(0,0,0)
(-565475.812771946,48987.4483373277,38496.9264466305)
(-582218.764285592,45128.0075721476,77848.557913598)
(-619148.488948723,36322.4893456134,118278.65712053)
(-683585.355690361,20377.2187356564,157781.474022237)
(-787631.483629054,-5760.50873297112,188284.314014589)
(-947611.022705419,-43226.7682366382,184087.578085695)
(-1177362.45928284,-80817.0254080945,67777.4340643927)
(-1462254.3940916,-81010.2217973643,-364062.043423064)
(-1690036.51884998,-49779.4724963134,-1460516.11796814)
(-1468475.13835499,-21110.1510999355,-3447621.302581)
(0,0,0)
(0,0,0)
(0,0,0)
(0,0,0)
(0,0,0)
(0,0,0)
(-584437.769638594,99895.4550373186,34606.6172167143)
(-600291.944239345,92601.786291622,69069.2168296336)
(-635211.571991213,75655.0753618261,102378.376845483)
(-696226.475429096,43386.160700591,131655.81527126)
(-795513.17217355,-14708.3050808121,150909.96285921)
(-950841.585820484,-111719.721514326,146603.360297027)
(-1179117.34564722,-234819.28702173,67696.6339490852)
(-1455355.29270619,-232008.710007933,-332761.811059193)
(-1678855.95131275,-124048.94479246,-1431811.42825955)
(-1461594.64249836,-47173.3744046312,-3426473.92988936)
(0,0,0)
(0,0,0)
(0,0,0)
(0,0,0)
(0,0,0)
(0,0,0)
(-625971.540810336,152972.733887567,27338.4588605209)
(-640027.497551681,143471.519843004,52151.8610741277)
(-670910.785307152,120822.65233138,70118.6066308693)
(-724912.696783262,74877.1411098751,73590.2864117032)
(-814277.074463363,-19388.3786268482,54027.5454274446)
(-963203.486539891,-219652.57005786,23678.0633933139)
(-1214744.19547013,-604430.114269289,70624.6714229869)
(-1455765.58842563,-597398.871044995,-224764.290191113)
(-1651651.40607011,-242586.121958907,-1354905.11668899)
(-1444784.7187546,-75799.5975218699,-3379265.65326899)
(0,0,0)
(0,0,0)
(0,0,0)
(0,0,0)
(0,0,0)
(0,0,0)
(-697645.219992821,203854.72333013,17867.4947253896)
(-709133.683107232,194250.618142986,29534.1336342097)
(-734067.184313434,171327.769609062,24176.9762778254)
(-776670.82362431,123541.510457602,-20615.318773388)
(-846709.639713758,14915.1234496056,-146115.695381626)
(-984928.80239191,-292842.31570916,-360928.411059994)
(-1485255.67017176,-1484874.31678487,77785.104196109)
(-1562792.37065903,-1562711.2895891,130164.164063776)
(-1588353.6401313,-357005.614924325,-1188006.15753261)
(-1410848.43221838,-80490.6720311913,-3303347.19961092)
(0,0,0)
(0,0,0)
(0,0,0)
(0,0,0)
(0,0,0)
(0,0,0)
(-811038.00856841,237657.423255754,8305.02032335252)
(-819556.70530841,230218.708038192,6610.62062116483)
(-837037.634993495,213450.116447263,-23643.1428279467)
(-862144.722438651,182232.292993879,-129239.082197217)
(-879888.171302884,125720.950296296,-453851.003316393)
(-792792.397953062,32620.8849564371,-1552861.09709395)
(-6.40999698472576e-05,-1.70437380775012e-05,4.30552616324446e-05)