/*--------------------------------*- C++ -*----------------------------------*\
| =========                 |                                                 |
| \\      /  F ield         | foam-extend: Open Source CFD                    |
|  \\    /   O peration     | Version:     4.0                                |
|   \\  /    A nd           | Web:         http://www.foam-extend.org         |
|    \\/     M anipulation  |                                                 |
\*---------------------------------------------------------------------------*/
FoamFile
{
    version 2.0;
    format ascii;
    class volVectorField;
    location "772";
    object      E;
}
// * * * * * * * * * * * * * * * * * * * * * * * * * * * * * * * * * * * * * //

dimensions      [0 1 -1 0 0 0 0];

internalField   nonuniform List<vector>
4096
(
(0,0,0)
(0,0,0)
(0,0,0)
(0,0,0)
(0,0,0)
(0,0,0)
(0,0,0)
(0,0,0)
(0,0,0)
(0,0,0)
(0,0,0)
(0,0,0)
(0,0,0)
(0,0,0)
(0,0,0)
(0,0,0)
(0,0,0)
(0,0,0)
(0,0,0)
(0,0,0)
(0,0,0)
(0,0,0)
(0,0,0)
(0,0,0)
(0,0,0)
(0,0,0)
(0,0,0)
(0,0,0)
(0,0,0)
(0,0,0)
(0,0,0)
(0,0,0)
(0,0,0)
(0,0,0)
(0,0,0)
(0,0,0)
(0,0,0)
(0,0,0)
(0,0,0)
(0,0,0)
(0,0,0)
(0,0,0)
(0,0,0)
(0,0,0)
(0,0,0)
(0,0,0)
(0,0,0)
(0,0,0)
(0,0,0)
(0,0,0)
(0,0,0)
(0,0,0)
(0,0,0)
(0,0,0)
(0,0,0)
(0,0,0)
(0,0,0)
(0,0,0)
(0,0,0)
(0,0,0)
(0,0,0)
(0,0,0)
(0,0,0)
(0,0,0)
(0,0,0)
(0,0,0)
(0,0,0)
(0,0,0)
(0,0,0)
(0,0,0)
(0,0,0)
(0,0,0)
(0,0,0)
(0,0,0)
(0,0,0)
(0,0,0)
(0,0,0)
(0,0,0)
(0,0,0)
(0,0,0)
(0,0,0)
(0,0,0)
(0,0,0)
(0,0,0)
(0,0,0)
(0,0,0)
(0,0,0)
(0,0,0)
(0,0,0)
(0,0,0)
(0,0,0)
(0,0,0)
(0,0,0)
(0,0,0)
(0,0,0)
(0,0,0)
(0,0,0)
(0,0,0)
(0,0,0)
(0,0,0)
(0,0,0)
(0,0,0)
(0,0,0)
(0,0,0)
(0,0,0)
(0,0,0)
(0,0,0)
(0,0,0)
(0,0,0)
(0,0,0)
(0,0,0)
(0,0,0)
(0,0,0)
(0,0,0)
(0,0,0)
(0,0,0)
(0,0,0)
(0,0,0)
(0,0,0)
(0,0,0)
(0,0,0)
(0,0,0)
(0,0,0)
(0,0,0)
(0,0,0)
(0,0,0)
(0,0,0)
(0,0,0)
(0,0,0)
(0,0,0)
(0,0,0)
(0,0,0)
(0,0,0)
(0,0,0)
(0,0,0)
(0,0,0)
(0,0,0)
(0,0,0)
(0,0,0)
(0,0,0)
(0,0,0)
(0,0,0)
(0,0,0)
(0,0,0)
(0,0,0)
(0,0,0)
(0,0,0)
(0,0,0)
(0,0,0)
(0,0,0)
(0,0,0)
(0,0,0)
(0,0,0)
(0,0,0)
(0,0,0)
(0,0,0)
(0,0,0)
(0,0,0)
(0,0,0)
(0,0,0)
(0,0,0)
(0,0,0)
(0,0,0)
(0,0,0)
(0,0,0)
(0,0,0)
(0,0,0)
(0,0,0)
(0,0,0)
(0,0,0)
(0,0,0)
(0,0,0)
(0,0,0)
(0,0,0)
(0,0,0)
(0,0,0)
(0,0,0)
(0,0,0)
(0,0,0)
(0,0,0)
(0,0,0)
(0,0,0)
(0,0,0)
(0,0,0)
(0,0,0)
(0,0,0)
(0,0,0)
(0,0,0)
(0,0,0)
(0,0,0)
(0,0,0)
(0,0,0)
(0,0,0)
(0,0,0)
(0,0,0)
(0,0,0)
(0,0,0)
(0,0,0)
(0,0,0)
(0,0,0)
(0,0,0)
(0,0,0)
(0,0,0)
(0,0,0)
(0,0,0)
(0,0,0)
(0,0,0)
(0,0,0)
(0,0,0)
(0,0,0)
(0,0,0)
(0,0,0)
(0,0,0)
(0,0,0)
(0,0,0)
(0,0,0)
(0,0,0)
(0,0,0)
(0,0,0)
(0,0,0)
(0,0,0)
(0,0,0)
(0,0,0)
(0,0,0)
(0,0,0)
(0,0,0)
(0,0,0)
(0,0,0)
(0,0,0)
(0,0,0)
(0,0,0)
(0,0,0)
(0,0,0)
(0,0,0)
(0,0,0)
(0,0,0)
(0,0,0)
(0,0,0)
(0,0,0)
(0,0,0)
(0,0,0)
(0,0,0)
(0,0,0)
(0,0,0)
(0,0,0)
(0,0,0)
(0,0,0)
(0,0,0)
(0,0,0)
(0,0,0)
(0,0,0)
(0,0,0)
(0,0,0)
(0,0,0)
(0,0,0)
(0,0,0)
(0,0,0)
(0,0,0)
(0,0,0)
(0,0,0)
(0,0,0)
(0,0,0)
(0,0,0)
(0,0,0)
(0,0,0)
(0,0,0)
(0,0,0)
(0,0,0)
(0,0,0)
(0,0,0)
(0,0,0)
(0,0,0)
(0,0,0)
(0,0,0)
(0,0,0)
(0,0,0)
(0,0,0)
(0,0,0)
(0,0,0)
(0,0,0)
(0,0,0)
(0,0,0)
(0,0,0)
(0,0,0)
(0,0,0)
(0,0,0)
(0,0,0)
(0,0,0)
(0,0,0)
(0,0,0)
(0,0,0)
(0,0,0)
(0,0,0)
(0,0,0)
(0,0,0)
(0,0,0)
(0,0,0)
(0,0,0)
(0,0,0)
(0,0,0)
(0,0,0)
(0,0,0)
(0,0,0)
(0,0,0)
(0,0,0)
(0,0,0)
(0,0,0)
(0,0,0)
(0,0,0)
(0,0,0)
(0,0,0)
(0,0,0)
(0,0,0)
(0,0,0)
(0,0,0)
(0,0,0)
(0,0,0)
(0,0,0)
(0,0,0)
(0,0,0)
(0,0,0)
(0,0,0)
(0,0,0)
(0,0,0)
(0,0,0)
(0,0,0)
(0,0,0)
(0,0,0)
(0,0,0)
(0,0,0)
(0,0,0)
(0,0,0)
(0,0,0)
(0,0,0)
(0,0,0)
(0,0,0)
(0,0,0)
(0,0,0)
(0,0,0)
(0,0,0)
(0,0,0)
(0,0,0)
(0,0,0)
(0,0,0)
(0,0,0)
(0,0,0)
(0,0,0)
(0,0,0)
(0,0,0)
(0,0,0)
(0,0,0)
(0,0,0)
(0,0,0)
(0,0,0)
(0,0,0)
(0,0,0)
(0,0,0)
(0,0,0)
(0,0,0)
(0,0,0)
(0,0,0)
(0,0,0)
(0,0,0)
(0,0,0)
(0,0,0)
(0,0,0)
(0,0,0)
(0,0,0)
(0,0,0)
(0,0,0)
(0,0,0)
(0,0,0)
(0,0,0)
(0,0,0)
(0,0,0)
(0,0,0)
(0,0,0)
(0,0,0)
(0,0,0)
(0,0,0)
(0,0,0)
(0,0,0)
(0,0,0)
(0,0,0)
(0,0,0)
(0,0,0)
(0,0,0)
(0,0,0)
(0,0,0)
(0,0,0)
(0,0,0)
(0,0,0)
(0,0,0)
(0,0,0)
(0,0,0)
(0,0,0)
(0,0,0)
(0,0,0)
(0,0,0)
(0,0,0)
(0,0,0)
(0,0,0)
(0,0,0)
(0,0,0)
(0,0,0)
(0,0,0)
(0,0,0)
(0,0,0)
(0,0,0)
(0,0,0)
(0,0,0)
(0,0,0)
(0,0,0)
(0,0,0)
(0,0,0)
(0,0,0)
(0,0,0)
(0,0,0)
(0,0,0)
(0,0,0)
(0,0,0)
(0,0,0)
(0,0,0)
(0,0,0)
(0,0,0)
(0,0,0)
(0,0,0)
(0,0,0)
(0,0,0)
(0,0,0)
(0,0,0)
(0,0,0)
(0,0,0)
(0,0,0)
(0,0,0)
(0,0,0)
(0,0,0)
(0,0,0)
(0,0,0)
(0,0,0)
(0,0,0)
(0,0,0)
(0,0,0)
(0,0,0)
(0,0,0)
(0,0,0)
(0,0,0)
(0,0,0)
(0,0,0)
(0,0,0)
(0,0,0)
(0,0,0)
(0,0,0)
(0,0,0)
(0,0,0)
(0,0,0)
(0,0,0)
(0,0,0)
(0,0,0)
(0,0,0)
(0,0,0)
(0,0,0)
(0,0,0)
(0,0,0)
(0,0,0)
(0,0,0)
(0,0,0)
(0,0,0)
(0,0,0)
(0,0,0)
(0,0,0)
(0,0,0)
(0,0,0)
(0,0,0)
(0,0,0)
(0,0,0)
(0,0,0)
(0,0,0)
(0,0,0)
(0,0,0)
(0,0,0)
(0,0,0)
(0,0,0)
(0,0,0)
(0,0,0)
(0,0,0)
(0,0,0)
(0,0,0)
(0,0,0)
(0,0,0)
(0,0,0)
(0,0,0)
(0,0,0)
(0,0,0)
(0,0,0)
(0,0,0)
(0,0,0)
(0,0,0)
(0,0,0)
(0,0,0)
(0,0,0)
(0,0,0)
(0,0,0)
(0,0,0)
(0,0,0)
(0,0,0)
(0,0,0)
(0,0,0)
(0,0,0)
(0,0,0)
(0,0,0)
(0,0,0)
(0,0,0)
(0,0,0)
(0,0,0)
(0,0,0)
(0,0,0)
(0,0,0)
(0,0,0)
(0,0,0)
(0,0,0)
(0,0,0)
(0,0,0)
(0,0,0)
(0,0,0)
(0,0,0)
(0,0,0)
(0,0,0)
(0,0,0)
(0,0,0)
(0,0,0)
(0,0,0)
(0,0,0)
(0,0,0)
(0,0,0)
(0,0,0)
(0,0,0)
(0,0,0)
(0,0,0)
(0,0,0)
(0,0,0)
(0,0,0)
(0,0,0)
(0,0,0)
(0,0,0)
(0,0,0)
(0,0,0)
(0,0,0)
(0,0,0)
(0,0,0)
(0,0,0)
(0,0,0)
(0,0,0)
(0,0,0)
(0,0,0)
(0,0,0)
(0,0,0)
(0,0,0)
(0,0,0)
(0,0,0)
(0,0,0)
(0,0,0)
(0,0,0)
(0,0,0)
(0,0,0)
(0,0,0)
(0,0,0)
(0,0,0)
(0,0,0)
(0,0,0)
(0,0,0)
(0,0,0)
(0,0,0)
(0,0,0)
(0,0,0)
(0,0,0)
(0,0,0)
(0,0,0)
(0,0,0)
(0,0,0)
(0,0,0)
(0,0,0)
(0,0,0)
(0,0,0)
(0,0,0)
(0,0,0)
(0,0,0)
(0,0,0)
(0,0,0)
(0,0,0)
(0,0,0)
(0,0,0)
(0,0,0)
(0,0,0)
(0,0,0)
(0,0,0)
(0,0,0)
(0,0,0)
(0,0,0)
(0,0,0)
(0,0,0)
(0,0,0)
(0,0,0)
(0,0,0)
(0,0,0)
(0,0,0)
(0,0,0)
(0,0,0)
(0,0,0)
(0,0,0)
(0,0,0)
(0,0,0)
(0,0,0)
(0,0,0)
(0,0,0)
(0,0,0)
(0,0,0)
(0,0,0)
(0,0,0)
(0,0,0)
(0,0,0)
(0,0,0)
(0,0,0)
(0,0,0)
(0,0,0)
(0,0,0)
(0,0,0)
(0,0,0)
(0,0,0)
(0,0,0)
(0,0,0)
(0,0,0)
(0,0,0)
(0,0,0)
(0,0,0)
(0,0,0)
(0,0,0)
(0,0,0)
(0,0,0)
(0,0,0)
(0,0,0)
(0,0,0)
(0,0,0)
(0,0,0)
(0,0,0)
(0,0,0)
(0,0,0)
(0,0,0)
(0,0,0)
(0,0,0)
(0,0,0)
(0,0,0)
(0,0,0)
(0,0,0)
(0,0,0)
(0,0,0)
(0,0,0)
(0,0,0)
(0,0,0)
(0,0,0)
(0,0,0)
(0,0,0)
(0,0,0)
(0,0,0)
(0,0,0)
(0,0,0)
(0,0,0)
(0,0,0)
(0,0,0)
(0,0,0)
(0,0,0)
(0,0,0)
(0,0,0)
(0,0,0)
(0,0,0)
(0,0,0)
(0,0,0)
(0,0,0)
(0,0,0)
(0,0,0)
(0,0,0)
(0,0,0)
(0,0,0)
(0,0,0)
(0,0,0)
(0,0,0)
(0,0,0)
(0,0,0)
(0,0,0)
(0,0,0)
(0,0,0)
(0,0,0)
(0,0,0)
(0,0,0)
(0,0,0)
(0,0,0)
(0,0,0)
(0,0,0)
(0,0,0)
(0,0,0)
(0,0,0)
(0,0,0)
(0,0,0)
(0,0,0)
(0,0,0)
(0,0,0)
(0,0,0)
(0,0,0)
(0,0,0)
(0,0,0)
(0,0,0)
(0,0,0)
(0,0,0)
(0,0,0)
(0,0,0)
(0,0,0)
(0,0,0)
(0,0,0)
(0,0,0)
(0,0,0)
(0,0,0)
(0,0,0)
(0,0,0)
(0,0,0)
(0,0,0)
(0,0,0)
(0,0,0)
(0,0,0)
(0,0,0)
(0,0,0)
(0,0,0)
(0,0,0)
(0,0,0)
(0,0,0)
(0,0,0)
(0,0,0)
(0,0,0)
(0,0,0)
(0,0,0)
(0,0,0)
(0,0,0)
(0,0,0)
(0,0,0)
(0,0,0)
(0,0,0)
(0,0,0)
(0,0,0)
(0,0,0)
(0,0,0)
(0,0,0)
(0,0,0)
(0,0,0)
(0,0,0)
(0,0,0)
(0,0,0)
(0,0,0)
(0,0,0)
(0,0,0)
(0,0,0)
(0,0,0)
(0,0,0)
(0,0,0)
(0,0,0)
(0,0,0)
(0,0,0)
(0,0,0)
(0,0,0)
(0,0,0)
(0,0,0)
(0,0,0)
(0,0,0)
(0,0,0)
(0,0,0)
(0,0,0)
(0,0,0)
(0,0,0)
(0,0,0)
(0,0,0)
(0,0,0)
(0,0,0)
(0,0,0)
(0,0,0)
(0,0,0)
(0,0,0)
(0,0,0)
(0,0,0)
(0,0,0)
(0,0,0)
(0,0,0)
(0,0,0)
(0,0,0)
(0,0,0)
(0,0,0)
(0,0,0)
(0,0,0)
(0,0,0)
(0,0,0)
(0,0,0)
(0,0,0)
(0,0,0)
(0,0,0)
(0,0,0)
(0,0,0)
(0,0,0)
(0,0,0)
(0,0,0)
(0,0,0)
(0,0,0)
(0,0,0)
(0,0,0)
(0,0,0)
(0,0,0)
(0,0,0)
(0,0,0)
(0,0,0)
(0,0,0)
(0,0,0)
(0,0,0)
(0,0,0)
(-114624.617328368,61085.028416596,53539.5889117718)
(-121170.177763901,58527.498416414,116182.268259259)
(-136388.958892991,53270.1148100081,199301.112342242)
(-165260.770543809,45005.8838662432,319555.99901981)
(-217351.34872039,33892.4970087111,503014.850731494)
(-310922.98649299,21159.8799524963,792777.957271973)
(-480321.855200059,9562.30584908105,1263537.50662298)
(-786415.071312358,2443.15581598932,2047509.42211935)
(-1297151.10864927,65.8880509460467,3344594.64271773)
(-1807372.17575441,-121.04349945995,5152087.8619716)
(0,0,0)
(0,0,0)
(0,0,0)
(0,0,0)
(0,0,0)
(0,0,0)
(-121215.426586338,131231.947085807,51068.5079171266)
(-127854.108278036,126437.33349643,111012.781115149)
(-143332.733879538,116432.982097088,191182.647707605)
(-172872.630250373,100472.026203241,308589.135620985)
(-226396.33320353,78515.0487041195,490362.917129103)
(-322196.534162395,52459.4268587797,781259.904385221)
(-493446.929180818,27793.4714797235,1256475.66793537)
(-798399.637662122,12133.9720561902,2045184.48935726)
(-1305145.56068654,5968.55654592889,3344427.38154889)
(-1811104.95455443,3096.41795447835,5152314.87464927)
(0,0,0)
(0,0,0)
(0,0,0)
(0,0,0)
(0,0,0)
(0,0,0)
(-136330.736036161,221194.767471858,46367.915650109)
(-143094.879354667,214781.423700305,101118.704800902)
(-159085.167870205,201206.53034248,175430.32442572)
(-190094.897677172,179184.016676533,286813.231629601)
(-247029.201899912,147925.997299315,464431.484934318)
(-348725.0310491,108892.696535498,756723.2463067)
(-525829.119941569,69385.0925675827,1240960.74516041)
(-828214.865170214,42209.9712499313,2039099.61113686)
(-1324359.23104979,27851.1793656729,3341576.21936698)
(-1819809.33196431,15134.0567255356,5149347.91256021)
(0,0,0)
(0,0,0)
(0,0,0)
(0,0,0)
(0,0,0)
(0,0,0)
(-164479.59790835,345623.594690132,40050.7706900761)
(-171360.996807432,338465.457165087,87727.7340327281)
(-187975.259976819,323232.565339017,153676.959013004)
(-221126.16685422,298242.797206017,255744.345337738)
(-283713.791814538,261811.413977849,425572.720473744)
(-396779.657647477,213880.871703236,717364.202953479)
(-587893.850842507,160668.907639014,1213974.23872457)
(-885905.922792247,117232.553924523,2024857.57884218)
(-1359544.67838972,83337.4669726296,3328915.96962491)
(-1835165.7563632,44868.0900645746,5134347.69264918)
(0,0,0)
(0,0,0)
(0,0,0)
(0,0,0)
(0,0,0)
(0,0,0)
(-215021.281272855,527602.956960974,33041.9190020127)
(-221859.016192041,520631.967447522,72734.4249116171)
(-238794.655212155,505806.403613831,128955.241848958)
(-273747.80058228,481469.326214534,219476.513422726)
(-342161.894347044,445593.98699458,377855.834753044)
(-469311.232118161,396721.372853957,664326.565720467)
(-682491.957846998,336799.569852149,1170687.86135433)
(-973849.299721545,270621.357453723,1991148.3575467)
(-1410735.05098024,194590.389585909,3290630.4859137)
(-1857373.50115243,103157.144586139,5089714.9325446)
(0,0,0)
(0,0,0)
(0,0,0)
(0,0,0)
(0,0,0)
(0,0,0)
(-306273.650907561,807673.87790538,26202.7299631546)
(-312744.509088101,801464.064012213,58115.1424865643)
(-329138.834911324,788251.840719118,104808.5402926)
(-363744.493184305,766366.647077323,183655.712614116)
(-432851.832921469,732968.276477572,329133.256052595)
(-562399.081486728,683676.628919843,604577.081473444)
(-776246.464132466,613051.117846116,1104571.99761197)
(-1054402.74324558,514330.170914327,1915265.92739692)
(-1466241.01867836,376651.797862948,3199445.53779828)
(-1885329.36990956,201083.25752014,4986848.79477376)
(0,0,0)
(0,0,0)
(0,0,0)
(0,0,0)
(0,0,0)
(0,0,0)
(-473696.246742276,1261301.58455427,20068.540093387)
(-479426.943106968,1255926.21745366,45033.3297589078)
(-494164.895630956,1244425.81509641,83024.2510125808)
(-525777.624975492,1224928.73571614,150239.787349257)
(-589959.674417214,1193289.5042306,279878.234013447)
(-711696.126070946,1141217.907468,534033.081536234)
(-912417.262333273,1053595.51841217,1005905.94330346)
(-1165357.67986932,907815.452313093,1777778.341774)
(-1549028.13752062,679272.69093284,3024185.58622468)
(-1930992.70639084,370144.013188472,4786117.53694724)
(0,0,0)
(0,0,0)
(0,0,0)
(0,0,0)
(0,0,0)
(0,0,0)
(-779899.201484529,2026458.30243125,14742.4836075409)
(-784490.425819789,2021570.86481515,33588.2620658412)
(-796370.555768459,2010901.21389151,63483.4190392061)
(-822080.230713138,1991970.93905229,118521.446416183)
(-874829.801913094,1958848.73827091,227792.014288956)
(-976059.586841445,1898574.44438156,446495.064216837)
(-1144159.10138153,1783979.53300756,860270.151002965)
(-1348936.34965854,1567529.99972755,1549491.95324706)
(-1699327.39212801,1212743.18740664,2715348.84890128)
(-2018326.65389162,687468.637579612,4416350.87840169)
(0,0,0)
(0,0,0)
(0,0,0)
(0,0,0)
(0,0,0)
(0,0,0)
(-1292632.41577486,3309219.01525525,9871.70295084992)
(-1295768.55917008,3304317.15471324,22893.9722228566)
(-1303867.6378336,3293258.15475444,44404.6691934909)
(-1321167.89536299,3272309.57956902,85233.9240397601)
(-1355996.56044071,3232672.75561695,167406.467134443)
(-1421502.71149831,3155599.63264169,331883.990372603)
(-1531552.88259747,3003564.89116387,643851.514813762)
(-1695113.54914622,2711711.50095688,1194783.56273065)
(-1976446.57377153,2193836.02035563,2190137.30355317)
(-2170597.09522357,1319127.65907504,3729075.3772813)
(0,0,0)
(0,0,0)
(0,0,0)
(0,0,0)
(0,0,0)
(0,0,0)
(-1805265.95284951,5109455.80499116,5029.16311358335)
(-1806835.2044296,5104362.17785984,11819.3443965809)
(-1810871.22534039,5092644.64149494,23304.0829965041)
(-1819363.68021545,5069502.1379386,45475.2048423911)
(-1836220.93678235,5024105.39337329,90263.503868414)
(-1867773.60371363,4933880.49189634,179756.248327397)
(-1922862.64982092,4754238.9790698,351944.810242373)
(-2015698.33700671,4402418.53169718,676936.116508744)
(-2170064.577172,3725437.56870217,1315399.1453342)
(-2185513.29328078,2410050.47893936,2409989.61875067)
(0,0,0)
(0,0,0)
(0,0,0)
(0,0,0)
(0,0,0)
(0,0,0)
(0,0,0)
(0,0,0)
(0,0,0)
(0,0,0)
(0,0,0)
(0,0,0)
(0,0,0)
(0,0,0)
(0,0,0)
(0,0,0)
(0,0,0)
(0,0,0)
(0,0,0)
(0,0,0)
(0,0,0)
(0,0,0)
(0,0,0)
(0,0,0)
(0,0,0)
(0,0,0)
(0,0,0)
(0,0,0)
(0,0,0)
(0,0,0)
(0,0,0)
(0,0,0)
(0,0,0)
(0,0,0)
(0,0,0)
(0,0,0)
(0,0,0)
(0,0,0)
(0,0,0)
(0,0,0)
(0,0,0)
(0,0,0)
(0,0,0)
(0,0,0)
(0,0,0)
(0,0,0)
(0,0,0)
(0,0,0)
(0,0,0)
(0,0,0)
(0,0,0)
(0,0,0)
(0,0,0)
(0,0,0)
(0,0,0)
(0,0,0)
(0,0,0)
(0,0,0)
(0,0,0)
(0,0,0)
(0,0,0)
(0,0,0)
(0,0,0)
(0,0,0)
(0,0,0)
(0,0,0)
(0,0,0)
(0,0,0)
(0,0,0)
(0,0,0)
(0,0,0)
(0,0,0)
(0,0,0)
(0,0,0)
(0,0,0)
(0,0,0)
(0,0,0)
(0,0,0)
(0,0,0)
(0,0,0)
(0,0,0)
(0,0,0)
(0,0,0)
(0,0,0)
(0,0,0)
(0,0,0)
(0,0,0)
(0,0,0)
(0,0,0)
(0,0,0)
(0,0,0)
(0,0,0)
(0,0,0)
(0,0,0)
(0,0,0)
(0,0,0)
(0,0,0)
(0,0,0)
(0,0,0)
(0,0,0)
(0,0,0)
(0,0,0)
(16950564.0756824,54462.1723186361,46930.8153051168)
(16939616.3031517,51843.225823903,100882.789200047)
(16914315.1894217,46341.510574003,170418.810945843)
(16866870.3892075,37411.8722672529,267457.459561688)
(16782332.6124975,24852.925850669,409502.253127602)
(16631848.0264072,9859.97913556264,623452.941726184)
(16355797.7301674,-3587.13847077144,957502.175463924)
(15810391.9453215,-9521.16985859503,1536798.00932309)
(14579823.9311467,-7912.13605925706,2834316.78622083)
(11237988.6297582,-3858.08860507042,6959395.74994778)
(0,0,0)
(0,0,0)
(0,0,0)
(0,0,0)
(0,0,0)
(0,0,0)
(16939336.3869231,116100.134435407,44391.9050082725)
(16928311.1246727,111181.577732517,95470.0007834498)
(16902743.8691266,100687.79870004,161628.790285695)
(16854404.6981043,83280.7166675122,255064.298165213)
(16767565.058034,57903.3293697179,394634.184043073)
(16612888.0402526,25890.5742404732,610100.695157548)
(16332650.6555005,-4634.38639885863,951632.039038847)
(15789499.664859,-17694.2736593625,1538487.52095291)
(14566851.9634587,-13250.4032609624,2838409.94464374)
(11232335.0570276,-5625.92504662691,6963319.45013765)
(0,0,0)
(0,0,0)
(0,0,0)
(0,0,0)
(0,0,0)
(0,0,0)
(16913802.5317984,192978.440018141,39570.1072171896)
(16902711.975317,186437.311534302,85089.1993782523)
(16876607.4401839,172254.931795814,144411.138862849)
(16826163.2862983,148131.969256652,229883.382932716)
(16733326.904989,111238.385832386,362773.900215556)
(16566034.6194543,60807.0696789999,579679.434908079)
(16269826.1210159,7277.41130807437,938694.07687814)
(15731856.27115,-15544.2168791637,1543054.56441234)
(14533325.7433727,-7395.26221585795,2846096.12957914)
(11218446.3170799,-252.465800565758,6969048.70192342)
(0,0,0)
(0,0,0)
(0,0,0)
(0,0,0)
(0,0,0)
(0,0,0)
(16866874.6844333,295057.604233605,33148.2340773013)
(16855781.7078994,287925.431852463,71099.0896868022)
(16829033.5748094,272389.074338007,120537.792992864)
(16775283.8531147,245646.340428295,193195.082486782)
(16671366.3943705,203391.880247823,312543.082520784)
(16475487.1430448,141361.713162586,526303.318979355)
(16130128.1216668,66071.3763697833,916069.062042842)
(15600599.2444676,29250.4056693804,1551350.95286888)
(14465590.7081396,32086.6847711462,2853315.29998698)
(11192432.0198877,22621.0953768401,6969425.64319325)
(0,0,0)
(0,0,0)
(0,0,0)
(0,0,0)
(0,0,0)
(0,0,0)
(16784100.1988021,436349.013548644,26168.791244494)
(16773287.3477212,429739.803679215,55789.736138965)
(16746418.4129915,415510.004620692,94037.4182871134)
(16689852.534988,391547.542216415,151117.561563208)
(16573264.2810925,354934.698439986,250730.248565961)
(16334511.1036375,303651.522050812,451199.784556579)
(15878819.2043031,243082.525394544,879459.154016242)
(15356983.424348,190048.888679966,1554409.62757061)
(14359289.9893663,139020.284290402,2844032.66833917)
(11153692.9430359,75149.9307415272,6947019.06942073)
(0,0,0)
(0,0,0)
(0,0,0)
(0,0,0)
(0,0,0)
(0,0,0)
(16636808.8358457,640187.280626023,19660.9268037886)
(16626770.3698418,634765.219052186,41702.3131353764)
(16601168.4498458,623274.222439155,70212.4911942749)
(16545648.0455012,604396.287935112,114552.887424604)
(16427746.6135298,575894.788493004,199576.031554743)
(16182181.1460018,534430.979579103,390798.027172403)
(15720677.9455349,476960.749263715,826577.074270378)
(15221818.95393,403404.363483212,1503581.58292596)
(14268638.0424582,293869.244384791,2780435.24232949)
(11109236.1178644,155421.736935806,6872179.62899577)
(0,0,0)
(0,0,0)
(0,0,0)
(0,0,0)
(0,0,0)
(0,0,0)
(16363713.0258321,955086.731114432,14272.9575716808)
(16354979.0215843,950917.57682537,30296.3157416701)
(16332271.0538631,942297.523522521,51418.7457986744)
(16281888.8128044,928675.810906289,86054.465682048)
(16171978.1557033,908442.113553922,158150.991135029)
(15937148.5623419,876914.613436184,333404.34949962)
(15489498.3083826,821925.372075903,753105.836606051)
(15039230.8081628,724285.304038805,1394218.08865281)
(14134306.5469141,529042.247218108,2642292.0820192)
(11033316.9196868,282849.563694183,6717136.30981775)
(0,0,0)
(0,0,0)
(0,0,0)
(0,0,0)
(0,0,0)
(0,0,0)
(15817930.9041174,1513733.5149014,10104.7912456272)
(15811031.745309,1510369.99329,21711.884286692)
(15792924.9658506,1503514.55945287,37781.0073717646)
(15752227.5868115,1492953.12898755,65777.5524004627)
(15661671.1425614,1477698.6036791,126601.798435168)
(15462437.7260267,1453144.27486301,278456.504774665)
(15070636.166726,1396602.2336676,655566.055709873)
(14776933.7396331,1221367.27400933,1199195.67708216)
(13863433.3144873,935647.53911034,2396411.35920899)
(10857641.9612228,535200.983392407,6434673.00503079)
(0,0,0)
(0,0,0)
(0,0,0)
(0,0,0)
(0,0,0)
(0,0,0)
(14584307.4968026,2796689.2358437,6686.04711472106)
(14579659.651562,2793406.83236514,14802.6779420143)
(14567531.1169927,2786385.46520524,27114.6979978336)
(14540905.3737877,2774176.99960967,50399.2388593973)
(14484250.5150215,2752500.58887073,101931.858839982)
(14368874.3547902,2709403.56697903,221877.181069934)
(14160829.6363299,2612335.55672635,480343.019718248)
(13868446.0016007,2391184.03164866,913548.391966506)
(13043022.2035436,2000230.68555009,1996078.14884605)
(10323386.3609181,1304184.45701949,5899692.89971172)
(0,0,0)
(0,0,0)
(0,0,0)
(0,0,0)
(0,0,0)
(0,0,0)
(11239715.3409035,6914872.91540281,3416.70732233498)
(11237407.3242722,6911386.40598545,7776.28563463734)
(11231441.8679164,6903630.81856043,14799.5196571172)
(11218662.8061846,6888929.74966716,28601.9638340446)
(11192332.8036151,6860406.24975991,58724.2431819555)
(11140472.8309533,6801770.31993225,124692.736196327)
(11044415.1580236,6677196.56190079,259135.603811814)
(10860437.5897977,6418146.9405849,522618.448705578)
(10323836.8242024,5895515.8577289,1300013.55578677)
(8394176.22343096,4595551.32753522,4595538.84919372)
(0,0,0)
(0,0,0)
(0,0,0)
(0,0,0)
(0,0,0)
(0,0,0)
(0,0,0)
(0,0,0)
(0,0,0)
(0,0,0)
(0,0,0)
(0,0,0)
(0,0,0)
(0,0,0)
(0,0,0)
(0,0,0)
(0,0,0)
(0,0,0)
(0,0,0)
(0,0,0)
(0,0,0)
(0,0,0)
(0,0,0)
(0,0,0)
(0,0,0)
(0,0,0)
(0,0,0)
(0,0,0)
(0,0,0)
(0,0,0)
(0,0,0)
(0,0,0)
(0,0,0)
(0,0,0)
(0,0,0)
(0,0,0)
(0,0,0)
(0,0,0)
(0,0,0)
(0,0,0)
(0,0,0)
(0,0,0)
(0,0,0)
(0,0,0)
(0,0,0)
(0,0,0)
(0,0,0)
(0,0,0)
(0,0,0)
(0,0,0)
(0,0,0)
(0,0,0)
(0,0,0)
(0,0,0)
(0,0,0)
(0,0,0)
(0,0,0)
(0,0,0)
(0,0,0)
(0,0,0)
(0,0,0)
(0,0,0)
(0,0,0)
(0,0,0)
(0,0,0)
(0,0,0)
(0,0,0)
(0,0,0)
(0,0,0)
(0,0,0)
(0,0,0)
(0,0,0)
(0,0,0)
(0,0,0)
(0,0,0)
(0,0,0)
(0,0,0)
(0,0,0)
(0,0,0)
(0,0,0)
(0,0,0)
(0,0,0)
(0,0,0)
(0,0,0)
(0,0,0)
(0,0,0)
(0,0,0)
(0,0,0)
(0,0,0)
(0,0,0)
(0,0,0)
(0,0,0)
(0,0,0)
(0,0,0)
(0,0,0)
(0,0,0)
(0,0,0)
(0,0,0)
(0,0,0)
(0,0,0)
(0,0,0)
(0,0,0)
(-294997.36762159,43126.021105267,35853.7415642032)
(-307087.94213374,40512.5344451744,75463.7717700322)
(-334554.817349143,34791.5353144788,122960.562591906)
(-384699.318119342,24993.5719728412,182955.017311501)
(-470592.735249226,10133.0006269213,259165.683796837)
(-614066.992193057,-9074.57773438305,347573.599497129)
(-848682.465142864,-26728.388739002,412200.502911954)
(-1219847.03438352,-30405.9020362609,306263.704018804)
(-1752026.47204004,-20886.0820798755,-507581.491349096)
(-2147856.65602344,-9533.53326256039,-4278784.35293936)
(0,0,0)
(0,0,0)
(0,0,0)
(0,0,0)
(0,0,0)
(0,0,0)
(-307846.294088946,90439.5389989203,33287.4824839108)
(-319797.864401583,85515.5543197342,69811.7710491078)
(-347027.229401254,74536.7328410539,113255.991415965)
(-397209.462982631,55044.1517590461,168237.89208224)
(-484384.804462084,23652.8231087922,240086.251462022)
(-631699.553844103,-21000.651242075,330018.238432026)
(-871753.159146099,-67503.1212549839,408615.104960094)
(-1239338.05921382,-75384.6984386383,315849.94480086)
(-1761766.27291109,-46794.0019444225,-496205.579599143)
(-2151253.68834162,-19541.644773696,-4269190.40335329)
(0,0,0)
(0,0,0)
(0,0,0)
(0,0,0)
(0,0,0)
(0,0,0)
(-336638.251434956,145862.39857239,28436.2430254024)
(-348229.094842034,139364.988410995,58946.198458659)
(-374996.973801492,124574.597979749,93931.0666708758)
(-425660.648637507,97165.3921561083,137052.080575142)
(-517322.266744353,49187.6118027351,195584.782980125)
(-679725.547038477,-29831.9380302475,283594.555626618)
(-949011.042271668,-132513.135378092,400860.052402834)
(-1306900.01383508,-146917.97517456,344567.933489233)
(-1791383.44223558,-75222.2348483329,-468876.328632957)
(-2160705.83902869,-26304.9951871416,-4249542.50274544)
(0,0,0)
(0,0,0)
(0,0,0)
(0,0,0)
(0,0,0)
(0,0,0)
(-388078.058722468,212196.078015202,22037.3830785402)
(-399093.884024198,205354.728437637,44341.5543410047)
(-425116.792616486,189720.505420406,66764.3336917614)
(-476830.603853143,160165.755970201,89296.746211028)
(-578687.986029651,105222.961984646,116734.095794789)
(-785510.761475337,300.018325730304,181018.363324524)
(-1189260.58126379,-185312.652767505,386624.903010039)
(-1528246.47523201,-214429.715626196,416400.682526855)
(-1865632.14698852,-74277.2382995494,-419903.139528248)
(-2181056.40417982,-16147.6909341138,-4223153.70034832)
(0,0,0)
(0,0,0)
(0,0,0)
(0,0,0)
(0,0,0)
(0,0,0)
(-474629.647190339,289037.79753538,15306.4458377707)
(-484721.143925073,283193.114598283,28894.8706889288)
(-509281.119368266,270284.679169762,37448.5486648478)
(-561010.489806767,247356.11764075,34539.5311545711)
(-674923.801995026,209380.921400557,11987.9741917282)
(-966632.54297248,151293.267116176,-4443.30862323702)
(-1920229.14532147,84989.89131644,357720.816282852)
(-2278007.61853624,54914.6296808678,556785.833225526)
(-2011510.69125102,48329.9031164418,-361602.308207535)
(-2214499.51032637,30667.1675161737,-4206806.39392999)
(0,0,0)
(0,0,0)
(0,0,0)
(0,0,0)
(0,0,0)
(0,0,0)
(-617318.51462086,367052.892935766,9530.57443174588)
(-626121.580929553,362954.407393442,16079.5517734828)
(-648127.927535698,354418.263215442,14660.6644748169)
(-696222.228205091,340683.061905586,-3377.68671825546)
(-806967.772880391,320157.905299234,-46021.9648411648)
(-1097972.80800454,289480.13709604,-70636.5614491565)
(-2005371.73510336,245948.365318749,327872.964552252)
(-2333424.00616938,220945.71476232,550503.158935775)
(-2079752.63303661,159586.754141147,-378944.697228648)
(-2248040.52659478,79522.4822007659,-4237105.04808847)
(0,0,0)
(0,0,0)
(0,0,0)
(0,0,0)
(0,0,0)
(0,0,0)
(-850484.565300217,409217.28628615,5451.51714746045)
(-857724.0535142,406932.436776072,7594.88222888781)
(-876246.480414002,402960.908684548,988.090402454175)
(-918146.451159186,399045.636680208,-23920.9010430279)
(-1019828.27548866,398181.292658789,-76719.537845034)
(-1304862.63566821,402340.291360894,-114150.17473429)
(-2251549.40783526,403232.750215348,303031.475952487)
(-2554898.98420786,462100.530411676,489424.772039334)
(-2182893.19944403,258256.753185767,-458627.16128159)
(-2303413.55337113,107219.811182525,-4316175.69783996)
(0,0,0)
(0,0,0)
(0,0,0)
(0,0,0)
(0,0,0)
(0,0,0)
(-1222584.61796344,280002.868866831,3148.25886564276)
(-1228041.11708763,278942.559766319,3629.31763754767)
(-1242212.92572848,278117.069653024,-2970.63238632706)
(-1275087.05086299,281657.311979559,-24849.3506457844)
(-1359245.42394062,300298.892378973,-72632.0644983442)
(-1620801.03014807,359645.807670505,-113280.505267627)
(-2654880.1902958,486900.636564223,361986.284770873)
(-2164337.73705455,312935.819065185,285840.792170537)
(-2265022.95122987,115285.176154824,-609313.045715721)
(-2389016.57005305,978.279353524027,-4422994.66324526)
(0,0,0)
(0,0,0)
(0,0,0)
(0,0,0)
(0,0,0)
(0,0,0)
(-1756350.49634676,-547925.810806485,2004.9921881987)
(-1759888.59791352,-548803.749258962,2717.87005446463)
(-1769006.86686589,-549648.357985698,439.600917278886)
(-1789230.50164784,-548005.334435272,-6343.55786673715)
(-1835581.43045209,-539348.92658266,-13445.4740659484)
(-1946495.10859236,-518896.716325778,13884.8326783819)
(-2189048.30333823,-503954.603305655,188036.331581944)
(-2268722.15069179,-616720.098433841,88278.7207389641)
(-2477626.38815067,-718894.47015281,-723474.721893578)
(-2516942.23564279,-625011.285963737,-4423738.24064986)
(0,0,0)
(0,0,0)
(0,0,0)
(0,0,0)
(0,0,0)
(0,0,0)
(-2151100.6238882,-4324788.53768036,1097.01103111483)
(-2152818.22346974,-4325905.97327991,1843.10215956195)
(-2157193.56015499,-4327725.62902166,1974.12063248724)
(-2166529.27234524,-4329632.24142076,2211.42551335495)
(-2186440.1783705,-4331820.35657532,6874.15685713532)
(-2228223.93882767,-4338595.57736849,28688.1070463471)
(-2305506.49414307,-4367136.29208849,75209.7673614429)
(-2391533.82288747,-4442230.83643396,-13889.7625877121)
(-2517672.60575004,-4428265.80208385,-629590.681338633)
(-2429719.46351725,-3798621.45621395,-3798666.5047746)
(0,0,0)
(0,0,0)
(0,0,0)
(0,0,0)
(0,0,0)
(0,0,0)
(0,0,0)
(0,0,0)
(0,0,0)
(0,0,0)
(0,0,0)
(0,0,0)
(0,0,0)
(0,0,0)
(0,0,0)
(0,0,0)
(0,0,0)
(0,0,0)
(0,0,0)
(0,0,0)
(0,0,0)
(0,0,0)
(0,0,0)
(0,0,0)
(0,0,0)
(0,0,0)
(0,0,0)
(0,0,0)
(0,0,0)
(0,0,0)
(0,0,0)
(0,0,0)
(0,0,0)
(0,0,0)
(0,0,0)
(0,0,0)
(0,0,0)
(0,0,0)
(0,0,0)
(0,0,0)
(0,0,0)
(0,0,0)
(0,0,0)
(0,0,0)
(0,0,0)
(0,0,0)
(0,0,0)
(0,0,0)
(0,0,0)
(0,0,0)
(0,0,0)
(0,0,0)
(0,0,0)
(0,0,0)
(0,0,0)
(0,0,0)
(0,0,0)
(0,0,0)
(0,0,0)
(0,0,0)
(0,0,0)
(0,0,0)
(0,0,0)
(0,0,0)
(0,0,0)
(0,0,0)
(0,0,0)
(0,0,0)
(0,0,0)
(0,0,0)
(0,0,0)
(0,0,0)
(0,0,0)
(0,0,0)
(0,0,0)
(0,0,0)
(0,0,0)
(0,0,0)
(0,0,0)
(0,0,0)
(0,0,0)
(0,0,0)
(0,0,0)
(0,0,0)
(0,0,0)
(0,0,0)
(0,0,0)
(0,0,0)
(0,0,0)
(0,0,0)
(0,0,0)
(0,0,0)
(0,0,0)
(0,0,0)
(0,0,0)
(0,0,0)
(0,0,0)
(0,0,0)
(0,0,0)
(0,0,0)
(0,0,0)
(0,0,0)
(-348819.970494553,30201.7003408163,23620.902532147)
(-359093.984597748,27797.4589100946,47829.4860860606)
(-381810.892342538,22346.1430568292,72739.4180226285)
(-421557.292803218,12502.9989884295,97094.393718073)
(-485770.01555125,-3636.4267004789,115908.100720579)
(-584646.074520781,-26712.4007716078,113199.583819913)
(-726769.378663118,-49853.4213897983,41139.9187299673)
(-902901.580450873,-49936.3684511182,-225869.166751559)
(-1043805.95070233,-30668.6625371911,-903421.025552073)
(-907140.186297906,-12985.742033026,-2131151.75324459)
(0,0,0)
(0,0,0)
(0,0,0)
(0,0,0)
(0,0,0)
(0,0,0)
(-360540.133124068,61600.4854654638,21295.0539104755)
(-370279.009061601,57072.1019714873,42501.5555090975)
(-391761.381692315,46568.7835206205,63013.0673363674)
(-429369.643208614,26609.9876293414,81066.2589214367)
(-490624.921917624,-9246.26081414967,92916.2104906469)
(-586615.477763821,-69017.8259262817,90137.5595650469)
(-727774.940806063,-144830.997600303,41136.9174355224)
(-898555.101032455,-143022.855126108,-206559.554070843)
(-1036815.34493584,-76459.6752495128,-885719.469333777)
(-902824.618821093,-29055.0990465463,-2118079.18184081)
(0,0,0)
(0,0,0)
(0,0,0)
(0,0,0)
(0,0,0)
(0,0,0)
(-386221.324734989,94316.1342809135,16867.4244845853)
(-394874.882372598,88427.3626021454,32157.9513844867)
(-413887.247775893,74395.7501337222,43221.2587457844)
(-447175.652005697,45982.6995610478,45363.5501822705)
(-502285.471952335,-12167.545549162,33248.0401252613)
(-594255.913581323,-135637.790350862,14398.3710926781)
(-749633.160021655,-372861.732015085,43051.2232574539)
(-898581.914877346,-368392.018680809,-139897.712145587)
(-1019902.81721562,-149593.320023565,-838244.692391498)
(-892370.328387334,-46733.513500919,-2088901.7885785)
(0,0,0)
(0,0,0)
(0,0,0)
(0,0,0)
(0,0,0)
(0,0,0)
(-430481.952032367,125636.728807033,11083.2987837843)
(-437599.261031036,119704.764865257,18311.273527514)
(-452949.680802615,105532.513223209,15007.3986241579)
(-479217.454533258,75996.4063257833,-12619.4574604642)
(-522379.229076019,8996.36024717288,-90092.120210426)
(-607654.04426943,-180860.948236621,-222725.679530581)
(-916208.084046802,-916315.943432622,47676.0346699633)
(-963752.529066389,-964265.828791026,79055.8986145668)
(-980569.640329494,-220261.469754033,-735338.458313991)
(-871348.37781425,-49660.2388026175,-2042119.75937785)
(0,0,0)
(0,0,0)
(0,0,0)
(0,0,0)
(0,0,0)
(0,0,0)
(-500602.109772354,146371.512323341,5237.67906570725)
(-505856.683090429,141792.908364501,4285.07473181908)
(-516591.629782034,131468.870015514,-14340.7716467164)
(-532064.987958901,112181.726800898,-79471.593969696)
(-542956.828510259,77359.7178576384,-279801.925064932)
(-489213.029122238,19975.4810722506,-958057.868224046)
(8.99821233519929e-05,2.3272156664575e-05,-5.93169419957616e-05)