/*--------------------------------*- C++ -*----------------------------------*\
| =========                 |                                                 |
| \\      /  F ield         | foam-extend: Open Source CFD                    |
|  \\    /   O peration     | Version:     4.0                                |
|   \\  /    A nd           | Web:         http://www.foam-extend.org         |
|    \\/     M anipulation  |                                                 |
\*---------------------------------------------------------------------------*/
FoamFile
{
    version 2.0;
    format ascii;
    class volVectorField;
    location "1171";
    object      H;
}
// * * * * * * * * * * * * * * * * * * * * * * * * * * * * * * * * * * * * * //

dimensions      [0 1 -1 0 0 0 0];

internalField   nonuniform List<vector>
4096
(
(0,0,0)
(0,0,0)
(0,0,0)
(0,0,0)
(0,0,0)
(0,0,0)
(0,0,0)
(0,0,0)
(0,0,0)
(0,0,0)
(0,0,0)
(0,0,0)
(0,0,0)
(0,0,0)
(0,0,0)
(0,0,0)
(0,0,0)
(0,0,0)
(0,0,0)
(0,0,0)
(0,0,0)
(0,0,0)
(0,0,0)
(0,0,0)
(0,0,0)
(0,0,0)
(0,0,0)
(0,0,0)
(0,0,0)
(0,0,0)
(0,0,0)
(0,0,0)
(0,0,0)
(0,0,0)
(0,0,0)
(0,0,0)
(0,0,0)
(0,0,0)
(0,0,0)
(0,0,0)
(0,0,0)
(0,0,0)
(0,0,0)
(0,0,0)
(0,0,0)
(0,0,0)
(0,0,0)
(0,0,0)
(0,0,0)
(0,0,0)
(0,0,0)
(0,0,0)
(0,0,0)
(0,0,0)
(0,0,0)
(0,0,0)
(0,0,0)
(0,0,0)
(0,0,0)
(0,0,0)
(0,0,0)
(0,0,0)
(0,0,0)
(0,0,0)
(0,0,0)
(0,0,0)
(0,0,0)
(0,0,0)
(0,0,0)
(0,0,0)
(0,0,0)
(0,0,0)
(0,0,0)
(0,0,0)
(0,0,0)
(0,0,0)
(0,0,0)
(0,0,0)
(0,0,0)
(0,0,0)
(0,0,0)
(0,0,0)
(0,0,0)
(0,0,0)
(0,0,0)
(0,0,0)
(0,0,0)
(0,0,0)
(0,0,0)
(0,0,0)
(0,0,0)
(0,0,0)
(0,0,0)
(0,0,0)
(0,0,0)
(0,0,0)
(0,0,0)
(0,0,0)
(0,0,0)
(0,0,0)
(0,0,0)
(0,0,0)
(0,0,0)
(0,0,0)
(0,0,0)
(0,0,0)
(0,0,0)
(0,0,0)
(0,0,0)
(0,0,0)
(0,0,0)
(0,0,0)
(0,0,0)
(0,0,0)
(0,0,0)
(0,0,0)
(0,0,0)
(0,0,0)
(0,0,0)
(0,0,0)
(0,0,0)
(0,0,0)
(0,0,0)
(0,0,0)
(0,0,0)
(0,0,0)
(0,0,0)
(0,0,0)
(0,0,0)
(0,0,0)
(0,0,0)
(0,0,0)
(0,0,0)
(0,0,0)
(0,0,0)
(0,0,0)
(0,0,0)
(0,0,0)
(0,0,0)
(0,0,0)
(0,0,0)
(0,0,0)
(0,0,0)
(0,0,0)
(0,0,0)
(0,0,0)
(0,0,0)
(0,0,0)
(0,0,0)
(0,0,0)
(0,0,0)
(0,0,0)
(0,0,0)
(0,0,0)
(0,0,0)
(0,0,0)
(0,0,0)
(0,0,0)
(0,0,0)
(0,0,0)
(0,0,0)
(0,0,0)
(0,0,0)
(0,0,0)
(0,0,0)
(0,0,0)
(0,0,0)
(0,0,0)
(0,0,0)
(0,0,0)
(0,0,0)
(0,0,0)
(0,0,0)
(0,0,0)
(0,0,0)
(0,0,0)
(0,0,0)
(0,0,0)
(0,0,0)
(0,0,0)
(0,0,0)
(0,0,0)
(0,0,0)
(0,0,0)
(0,0,0)
(0,0,0)
(0,0,0)
(0,0,0)
(0,0,0)
(0,0,0)
(0,0,0)
(0,0,0)
(0,0,0)
(0,0,0)
(0,0,0)
(0,0,0)
(0,0,0)
(0,0,0)
(0,0,0)
(0,0,0)
(0,0,0)
(0,0,0)
(0,0,0)
(0,0,0)
(0,0,0)
(0,0,0)
(0,0,0)
(0,0,0)
(0,0,0)
(0,0,0)
(0,0,0)
(0,0,0)
(0,0,0)
(0,0,0)
(0,0,0)
(0,0,0)
(0,0,0)
(0,0,0)
(0,0,0)
(0,0,0)
(0,0,0)
(0,0,0)
(0,0,0)
(0,0,0)
(0,0,0)
(0,0,0)
(0,0,0)
(0,0,0)
(0,0,0)
(0,0,0)
(0,0,0)
(0,0,0)
(0,0,0)
(0,0,0)
(0,0,0)
(0,0,0)
(0,0,0)
(0,0,0)
(0,0,0)
(0,0,0)
(0,0,0)
(0,0,0)
(0,0,0)
(0,0,0)
(0,0,0)
(0,0,0)
(0,0,0)
(0,0,0)
(0,0,0)
(0,0,0)
(0,0,0)
(0,0,0)
(0,0,0)
(0,0,0)
(0,0,0)
(0,0,0)
(0,0,0)
(0,0,0)
(0,0,0)
(0,0,0)
(0,0,0)
(0,0,0)
(0,0,0)
(0,0,0)
(0,0,0)
(0,0,0)
(0,0,0)
(0,0,0)
(0,0,0)
(0,0,0)
(0,0,0)
(0,0,0)
(0,0,0)
(0,0,0)
(0,0,0)
(0,0,0)
(0,0,0)
(0,0,0)
(0,0,0)
(0,0,0)
(0,0,0)
(0,0,0)
(0,0,0)
(0,0,0)
(0,0,0)
(0,0,0)
(0,0,0)
(0,0,0)
(0,0,0)
(0,0,0)
(0,0,0)
(0,0,0)
(0,0,0)
(0,0,0)
(0,0,0)
(0,0,0)
(0,0,0)
(0,0,0)
(0,0,0)
(0,0,0)
(0,0,0)
(0,0,0)
(0,0,0)
(0,0,0)
(0,0,0)
(0,0,0)
(0,0,0)
(0,0,0)
(0,0,0)
(0,0,0)
(0,0,0)
(0,0,0)
(0,0,0)
(0,0,0)
(0,0,0)
(0,0,0)
(0,0,0)
(0,0,0)
(0,0,0)
(0,0,0)
(0,0,0)
(0,0,0)
(0,0,0)
(0,0,0)
(0,0,0)
(0,0,0)
(0,0,0)
(0,0,0)
(0,0,0)
(0,0,0)
(0,0,0)
(0,0,0)
(0,0,0)
(0,0,0)
(0,0,0)
(0,0,0)
(0,0,0)
(0,0,0)
(0,0,0)
(0,0,0)
(0,0,0)
(0,0,0)
(0,0,0)
(0,0,0)
(0,0,0)
(0,0,0)
(0,0,0)
(0,0,0)
(0,0,0)
(0,0,0)
(0,0,0)
(0,0,0)
(0,0,0)
(0,0,0)
(0,0,0)
(0,0,0)
(0,0,0)
(0,0,0)
(0,0,0)
(0,0,0)
(0,0,0)
(0,0,0)
(0,0,0)
(0,0,0)
(0,0,0)
(0,0,0)
(0,0,0)
(0,0,0)
(0,0,0)
(0,0,0)
(0,0,0)
(0,0,0)
(0,0,0)
(0,0,0)
(0,0,0)
(0,0,0)
(0,0,0)
(0,0,0)
(0,0,0)
(0,0,0)
(0,0,0)
(0,0,0)
(0,0,0)
(0,0,0)
(0,0,0)
(0,0,0)
(0,0,0)
(0,0,0)
(0,0,0)
(0,0,0)
(0,0,0)
(0,0,0)
(0,0,0)
(0,0,0)
(0,0,0)
(0,0,0)
(0,0,0)
(0,0,0)
(0,0,0)
(0,0,0)
(0,0,0)
(0,0,0)
(0,0,0)
(0,0,0)
(0,0,0)
(0,0,0)
(0,0,0)
(0,0,0)
(0,0,0)
(0,0,0)
(0,0,0)
(0,0,0)
(0,0,0)
(0,0,0)
(0,0,0)
(0,0,0)
(0,0,0)
(0,0,0)
(0,0,0)
(0,0,0)
(0,0,0)
(0,0,0)
(0,0,0)
(0,0,0)
(0,0,0)
(0,0,0)
(0,0,0)
(0,0,0)
(0,0,0)
(0,0,0)
(0,0,0)
(0,0,0)
(0,0,0)
(0,0,0)
(0,0,0)
(0,0,0)
(0,0,0)
(0,0,0)
(0,0,0)
(0,0,0)
(0,0,0)
(0,0,0)
(0,0,0)
(0,0,0)
(0,0,0)
(0,0,0)
(0,0,0)
(0,0,0)
(0,0,0)
(0,0,0)
(0,0,0)
(0,0,0)
(0,0,0)
(0,0,0)
(0,0,0)
(0,0,0)
(0,0,0)
(0,0,0)
(0,0,0)
(0,0,0)
(0,0,0)
(0,0,0)
(0,0,0)
(0,0,0)
(0,0,0)
(0,0,0)
(0,0,0)
(0,0,0)
(0,0,0)
(0,0,0)
(0,0,0)
(0,0,0)
(0,0,0)
(0,0,0)
(0,0,0)
(0,0,0)
(0,0,0)
(0,0,0)
(0,0,0)
(0,0,0)
(0,0,0)
(0,0,0)
(0,0,0)
(0,0,0)
(0,0,0)
(0,0,0)
(0,0,0)
(0,0,0)
(0,0,0)
(0,0,0)
(0,0,0)
(0,0,0)
(0,0,0)
(0,0,0)
(0,0,0)
(0,0,0)
(0,0,0)
(0,0,0)
(0,0,0)
(0,0,0)
(0,0,0)
(0,0,0)
(0,0,0)
(0,0,0)
(0,0,0)
(0,0,0)
(0,0,0)
(0,0,0)
(0,0,0)
(0,0,0)
(0,0,0)
(0,0,0)
(0,0,0)
(0,0,0)
(0,0,0)
(0,0,0)
(0,0,0)
(0,0,0)
(0,0,0)
(0,0,0)
(0,0,0)
(0,0,0)
(0,0,0)
(0,0,0)
(0,0,0)
(0,0,0)
(0,0,0)
(0,0,0)
(0,0,0)
(0,0,0)
(0,0,0)
(0,0,0)
(0,0,0)
(0,0,0)
(0,0,0)
(0,0,0)
(0,0,0)
(0,0,0)
(0,0,0)
(0,0,0)
(0,0,0)
(0,0,0)
(0,0,0)
(0,0,0)
(0,0,0)
(0,0,0)
(0,0,0)
(0,0,0)
(0,0,0)
(0,0,0)
(0,0,0)
(0,0,0)
(0,0,0)
(0,0,0)
(0,0,0)
(0,0,0)
(0,0,0)
(0,0,0)
(0,0,0)
(0,0,0)
(0,0,0)
(0,0,0)
(0,0,0)
(0,0,0)
(0,0,0)
(0,0,0)
(0,0,0)
(0,0,0)
(0,0,0)
(0,0,0)
(0,0,0)
(0,0,0)
(0,0,0)
(0,0,0)
(0,0,0)
(0,0,0)
(0,0,0)
(0,0,0)
(0,0,0)
(0,0,0)
(0,0,0)
(0,0,0)
(0,0,0)
(0,0,0)
(0,0,0)
(0,0,0)
(0,0,0)
(0,0,0)
(0,0,0)
(0,0,0)
(0,0,0)
(0,0,0)
(0,0,0)
(0,0,0)
(0,0,0)
(0,0,0)
(0,0,0)
(0,0,0)
(0,0,0)
(0,0,0)
(0,0,0)
(0,0,0)
(0,0,0)
(0,0,0)
(0,0,0)
(0,0,0)
(0,0,0)
(0,0,0)
(0,0,0)
(0,0,0)
(0,0,0)
(0,0,0)
(0,0,0)
(0,0,0)
(0,0,0)
(0,0,0)
(0,0,0)
(0,0,0)
(0,0,0)
(0,0,0)
(0,0,0)
(0,0,0)
(0,0,0)
(0,0,0)
(0,0,0)
(0,0,0)
(0,0,0)
(0,0,0)
(0,0,0)
(0,0,0)
(0,0,0)
(0,0,0)
(0,0,0)
(0,0,0)
(0,0,0)
(0,0,0)
(0,0,0)
(0,0,0)
(0,0,0)
(0,0,0)
(0,0,0)
(0,0,0)
(0,0,0)
(0,0,0)
(0,0,0)
(0,0,0)
(0,0,0)
(0,0,0)
(0,0,0)
(0,0,0)
(0,0,0)
(0,0,0)
(0,0,0)
(0,0,0)
(0,0,0)
(0,0,0)
(0,0,0)
(0,0,0)
(0,0,0)
(0,0,0)
(0,0,0)
(0,0,0)
(0,0,0)
(0,0,0)
(0,0,0)
(0,0,0)
(0,0,0)
(0,0,0)
(0,0,0)
(0,0,0)
(0,0,0)
(0,0,0)
(0,0,0)
(0,0,0)
(0,0,0)
(0,0,0)
(0,0,0)
(0,0,0)
(0,0,0)
(0,0,0)
(0,0,0)
(0,0,0)
(0,0,0)
(0,0,0)
(0,0,0)
(0,0,0)
(0,0,0)
(0,0,0)
(0,0,0)
(0,0,0)
(0,0,0)
(0,0,0)
(0,0,0)
(0,0,0)
(0,0,0)
(0,0,0)
(0,0,0)
(0,0,0)
(0,0,0)
(0,0,0)
(0,0,0)
(0,0,0)
(0,0,0)
(0,0,0)
(0,0,0)
(0,0,0)
(0,0,0)
(0,0,0)
(0,0,0)
(0,0,0)
(0,0,0)
(0,0,0)
(0,0,0)
(0,0,0)
(0,0,0)
(0,0,0)
(0,0,0)
(0,0,0)
(0,0,0)
(0,0,0)
(0,0,0)
(0,0,0)
(0,0,0)
(0,0,0)
(0,0,0)
(0,0,0)
(0,0,0)
(0,0,0)
(0,0,0)
(0,0,0)
(0,0,0)
(0,0,0)
(0,0,0)
(0,0,0)
(0,0,0)
(0,0,0)
(0,0,0)
(0,0,0)
(0,0,0)
(0,0,0)
(0,0,0)
(0,0,0)
(0,0,0)
(0,0,0)
(0,0,0)
(0,0,0)
(0,0,0)
(0,0,0)
(0,0,0)
(0,0,0)
(0,0,0)
(0,0,0)
(0,0,0)
(0,0,0)
(0,0,0)
(0,0,0)
(0,0,0)
(0,0,0)
(0,0,0)
(0,0,0)
(0,0,0)
(0,0,0)
(0,0,0)
(0,0,0)
(0,0,0)
(0,0,0)
(0,0,0)
(0,0,0)
(0,0,0)
(0,0,0)
(0,0,0)
(0,0,0)
(0,0,0)
(0,0,0)
(0,0,0)
(0,0,0)
(0,0,0)
(0,0,0)
(0,0,0)
(0,0,0)
(0,0,0)
(0,0,0)
(0,0,0)
(0,0,0)
(0,0,0)
(0,0,0)
(0,0,0)
(0,0,0)
(0,0,0)
(0,0,0)
(0,0,0)
(0,0,0)
(0,0,0)
(0,0,0)
(0,0,0)
(0,0,0)
(0,0,0)
(0,0,0)
(0,0,0)
(0,0,0)
(0,0,0)
(0,0,0)
(0,0,0)
(0,0,0)
(0,0,0)
(0,0,0)
(0,0,0)
(0,0,0)
(0,0,0)
(0,0,0)
(0,0,0)
(0,0,0)
(0,0,0)
(0,0,0)
(0,0,0)
(0,0,0)
(0,0,0)
(0,0,0)
(0,0,0)
(-8.63325570459109e-13,1.05857277075778e-11,-9.36690487322896e-12)
(-1.12894120909365e-12,2.23721717878284e-11,-9.13591468040679e-12)
(-9.75545525574309e-13,3.58462246471926e-11,-8.18968984646131e-12)
(-7.81899131348795e-13,5.60860342698812e-11,-6.75126350887677e-12)
(-4.43478141866878e-13,8.56455657072647e-11,-4.86724125927236e-12)
(-8.00980528190151e-13,1.32663277847657e-10,-3.2228043319009e-12)
(-1.79217496231641e-12,2.11315509125723e-10,-1.44433518934244e-12)
(-2.1817205168885e-12,3.43768578517934e-10,5.69895402461919e-14)
(-2.72559851158873e-12,5.6399680173863e-10,3.65966794322739e-13)
(-3.01794781085451e-12,8.71961271612966e-10,2.24847372146669e-13)
(0,0,0)
(0,0,0)
(0,0,0)
(0,0,0)
(0,0,0)
(0,0,0)
(-1.94581061269282e-12,9.7572191581964e-12,-2.00764400294206e-11)
(-2.29797552772225e-12,2.06965925334764e-11,-1.97103865677915e-11)
(-1.2651707000957e-12,3.39235185230547e-11,-1.82922532806782e-11)
(-7.21435338754589e-13,5.386971180798e-11,-1.56513634457084e-11)
(-6.90577093924722e-13,8.41604814701419e-11,-1.22664978692024e-11)
(-1.64421328767868e-12,1.31572694367315e-10,-8.53324416078875e-12)
(-3.73032007710282e-12,2.10558951517213e-10,-4.91292396166064e-12)
(-4.85162368954266e-12,3.43917112881502e-10,-2.41724457162068e-12)
(-6.03651939538679e-12,5.64646314503612e-10,-1.14839242597303e-12)
(-6.78074070637893e-12,8.72575240517739e-10,-4.99994449621147e-13)
(0,0,0)
(0,0,0)
(0,0,0)
(0,0,0)
(0,0,0)
(0,0,0)
(-1.58937663825229e-12,8.60742764542964e-12,-3.43420437293194e-11)
(-9.28079921061754e-13,1.82152662686513e-11,-3.3778657867019e-11)
(1.63690372012761e-13,3.06271650956382e-11,-3.22529960153792e-11)
(6.37572681368686e-13,5.00751134603236e-11,-2.90907287603932e-11)
(-1.45536783855657e-13,8.03656177291562e-11,-2.40769746541371e-11)
(-2.09853278047118e-12,1.2827231792145e-10,-1.7828981290022e-11)
(-6.11789006712722e-12,2.08527136072178e-10,-1.21422775189077e-11)
(-8.88999963259866e-12,3.43204553249297e-10,-8.46676554281379e-12)
(-1.03849643849056e-11,5.64564238004106e-10,-5.67410244283668e-12)
(-1.10798930285019e-11,8.72749385387841e-10,-2.96488423230054e-12)
(0,0,0)
(0,0,0)
(0,0,0)
(0,0,0)
(0,0,0)
(0,0,0)
(-4.96919642109836e-13,7.33493583836041e-12,-5.44969254020491e-11)
(1.82851752828764e-12,1.57203887201886e-11,-5.41169049239199e-11)
(2.7954855673881e-12,2.68748008140811e-11,-5.229885935846e-11)
(1.92101338134915e-12,4.47517458378221e-11,-4.88756438256502e-11)
(3.76183322260186e-14,7.3721646027906e-11,-4.3153966838003e-11)
(-2.17168307363086e-12,1.21997448106493e-10,-3.56620949188047e-11)
(-7.71548379237682e-12,2.0433400899254e-10,-2.80317835463548e-11)
(-1.23783072513938e-11,3.41023701766137e-10,-2.18420870767365e-11)
(-1.39844348462173e-11,5.62855467442292e-10,-1.58526383275205e-11)
(-1.43994477088759e-11,8.70826606541166e-10,-8.66929736799552e-12)
(0,0,0)
(0,0,0)
(0,0,0)
(0,0,0)
(0,0,0)
(0,0,0)
(4.78474578701862e-13,5.87069846971774e-12,-8.38782268272115e-11)
(2.66617515542675e-12,1.29487579093733e-11,-8.40732495323358e-11)
(2.96589232153293e-12,2.29359256560161e-11,-8.25083485677066e-11)
(1.78330078296408e-12,3.8569278524005e-11,-7.92036591365422e-11)
(-5.38281897664493e-13,6.52323782435412e-11,-7.36284554293666e-11)
(-3.661569457806e-12,1.12861975829714e-10,-6.62830136483638e-11)
(-9.54079533223352e-12,1.96592471605126e-10,-5.76888076220154e-11)
(-1.39211305046698e-11,3.35307039017746e-10,-4.67857894752223e-11)
(-1.59959649087168e-11,5.57010809615883e-10,-3.39603905182546e-11)
(-1.6370308097974e-11,8.6395899064326e-10,-1.82767091575907e-11)
(0,0,0)
(0,0,0)
(0,0,0)
(0,0,0)
(0,0,0)
(0,0,0)
(9.17214824602151e-13,4.75277322954735e-12,-1.32173482617796e-10)
(1.90487317956158e-12,1.03578778662671e-11,-1.32486624359127e-10)
(1.91578733086153e-12,1.88439996853584e-11,-1.31005793956538e-10)
(6.2292683505995e-13,3.18842829921687e-11,-1.27488860235183e-10)
(-1.29265074209605e-12,5.57707165999261e-11,-1.22299355816212e-10)
(-4.98266844193052e-12,1.01957671827687e-10,-1.15029649117592e-10)
(-1.00738289827041e-11,1.86407229008703e-10,-1.03793337740532e-10)
(-1.42459906732155e-11,3.23758526025249e-10,-8.70841636462936e-11)
(-1.70618526234509e-11,5.42847172496009e-10,-6.37099003577708e-11)
(-1.75665740102158e-11,8.47650028901739e-10,-3.39642290421015e-11)
(0,0,0)
(0,0,0)
(0,0,0)
(0,0,0)
(0,0,0)
(0,0,0)
(-1.55492410732728e-13,4.20001141396974e-12,-2.09294209226425e-10)
(-5.54084063376219e-13,8.08071635208908e-12,-2.09382408507514e-10)
(-1.2121909892582e-12,1.46127788744305e-11,-2.08221102213558e-10)
(-2.27552011754132e-12,2.559902391602e-11,-2.05387571470584e-10)
(-3.59656426718782e-12,4.6675618263296e-11,-2.00898632651574e-10)
(-6.10392824176074e-12,8.90304043207526e-11,-1.93370087226978e-10)
(-9.09321547778318e-12,1.70015322224372e-10,-1.77753404857991e-10)
(-1.31488109783212e-11,3.01543469815324e-10,-1.52863872336403e-10)
(-1.65173527390947e-11,5.13851437448981e-10,-1.14132512139711e-10)
(-1.63932255977899e-11,8.14293616635009e-10,-6.21651684434352e-11)
(0,0,0)
(0,0,0)
(0,0,0)
(0,0,0)
(0,0,0)
(0,0,0)
(-2.22008579857463e-12,3.58276153689763e-12,-3.38218428021394e-10)
(-3.45338935780441e-12,5.96937183351804e-12,-3.3836402836464e-10)
(-5.22155178132176e-12,1.0814002597094e-11,-3.3760758753223e-10)
(-5.94439084001564e-12,2.02249591233916e-11,-3.35411277219282e-10)
(-6.47834640072189e-12,3.87971422374188e-11,-3.30769297235454e-10)
(-7.0530491031431e-12,7.55422866717596e-11,-3.2181049810819e-10)
(-8.79977375658424e-12,1.45550784574683e-10,-3.02151320652165e-10)
(-1.27620279344179e-11,2.63094629687648e-10,-2.65226545619025e-10)
(-1.76920899821235e-11,4.61646824761661e-10,-2.04952766945281e-10)
(-1.77279531721396e-11,7.52168460673394e-10,-1.16318020484075e-10)
(0,0,0)
(0,0,0)
(0,0,0)
(0,0,0)
(0,0,0)
(0,0,0)
(-4.13928302972407e-12,2.34065919961073e-12,-5.5546163757856e-10)
(-5.68464441736898e-12,3.72995712110355e-12,-5.55865849282444e-10)
(-8.03787350597817e-12,7.37483572756846e-12,-5.55415985919949e-10)
(-7.89460867517582e-12,1.45165966421372e-11,-5.5308665669587e-10)
(-6.97247976840596e-12,2.88287771718784e-11,-5.47683511528772e-10)
(-7.88684439625444e-12,5.64326869342192e-11,-5.35658298651046e-10)
(-1.03647264948383e-11,1.09071523414697e-10,-5.1012374253737e-10)
(-1.34534170106949e-11,2.02773578581081e-10,-4.60799091706149e-10)
(-1.81433593125273e-11,3.72378556700291e-10,-3.72899756457209e-10)
(-1.9213322642077e-11,6.35767960837258e-10,-2.2461367556118e-10)
(0,0,0)
(0,0,0)
(0,0,0)
(0,0,0)
(0,0,0)
(0,0,0)
(-4.97173464741838e-12,1.15527338767252e-12,-8.62328446684173e-10)
(-7.5505718700643e-12,1.86090868749693e-12,-8.62476992056609e-10)
(-1.06149116514005e-11,3.92102498243245e-12,-8.62170789475113e-10)
(-1.05889331546999e-11,8.06053753043356e-12,-8.59814149286768e-10)
(-9.13573678471432e-12,1.58125264880402e-11,-8.53213658019735e-10)
(-9.7573970110537e-12,3.06714001195773e-11,-8.38451492197928e-10)
(-1.20622147643368e-11,5.97665227934385e-11,-8.08253651960608e-10)
(-1.38404658561235e-11,1.14829139452872e-10,-7.49095145560751e-10)
(-1.85245488014372e-11,2.23655854332959e-10,-6.34422389446029e-10)
(-2.05541560398004e-11,4.11020546843928e-10,-4.11108623057223e-10)
(0,0,0)
(0,0,0)
(0,0,0)
(0,0,0)
(0,0,0)
(0,0,0)
(0,0,0)
(0,0,0)
(0,0,0)
(0,0,0)
(0,0,0)
(0,0,0)
(0,0,0)
(0,0,0)
(0,0,0)
(0,0,0)
(0,0,0)
(0,0,0)
(0,0,0)
(0,0,0)
(0,0,0)
(0,0,0)
(0,0,0)
(0,0,0)
(0,0,0)
(0,0,0)
(0,0,0)
(0,0,0)
(0,0,0)
(0,0,0)
(0,0,0)
(0,0,0)
(0,0,0)
(0,0,0)
(0,0,0)
(0,0,0)
(0,0,0)
(0,0,0)
(0,0,0)
(0,0,0)
(0,0,0)
(0,0,0)
(0,0,0)
(0,0,0)
(0,0,0)
(0,0,0)
(0,0,0)
(0,0,0)
(0,0,0)
(0,0,0)
(0,0,0)
(0,0,0)
(0,0,0)
(0,0,0)
(0,0,0)
(0,0,0)
(0,0,0)
(0,0,0)
(0,0,0)
(0,0,0)
(0,0,0)
(0,0,0)
(0,0,0)
(0,0,0)
(0,0,0)
(0,0,0)
(0,0,0)
(0,0,0)
(0,0,0)
(0,0,0)
(0,0,0)
(0,0,0)
(0,0,0)
(0,0,0)
(0,0,0)
(0,0,0)
(0,0,0)
(0,0,0)
(0,0,0)
(0,0,0)
(0,0,0)
(0,0,0)
(0,0,0)
(0,0,0)
(0,0,0)
(0,0,0)
(0,0,0)
(0,0,0)
(0,0,0)
(0,0,0)
(0,0,0)
(0,0,0)
(0,0,0)
(0,0,0)
(0,0,0)
(0,0,0)
(0,0,0)
(0,0,0)
(0,0,0)
(0,0,0)
(0,0,0)
(0,0,0)
(-2.65807213896025e-13,1.95527761520178e-11,-1.87201449827474e-11)
(-3.9958678869141e-13,4.07793867065943e-11,-1.76331431546371e-11)
(-4.91265739021287e-13,6.54417515587034e-11,-1.55708542042367e-11)
(-4.4959891906481e-13,1.01469251781127e-10,-1.2533371941641e-11)
(-6.02830832120068e-13,1.55360713197177e-10,-8.38694669479624e-12)
(-1.48886619034098e-12,2.38378618480161e-10,-4.08339284051516e-12)
(-2.53694208329843e-12,3.71929393618833e-10,-7.11680110397491e-13)
(-2.63923213475775e-12,6.00549161045301e-10,1.11380057952876e-12)
(-3.23399185450462e-12,1.03931595661701e-09,1.23771468900511e-12)
(-3.40706934401781e-12,2.0497059396546e-09,4.74244596491717e-13)
(0,0,0)
(0,0,0)
(0,0,0)
(0,0,0)
(0,0,0)
(0,0,0)
(-1.16207256155574e-12,1.80463466469337e-11,-3.88316932889046e-11)
(-1.23478255000506e-12,3.78857891547439e-11,-3.71802277733845e-11)
(-6.09707107643964e-13,6.15931273853752e-11,-3.38244755709603e-11)
(-3.11702567609139e-13,9.70169651457932e-11,-2.83780791653948e-11)
(-6.28967061339595e-13,1.51520160975852e-10,-2.11147208148278e-11)
(-1.96415704092941e-12,2.35616248036211e-10,-1.23938923518543e-11)
(-4.19418402212174e-12,3.70779102988743e-10,-4.58540848052509e-12)
(-5.40791620289674e-12,6.01473060715436e-10,-8.45863962886024e-13)
(-6.60284087181389e-12,1.04125333716914e-09,2.45688116259362e-13)
(-7.45488002591171e-12,2.05145472751789e-09,-5.39734740873997e-14)
(0,0,0)
(0,0,0)
(0,0,0)
(0,0,0)
(0,0,0)
(0,0,0)
(-8.80270693482368e-13,1.57420732412444e-11,-6.55990002409853e-11)
(4.11357757617941e-14,3.33937566993684e-11,-6.34847993040121e-11)
(7.53787398592238e-13,5.52420664804071e-11,-5.94554522209606e-11)
(9.47186197613576e-13,8.93488828544304e-11,-5.26314476032805e-11)
(2.50441553230435e-13,1.43185185649194e-10,-4.20444794070542e-11)
(-1.51036673667768e-12,2.28373390917266e-10,-2.80303418802422e-11)
(-5.60027496363404e-12,3.67672539528159e-10,-1.45858558607024e-11)
(-9.50181124941962e-12,6.0233193059585e-10,-8.59726172023701e-12)
(-1.1385412033769e-11,1.04357888503239e-09,-5.68710376465122e-12)
(-1.21219984142681e-11,2.05355239523566e-09,-3.25777673428108e-12)
(0,0,0)
(0,0,0)
(0,0,0)
(0,0,0)
(0,0,0)
(0,0,0)
(5.87297248402764e-13,1.30186948584758e-11,-1.0226951612155e-10)
(2.78210277364329e-12,2.85575208780077e-11,-1.00178950959032e-10)
(3.31114519263684e-12,4.80428046160226e-11,-9.55522192390455e-11)
(2.38180370752175e-12,7.85780411245598e-11,-8.81535822614275e-11)
(1.03501419738285e-12,1.28935686880772e-10,-7.61215171050998e-11)
(-6.66522169276549e-13,2.14304890333982e-10,-5.93558519964341e-11)
(-6.16364287462794e-12,3.60483760129847e-10,-4.11023103606539e-11)
(-1.26510932522712e-11,6.01985823438089e-10,-3.0763061403044e-11)
(-1.53231179791193e-11,1.0441388265356e-09,-2.21439831591467e-11)
(-1.62011291788924e-11,2.05305681937881e-09,-1.20264724453876e-11)
(0,0,0)
(0,0,0)
(0,0,0)
(0,0,0)
(0,0,0)
(0,0,0)
(1.79142252399615e-12,1.00228672627042e-11,-1.55178845633198e-10)
(3.69215423390098e-12,2.31321505806307e-11,-1.53782043138943e-10)
(3.75312886102144e-12,4.01460066552553e-11,-1.49586885085885e-10)
(2.89309260763049e-12,6.56187838324705e-11,-1.42768691301549e-10)
(1.5779379649719e-12,1.09913168656264e-10,-1.31936678025116e-10)
(-1.35147148217191e-12,1.9159275612628e-10,-1.17815493070592e-10)
(-1.02585708825579e-11,3.42727358779128e-10,-1.04191633122665e-10)
(-1.51980164690807e-11,5.95889982242086e-10,-8.09996070076442e-11)
(-1.75160091494487e-11,1.03741610843002e-09,-5.68220111092779e-11)
(-1.8338055514361e-11,2.04369410324366e-09,-2.98426670485706e-11)
(0,0,0)
(0,0,0)
(0,0,0)
(0,0,0)
(0,0,0)
(0,0,0)
(1.78311838151032e-12,7.46975336924971e-12,-2.37062472500568e-10)
(2.70120429115135e-12,1.76863808325825e-11,-2.3631754730297e-10)
(2.63007442043489e-12,3.18122734129737e-11,-2.33053500934667e-10)
(1.71868149223416e-12,5.22199466065104e-11,-2.27175069207678e-10)
(5.32740895919989e-13,9.04585604038754e-11,-2.18397167681711e-10)
(-3.29171231205084e-12,1.68670332034103e-10,-2.05486110239314e-10)
(-1.03910962926221e-11,3.2708475908017e-10,-1.87412236999788e-10)
(-1.54051977518123e-11,5.78408309230295e-10,-1.56221553494411e-10)
(-1.78117888920441e-11,1.01436401819405e-09,-1.12493728123214e-10)
(-1.817439078528e-11,2.01621446067773e-09,-5.93287634831091e-11)
(0,0,0)
(0,0,0)
(0,0,0)
(0,0,0)
(0,0,0)
(0,0,0)
(5.4995674742882e-13,5.75118329500095e-12,-3.66370891920499e-10)
(3.95954161238042e-13,1.29172154405316e-11,-3.65907854290967e-10)
(-2.46945454895783e-13,2.36463514141522e-11,-3.63851155897574e-10)
(-1.39039414392354e-12,3.99284959261677e-11,-3.6016930077382e-10)
(-3.24663366590109e-12,7.19623315594512e-11,-3.54640760897688e-10)
(-8.23249296173606e-12,1.41536776623639e-10,-3.43831291500697e-10)
(-9.51821034972069e-12,2.97837744591755e-10,-3.14453708764282e-10)
(-1.3431331047292e-11,5.39162339395528e-10,-2.75316400487861e-10)
(-1.62800837483686e-11,9.63828628184003e-10,-2.03558172244259e-10)
(-1.64332380792448e-11,1.95842153704924e-09,-1.09810939200183e-10)
(0,0,0)
(0,0,0)
(0,0,0)
(0,0,0)
(0,0,0)
(0,0,0)
(-8.32383118041896e-13,4.23773641699108e-12,-5.8905896315488e-10)
(-1.97041547779967e-12,8.87778199678049e-12,-5.88981386139406e-10)
(-3.9786952247427e-12,1.72851486043579e-11,-5.87933083554479e-10)
(-4.87800834258907e-12,3.17863927304997e-11,-5.85407384654449e-10)
(-5.46878046246462e-12,6.1650751338929e-11,-5.80125605453517e-10)
(-7.60262682161856e-12,1.25616238571971e-10,-5.68250554881865e-10)
(-9.2452876297395e-12,2.57916795499156e-10,-5.373869731664e-10)
(-1.27147555016995e-11,4.6791146358673e-10,-4.71901141321174e-10)
(-1.70585683818258e-11,8.70680582143627e-10,-3.63688271049906e-10)
(-1.76454738205015e-11,1.84940816741146e-09,-2.07050681950579e-10)
(0,0,0)
(0,0,0)
(0,0,0)
(0,0,0)
(0,0,0)
(0,0,0)
(-2.54968551390147e-12,2.62539247993283e-12,-1.02409968987928e-09)
(-4.26545934625602e-12,5.49467357912479e-12,-1.02460381762696e-09)
(-6.91339198491973e-12,1.17993215990526e-11,-1.02419311525389e-09)
(-6.84169473056881e-12,2.33966282711635e-11,-1.02126822133168e-09)
(-5.98144196228381e-12,4.75915008980792e-11,-1.01375152582359e-09)
(-7.66011369530418e-12,9.65381334038266e-11,-9.95647935612129e-10)
(-1.03843767047972e-11,1.92319673639667e-10,-9.53878428409179e-10)
(-1.34083131314308e-11,3.59399689087814e-10,-8.67352559842642e-10)
(-1.77067378412853e-11,7.13481848877778e-10,-7.12985326459886e-10)
(-1.90795842096588e-11,1.64232962356432e-09,-4.46256497331788e-10)
(0,0,0)
(0,0,0)
(0,0,0)
(0,0,0)
(0,0,0)
(0,0,0)
(-3.66791588730933e-12,1.12942822826421e-12,-2.03183848791435e-09)
(-5.99586576406438e-12,2.60309585538892e-12,-2.03276557976025e-09)
(-9.05052685731351e-12,6.06077472193326e-12,-2.03279501461223e-09)
(-9.12888689129897e-12,1.29093925381284e-11,-2.02951590316127e-09)
(-8.08537611848334e-12,2.64090522585726e-11,-2.01946462740107e-09)
(-9.28383712880122e-12,5.28875859872214e-11,-1.99636826774086e-09)
(-1.14541983707615e-11,1.0485997055326e-10,-1.94603487572972e-09)
(-1.36840825179651e-11,2.04689586206783e-10,-1.84264847268996e-09)
(-1.81824608572856e-11,4.46110911411452e-10,-1.63847721806921e-09)
(-2.06422322530527e-11,1.1953102347384e-09,-1.19358900299687e-09)
(0,0,0)
(0,0,0)
(0,0,0)
(0,0,0)
(0,0,0)
(0,0,0)
(0,0,0)
(0,0,0)
(0,0,0)
(0,0,0)
(0,0,0)
(0,0,0)
(0,0,0)
(0,0,0)
(0,0,0)
(0,0,0)
(0,0,0)
(0,0,0)
(0,0,0)
(0,0,0)
(0,0,0)
(0,0,0)
(0,0,0)
(0,0,0)
(0,0,0)
(0,0,0)
(0,0,0)
(0,0,0)
(0,0,0)
(0,0,0)
(0,0,0)
(0,0,0)
(0,0,0)
(0,0,0)
(0,0,0)
(0,0,0)
(0,0,0)
(0,0,0)
(0,0,0)
(0,0,0)
(0,0,0)
(0,0,0)
(0,0,0)
(0,0,0)
(0,0,0)
(0,0,0)
(0,0,0)
(0,0,0)
(0,0,0)
(0,0,0)
(0,0,0)
(0,0,0)
(0,0,0)
(0,0,0)
(0,0,0)
(0,0,0)
(0,0,0)
(0,0,0)
(0,0,0)
(0,0,0)
(0,0,0)
(0,0,0)
(0,0,0)
(0,0,0)
(0,0,0)
(0,0,0)
(0,0,0)
(0,0,0)
(0,0,0)
(0,0,0)
(0,0,0)
(0,0,0)
(0,0,0)
(0,0,0)
(0,0,0)
(0,0,0)
(0,0,0)
(0,0,0)
(0,0,0)
(0,0,0)
(0,0,0)
(0,0,0)
(0,0,0)
(0,0,0)
(0,0,0)
(0,0,0)
(0,0,0)
(0,0,0)
(0,0,0)
(0,0,0)
(0,0,0)
(0,0,0)
(0,0,0)
(0,0,0)
(0,0,0)
(0,0,0)
(0,0,0)
(0,0,0)
(0,0,0)
(0,0,0)
(0,0,0)
(0,0,0)
(1.53620463202643e-13,2.59474573753895e-11,-2.60787731173474e-11)
(4.31721812281233e-13,5.45747396730293e-11,-2.47064294674989e-11)
(3.19876172131316e-13,8.72279822302197e-11,-2.17391852331579e-11)
(-1.43737530110025e-13,1.31920606048595e-10,-1.70434229756362e-11)
(-1.06583246556422e-12,1.98353870992929e-10,-1.07117858037832e-11)
(-2.09820847625178e-12,2.96213193782389e-10,-3.31737258079419e-12)
(-3.21213214355252e-12,4.40417360944759e-10,2.84137260245339e-12)
(-3.6870459143919e-12,6.49093335071198e-10,4.94458357161609e-12)
(-4.40790231422275e-12,9.48013134938231e-10,3.97135573956468e-12)
(-4.68161261057062e-12,1.31548844725517e-09,1.98360125077541e-12)
(0,0,0)
(0,0,0)
(0,0,0)
(0,0,0)
(0,0,0)
(0,0,0)
(-5.09264671038585e-13,2.43372152263122e-11,-5.41173410813374e-11)
(-9.85022977262547e-14,5.1250592519848e-11,-5.19075508496013e-11)
(2.94957391387194e-13,8.21607869997906e-11,-4.65196098300842e-11)
(9.30213734281677e-14,1.25624537492793e-10,-3.7569117036193e-11)
(-1.01482019713226e-12,1.91669426159801e-10,-2.52274953824726e-11)
(-2.52978379328982e-12,2.91183167578992e-10,-9.70740640988722e-12)
(-4.82716508053932e-12,4.3950060216183e-10,4.94946572458017e-12)
(-7.35833816074712e-12,6.51735240553918e-10,8.58884763772923e-12)
(-8.62872714528853e-12,9.51610028510783e-10,6.24243261232662e-12)
(-9.60652121745088e-12,1.31874222672261e-09,2.7047674314253e-12)
(0,0,0)
(0,0,0)
(0,0,0)
(0,0,0)
(0,0,0)
(0,0,0)
(-2.71093248305086e-13,2.12390207371437e-11,-8.93616776607231e-11)
(8.48024514761044e-13,4.51512394940455e-11,-8.64633683569577e-11)
(1.12904464548722e-12,7.30150601427806e-11,-7.93259893756155e-11)
(1.13105973108514e-12,1.13906104877965e-10,-6.7478642871792e-11)
(4.85802794732488e-13,1.77627809918528e-10,-4.89988361836845e-11)
(-8.86352173389397e-13,2.78841900468172e-10,-2.27645350954129e-11)
(-4.40008970472498e-12,4.38201344650273e-10,6.19230005609432e-12)
(-1.20658620477061e-11,6.58200426178029e-10,8.73875882729176e-12)
(-1.43746805670833e-11,9.58806564871559e-10,3.47734877161901e-12)
(-1.48841992921754e-11,1.32429655233414e-09,2.07198730288159e-13)
(0,0,0)
(0,0,0)
(0,0,0)
(0,0,0)
(0,0,0)
(0,0,0)
(1.49255968111914e-12,1.71010240328719e-11,-1.3609415580022e-10)
(3.58074135168663e-12,3.73781586783955e-11,-1.32631685322139e-10)
(3.80930617546532e-12,6.12554626610135e-11,-1.24822353724137e-10)
(3.30899584299871e-12,9.62734394672638e-11,-1.12095754551328e-10)
(3.29186731374207e-12,1.52813315574444e-10,-9.0540451092736e-11)
(3.79207040273922e-12,2.51911435630499e-10,-5.62307242274898e-11)
(1.25350951833654e-12,4.33537877045049e-10,-9.22158647421545e-12)
(-1.51743303005798e-11,6.6971160552977e-10,-1.01211567708101e-11)
(-1.87179105869432e-11,9.67564747814661e-10,-1.39048521972351e-11)
(-1.88648854889399e-11,1.32860415429031e-09,-9.67737587014225e-12)
(0,0,0)
(0,0,0)
(0,0,0)
(0,0,0)
(0,0,0)
(0,0,0)
(2.94773392368314e-12,1.27282065451658e-11,-2.01106078667098e-10)
(4.94276592884152e-12,2.907764293257e-11,-1.98019222111118e-10)
(5.26866831864634e-12,4.82388529119903e-11,-1.9113101654568e-10)
(5.45991655675023e-12,7.43223045263933e-11,-1.79868621207422e-10)
(6.9113612638373e-12,1.17066149475862e-10,-1.61556614834798e-10)
(7.94709266149516e-12,1.97708082623241e-10,-1.38293498752351e-10)
(-1.78079972985824e-11,3.85050611138209e-10,-1.40386112745581e-10)
(-2.18939393562008e-11,6.81646993820885e-10,-9.23841471269408e-11)
(-2.14432629730336e-11,9.70896524625887e-10,-6.37398352212762e-11)
(-2.07010799975563e-11,1.32341459038884e-09,-3.3693106093442e-11)
(0,0,0)
(0,0,0)
(0,0,0)
(0,0,0)
(0,0,0)
(0,0,0)
(2.75676325822336e-12,9.0387433557122e-12,-2.94407781284471e-10)
(4.20632331492755e-12,2.13013021624129e-11,-2.92587092670312e-10)
(4.91756469193003e-12,3.55467296977004e-11,-2.8770809889057e-10)
(5.23223064747504e-12,5.29119690293854e-11,-2.79418545043533e-10)
(6.11791229725034e-12,8.3515323884332e-11,-2.66868280924623e-10)
(5.76796985901379e-12,1.56763028521229e-10,-2.49694172575549e-10)
(-1.23347653093481e-11,3.88163020677485e-10,-2.42754937383269e-10)
(-1.98870532888563e-11,6.71552155563718e-10,-1.9644683400101e-10)
(-2.04413635218161e-11,9.48741806139804e-10,-1.37705473259907e-10)
(-1.97102306400642e-11,1.29336118449905e-09,-7.13633116916815e-11)
(0,0,0)
(0,0,0)
(0,0,0)
(0,0,0)
(0,0,0)
(0,0,0)
(1.60036599620176e-12,6.23111479270018e-12,-4.29486215494243e-10)
(2.3786892119478e-12,1.47321408759122e-11,-4.28932812195601e-10)
(2.43240223054514e-12,2.46041560364422e-11,-4.26523481623353e-10)
(1.22316917605993e-12,3.48272597520063e-11,-4.23351192662678e-10)
(-3.74452284238301e-12,5.13002093436616e-11,-4.22625549182357e-10)
(-2.16895376466513e-11,9.58641060113436e-11,-4.2559457930619e-10)
(-8.7345695333196e-12,3.51804304496677e-10,-3.66260695687617e-10)
(-1.39386834823674e-11,6.26138368583504e-10,-3.55080538888641e-10)
(-1.68792707517945e-11,8.87779320345112e-10,-2.47373142782908e-10)
(-1.72308076416419e-11,1.22416753066678e-09,-1.27700962146995e-10)
(0,0,0)
(0,0,0)
(0,0,0)
(0,0,0)
(0,0,0)
(0,0,0)
(7.02383803757228e-13,4.05418624219958e-12,-6.29916468877192e-10)
(3.64390354693316e-13,9.68927407202455e-12,-6.29995771650991e-10)
(-1.01856711982278e-12,1.7681591536489e-11,-6.29108577552904e-10)
(-1.77002308347951e-12,2.82671147325757e-11,-6.28063568682932e-10)
(-3.28458059365676e-12,5.21307590688833e-11,-6.29150717428584e-10)
(-9.3881033690429e-12,1.20254987876096e-10,-6.3168418481684e-10)
(-9.13399761483909e-12,3.19912267123093e-10,-6.15788163850467e-10)
(-1.24158512751365e-11,5.18143312453001e-10,-5.24652595547629e-10)
(-1.64974242151079e-11,7.68589570637405e-10,-3.83000364571008e-10)
(-1.7617611923628e-11,1.09679027758759e-09,-2.0692797518988e-10)
(0,0,0)
(0,0,0)
(0,0,0)
(0,0,0)
(0,0,0)
(0,0,0)
(-5.4959351500699e-13,2.5444900267459e-12,-9.24225936957785e-10)
(-1.78458399571686e-12,6.18685992213216e-12,-9.24534266493392e-10)
(-4.09973902987352e-12,1.26036905938715e-11,-9.24119211852192e-10)
(-3.87115450578415e-12,2.29849400804489e-11,-9.22340689013077e-10)
(-2.90258353356279e-12,4.70152544350162e-11,-9.18320640978155e-10)
(-5.77907348160628e-12,1.04348325502355e-10,-9.05720418412163e-10)
(-9.4505421851714e-12,2.26014208956326e-10,-8.6611770480816e-10)
(-1.30654436334795e-11,3.7596062886311e-10,-7.61429213276859e-10)
(-1.70646295028114e-11,5.91351338681057e-10,-5.89949178025103e-10)
(-1.83166927156709e-11,8.88688384142013e-10,-3.39273486859264e-10)
(0,0,0)
(0,0,0)
(0,0,0)
(0,0,0)
(0,0,0)
(0,0,0)
(-1.61139581350218e-12,1.27250898482986e-12,-1.28888255254792e-09)
(-3.36333505713874e-12,3.2022257821838e-12,-1.28974219845458e-09)
(-6.26886358588913e-12,6.95904376200746e-12,-1.2894272493686e-09)
(-6.27077011401611e-12,1.36922907431156e-11,-1.28654294422883e-09)
(-4.77268351958762e-12,2.81811031069835e-11,-1.27774014359109e-09)
(-6.72964315317743e-12,5.92604174367987e-11,-1.25497965914272e-09)