/*--------------------------------*- C++ -*----------------------------------*\
| =========                 |                                                 |
| \\      /  F ield         | foam-extend: Open Source CFD                    |
|  \\    /   O peration     | Version:     4.0                                |
|   \\  /    A nd           | Web:         http://www.foam-extend.org         |
|    \\/     M anipulation  |                                                 |
\*---------------------------------------------------------------------------*/
FoamFile
{
    version 2.0;
    format ascii;
    class volVectorField;
    location "2100";
    object      H;
}
// * * * * * * * * * * * * * * * * * * * * * * * * * * * * * * * * * * * * * //

dimensions      [0 1 -1 0 0 0 0];

internalField   nonuniform List<vector>
4096
(
(0,0,0)
(0,0,0)
(0,0,0)
(0,0,0)
(0,0,0)
(0,0,0)
(0,0,0)
(0,0,0)
(0,0,0)
(0,0,0)
(0,0,0)
(0,0,0)
(0,0,0)
(0,0,0)
(0,0,0)
(0,0,0)
(0,0,0)
(0,0,0)
(0,0,0)
(0,0,0)
(0,0,0)
(0,0,0)
(0,0,0)
(0,0,0)
(0,0,0)
(0,0,0)
(0,0,0)
(0,0,0)
(0,0,0)
(0,0,0)
(0,0,0)
(0,0,0)
(0,0,0)
(0,0,0)
(0,0,0)
(0,0,0)
(0,0,0)
(0,0,0)
(0,0,0)
(0,0,0)
(0,0,0)
(0,0,0)
(0,0,0)
(0,0,0)
(0,0,0)
(0,0,0)
(0,0,0)
(0,0,0)
(0,0,0)
(0,0,0)
(0,0,0)
(0,0,0)
(0,0,0)
(0,0,0)
(0,0,0)
(0,0,0)
(0,0,0)
(0,0,0)
(0,0,0)
(0,0,0)
(0,0,0)
(0,0,0)
(0,0,0)
(0,0,0)
(0,0,0)
(0,0,0)
(0,0,0)
(0,0,0)
(0,0,0)
(0,0,0)
(0,0,0)
(0,0,0)
(0,0,0)
(0,0,0)
(0,0,0)
(0,0,0)
(0,0,0)
(0,0,0)
(0,0,0)
(0,0,0)
(0,0,0)
(0,0,0)
(0,0,0)
(0,0,0)
(0,0,0)
(0,0,0)
(0,0,0)
(0,0,0)
(0,0,0)
(0,0,0)
(0,0,0)
(0,0,0)
(0,0,0)
(0,0,0)
(0,0,0)
(0,0,0)
(0,0,0)
(0,0,0)
(0,0,0)
(0,0,0)
(0,0,0)
(0,0,0)
(0,0,0)
(0,0,0)
(0,0,0)
(0,0,0)
(0,0,0)
(0,0,0)
(0,0,0)
(0,0,0)
(0,0,0)
(0,0,0)
(0,0,0)
(0,0,0)
(0,0,0)
(0,0,0)
(0,0,0)
(0,0,0)
(0,0,0)
(0,0,0)
(0,0,0)
(0,0,0)
(0,0,0)
(0,0,0)
(0,0,0)
(0,0,0)
(0,0,0)
(0,0,0)
(0,0,0)
(0,0,0)
(0,0,0)
(0,0,0)
(0,0,0)
(0,0,0)
(0,0,0)
(0,0,0)
(0,0,0)
(0,0,0)
(0,0,0)
(0,0,0)
(0,0,0)
(0,0,0)
(0,0,0)
(0,0,0)
(0,0,0)
(0,0,0)
(0,0,0)
(0,0,0)
(0,0,0)
(0,0,0)
(0,0,0)
(0,0,0)
(0,0,0)
(0,0,0)
(0,0,0)
(0,0,0)
(0,0,0)
(0,0,0)
(0,0,0)
(0,0,0)
(0,0,0)
(0,0,0)
(0,0,0)
(0,0,0)
(0,0,0)
(0,0,0)
(0,0,0)
(0,0,0)
(0,0,0)
(0,0,0)
(0,0,0)
(0,0,0)
(0,0,0)
(0,0,0)
(0,0,0)
(0,0,0)
(0,0,0)
(0,0,0)
(0,0,0)
(0,0,0)
(0,0,0)
(0,0,0)
(0,0,0)
(0,0,0)
(0,0,0)
(0,0,0)
(0,0,0)
(0,0,0)
(0,0,0)
(0,0,0)
(0,0,0)
(0,0,0)
(0,0,0)
(0,0,0)
(0,0,0)
(0,0,0)
(0,0,0)
(0,0,0)
(0,0,0)
(0,0,0)
(0,0,0)
(0,0,0)
(0,0,0)
(0,0,0)
(0,0,0)
(0,0,0)
(0,0,0)
(0,0,0)
(0,0,0)
(0,0,0)
(0,0,0)
(0,0,0)
(0,0,0)
(0,0,0)
(0,0,0)
(0,0,0)
(0,0,0)
(0,0,0)
(0,0,0)
(0,0,0)
(0,0,0)
(0,0,0)
(0,0,0)
(0,0,0)
(0,0,0)
(0,0,0)
(0,0,0)
(0,0,0)
(0,0,0)
(0,0,0)
(0,0,0)
(0,0,0)
(0,0,0)
(0,0,0)
(0,0,0)
(0,0,0)
(0,0,0)
(0,0,0)
(0,0,0)
(0,0,0)
(0,0,0)
(0,0,0)
(0,0,0)
(0,0,0)
(0,0,0)
(0,0,0)
(0,0,0)
(0,0,0)
(0,0,0)
(0,0,0)
(0,0,0)
(0,0,0)
(0,0,0)
(0,0,0)
(0,0,0)
(0,0,0)
(0,0,0)
(0,0,0)
(0,0,0)
(0,0,0)
(0,0,0)
(0,0,0)
(0,0,0)
(0,0,0)
(0,0,0)
(0,0,0)
(0,0,0)
(0,0,0)
(0,0,0)
(0,0,0)
(0,0,0)
(0,0,0)
(0,0,0)
(0,0,0)
(0,0,0)
(0,0,0)
(0,0,0)
(0,0,0)
(0,0,0)
(0,0,0)
(0,0,0)
(0,0,0)
(0,0,0)
(0,0,0)
(0,0,0)
(0,0,0)
(0,0,0)
(0,0,0)
(0,0,0)
(0,0,0)
(0,0,0)
(0,0,0)
(0,0,0)
(0,0,0)
(0,0,0)
(0,0,0)
(0,0,0)
(0,0,0)
(0,0,0)
(0,0,0)
(0,0,0)
(0,0,0)
(0,0,0)
(0,0,0)
(0,0,0)
(0,0,0)
(0,0,0)
(0,0,0)
(0,0,0)
(0,0,0)
(0,0,0)
(0,0,0)
(0,0,0)
(0,0,0)
(0,0,0)
(0,0,0)
(0,0,0)
(0,0,0)
(0,0,0)
(0,0,0)
(0,0,0)
(0,0,0)
(0,0,0)
(0,0,0)
(0,0,0)
(0,0,0)
(0,0,0)
(0,0,0)
(0,0,0)
(0,0,0)
(0,0,0)
(0,0,0)
(0,0,0)
(0,0,0)
(0,0,0)
(0,0,0)
(0,0,0)
(0,0,0)
(0,0,0)
(0,0,0)
(0,0,0)
(0,0,0)
(0,0,0)
(0,0,0)
(0,0,0)
(0,0,0)
(0,0,0)
(0,0,0)
(0,0,0)
(0,0,0)
(0,0,0)
(0,0,0)
(0,0,0)
(0,0,0)
(0,0,0)
(0,0,0)
(0,0,0)
(0,0,0)
(0,0,0)
(0,0,0)
(0,0,0)
(0,0,0)
(0,0,0)
(0,0,0)
(0,0,0)
(0,0,0)
(0,0,0)
(0,0,0)
(0,0,0)
(0,0,0)
(0,0,0)
(0,0,0)
(0,0,0)
(0,0,0)
(0,0,0)
(0,0,0)
(0,0,0)
(0,0,0)
(0,0,0)
(0,0,0)
(0,0,0)
(0,0,0)
(0,0,0)
(0,0,0)
(0,0,0)
(0,0,0)
(0,0,0)
(0,0,0)
(0,0,0)
(0,0,0)
(0,0,0)
(0,0,0)
(0,0,0)
(0,0,0)
(0,0,0)
(0,0,0)
(0,0,0)
(0,0,0)
(0,0,0)
(0,0,0)
(0,0,0)
(0,0,0)
(0,0,0)
(0,0,0)
(0,0,0)
(0,0,0)
(0,0,0)
(0,0,0)
(0,0,0)
(0,0,0)
(0,0,0)
(0,0,0)
(0,0,0)
(0,0,0)
(0,0,0)
(0,0,0)
(0,0,0)
(0,0,0)
(0,0,0)
(0,0,0)
(0,0,0)
(0,0,0)
(0,0,0)
(0,0,0)
(0,0,0)
(0,0,0)
(0,0,0)
(0,0,0)
(0,0,0)
(0,0,0)
(0,0,0)
(0,0,0)
(0,0,0)
(0,0,0)
(0,0,0)
(0,0,0)
(0,0,0)
(0,0,0)
(0,0,0)
(0,0,0)
(0,0,0)
(0,0,0)
(0,0,0)
(0,0,0)
(0,0,0)
(0,0,0)
(0,0,0)
(0,0,0)
(0,0,0)
(0,0,0)
(0,0,0)
(0,0,0)
(0,0,0)
(0,0,0)
(0,0,0)
(0,0,0)
(0,0,0)
(0,0,0)
(0,0,0)
(0,0,0)
(0,0,0)
(0,0,0)
(0,0,0)
(0,0,0)
(0,0,0)
(0,0,0)
(0,0,0)
(0,0,0)
(0,0,0)
(0,0,0)
(0,0,0)
(0,0,0)
(0,0,0)
(0,0,0)
(0,0,0)
(0,0,0)
(0,0,0)
(0,0,0)
(0,0,0)
(0,0,0)
(0,0,0)
(0,0,0)
(0,0,0)
(0,0,0)
(0,0,0)
(0,0,0)
(0,0,0)
(0,0,0)
(0,0,0)
(0,0,0)
(0,0,0)
(0,0,0)
(0,0,0)
(0,0,0)
(0,0,0)
(0,0,0)
(0,0,0)
(0,0,0)
(0,0,0)
(0,0,0)
(0,0,0)
(0,0,0)
(0,0,0)
(0,0,0)
(0,0,0)
(0,0,0)
(0,0,0)
(0,0,0)
(0,0,0)
(0,0,0)
(0,0,0)
(0,0,0)
(0,0,0)
(0,0,0)
(0,0,0)
(0,0,0)
(0,0,0)
(0,0,0)
(0,0,0)
(0,0,0)
(0,0,0)
(0,0,0)
(0,0,0)
(0,0,0)
(0,0,0)
(0,0,0)
(0,0,0)
(0,0,0)
(0,0,0)
(0,0,0)
(0,0,0)
(0,0,0)
(0,0,0)
(0,0,0)
(0,0,0)
(0,0,0)
(0,0,0)
(0,0,0)
(0,0,0)
(0,0,0)
(0,0,0)
(0,0,0)
(0,0,0)
(0,0,0)
(0,0,0)
(0,0,0)
(0,0,0)
(0,0,0)
(0,0,0)
(0,0,0)
(0,0,0)
(0,0,0)
(0,0,0)
(0,0,0)
(0,0,0)
(0,0,0)
(0,0,0)
(0,0,0)
(0,0,0)
(0,0,0)
(0,0,0)
(0,0,0)
(0,0,0)
(0,0,0)
(0,0,0)
(0,0,0)
(0,0,0)
(0,0,0)
(0,0,0)
(0,0,0)
(0,0,0)
(0,0,0)
(0,0,0)
(0,0,0)
(0,0,0)
(0,0,0)
(0,0,0)
(0,0,0)
(0,0,0)
(0,0,0)
(0,0,0)
(0,0,0)
(0,0,0)
(0,0,0)
(0,0,0)
(0,0,0)
(0,0,0)
(0,0,0)
(0,0,0)
(0,0,0)
(0,0,0)
(0,0,0)
(0,0,0)
(0,0,0)
(0,0,0)
(0,0,0)
(0,0,0)
(0,0,0)
(0,0,0)
(0,0,0)
(0,0,0)
(0,0,0)
(0,0,0)
(0,0,0)
(0,0,0)
(0,0,0)
(0,0,0)
(0,0,0)
(0,0,0)
(0,0,0)
(0,0,0)
(0,0,0)
(0,0,0)
(0,0,0)
(0,0,0)
(0,0,0)
(0,0,0)
(0,0,0)
(0,0,0)
(0,0,0)
(0,0,0)
(0,0,0)
(0,0,0)
(0,0,0)
(0,0,0)
(0,0,0)
(0,0,0)
(0,0,0)
(0,0,0)
(0,0,0)
(0,0,0)
(0,0,0)
(0,0,0)
(0,0,0)
(0,0,0)
(0,0,0)
(0,0,0)
(0,0,0)
(0,0,0)
(0,0,0)
(0,0,0)
(0,0,0)
(0,0,0)
(0,0,0)
(0,0,0)
(0,0,0)
(0,0,0)
(0,0,0)
(0,0,0)
(0,0,0)
(0,0,0)
(0,0,0)
(0,0,0)
(0,0,0)
(0,0,0)
(0,0,0)
(0,0,0)
(0,0,0)
(0,0,0)
(0,0,0)
(0,0,0)
(0,0,0)
(0,0,0)
(0,0,0)
(0,0,0)
(0,0,0)
(0,0,0)
(0,0,0)
(0,0,0)
(0,0,0)
(0,0,0)
(0,0,0)
(0,0,0)
(0,0,0)
(0,0,0)
(0,0,0)
(0,0,0)
(0,0,0)
(0,0,0)
(0,0,0)
(0,0,0)
(0,0,0)
(0,0,0)
(0,0,0)
(0,0,0)
(0,0,0)
(0,0,0)
(0,0,0)
(0,0,0)
(0,0,0)
(0,0,0)
(0,0,0)
(0,0,0)
(0,0,0)
(0,0,0)
(0,0,0)
(0,0,0)
(0,0,0)
(0,0,0)
(0,0,0)
(0,0,0)
(0,0,0)
(0,0,0)
(0,0,0)
(0,0,0)
(0,0,0)
(0,0,0)
(0,0,0)
(0,0,0)
(0,0,0)
(0,0,0)
(0,0,0)
(0,0,0)
(0,0,0)
(0,0,0)
(0,0,0)
(0,0,0)
(0,0,0)
(0,0,0)
(0,0,0)
(0,0,0)
(0,0,0)
(0,0,0)
(0,0,0)
(0,0,0)
(0,0,0)
(0,0,0)
(0,0,0)
(0,0,0)
(0,0,0)
(0,0,0)
(0,0,0)
(0,0,0)
(0,0,0)
(0,0,0)
(0,0,0)
(0,0,0)
(0,0,0)
(0,0,0)
(0,0,0)
(0,0,0)
(0,0,0)
(0,0,0)
(0,0,0)
(0,0,0)
(0,0,0)
(0,0,0)
(0,0,0)
(0,0,0)
(0,0,0)
(0,0,0)
(0,0,0)
(0,0,0)
(0,0,0)
(0,0,0)
(0,0,0)
(0,0,0)
(0,0,0)
(0,0,0)
(0,0,0)
(0,0,0)
(0,0,0)
(0,0,0)
(0,0,0)
(0,0,0)
(0,0,0)
(0,0,0)
(0,0,0)
(0,0,0)
(0,0,0)
(0,0,0)
(0,0,0)
(0,0,0)
(0,0,0)
(0,0,0)
(0,0,0)
(0,0,0)
(0,0,0)
(0,0,0)
(0,0,0)
(0,0,0)
(0,0,0)
(0,0,0)
(0,0,0)
(0,0,0)
(0,0,0)
(0,0,0)
(0,0,0)
(0,0,0)
(0,0,0)
(0,0,0)
(0,0,0)
(0,0,0)
(0,0,0)
(0,0,0)
(0,0,0)
(0,0,0)
(0,0,0)
(0,0,0)
(0,0,0)
(0,0,0)
(0,0,0)
(0,0,0)
(0,0,0)
(0,0,0)
(0,0,0)
(0,0,0)
(0,0,0)
(0,0,0)
(0,0,0)
(0,0,0)
(0,0,0)
(0,0,0)
(0,0,0)
(0,0,0)
(0,0,0)
(0,0,0)
(0,0,0)
(0,0,0)
(-1.15257438890284e-12,4.00182423462914e-13,-3.5063150781007e-14)
(-1.92491303609456e-12,2.40911075027307e-12,7.33003910872807e-14)
(-1.95664080519098e-12,5.59633750094731e-12,-3.09844709432825e-13)
(-9.7101059138422e-13,8.92813707887378e-12,-5.32991003345449e-13)
(3.67806521167219e-13,1.47454027859439e-11,-6.52334384197918e-13)
(9.57737678780034e-13,2.42577668923005e-11,-2.0764238475402e-13)
(6.49709298404626e-13,4.05517749069172e-11,-1.02777632325346e-13)
(2.18095548049805e-13,6.71599194226714e-11,-1.43783423596304e-13)
(1.31083315432712e-13,1.09752616063698e-10,-3.36269018171324e-13)
(5.76458815706805e-13,1.68441192271406e-10,-3.41596975278489e-13)
(0,0,0)
(0,0,0)
(0,0,0)
(0,0,0)
(0,0,0)
(0,0,0)
(-1.53236236855245e-12,2.49284321761639e-13,-1.35453935128059e-12)
(-2.81110103255736e-12,2.44465723196733e-12,-1.38562283299176e-12)
(-2.95912334854776e-12,5.34931907082614e-12,-2.18737510475815e-12)
(-1.4171686859866e-12,8.75854259918807e-12,-2.85338787179701e-12)
(4.26522624772342e-13,1.45156271791822e-11,-3.20850752556895e-12)
(1.91059644212833e-12,2.3772525625819e-11,-2.57811425359615e-12)
(3.03753438421406e-12,3.94916928175812e-11,-2.20882255031299e-12)
(2.93112592156255e-12,6.64519477932963e-11,-2.31814314822485e-12)
(2.95456860704269e-12,1.09044927493014e-10,-1.9793852339204e-12)
(3.56421853203547e-12,1.67986260404019e-10,-1.16099652934627e-12)
(0,0,0)
(0,0,0)
(0,0,0)
(0,0,0)
(0,0,0)
(0,0,0)
(-1.55370629348272e-12,5.62287166824281e-13,-4.57900443540872e-12)
(-2.43268537584473e-12,2.86070772509253e-12,-5.01760166977867e-12)
(-2.26554531745514e-12,5.30654314663563e-12,-5.90642074781059e-12)
(-4.26635905313637e-13,8.56993490047096e-12,-6.16574757187178e-12)
(1.24855696401779e-12,1.38120033928648e-11,-6.20899702316445e-12)
(3.09768514367705e-12,2.28551869015473e-11,-5.65854370217378e-12)
(5.15273063949266e-12,3.8538904613047e-11,-4.96405254555713e-12)
(6.43746880271244e-12,6.54037461838119e-11,-4.84285133837351e-12)
(7.46231164367387e-12,1.07802498383821e-10,-3.52427944456293e-12)
(7.2156768074828e-12,1.67183765278669e-10,-1.72986742329629e-12)
(0,0,0)
(0,0,0)
(0,0,0)
(0,0,0)
(0,0,0)
(0,0,0)
(-1.4900238565936e-12,1.04725043621362e-12,-1.0438014410939e-11)
(-1.16592566375247e-12,2.86152402907883e-12,-1.07668223776021e-11)
(-7.92463455532992e-14,4.71662280648017e-12,-1.13918812297189e-11)
(1.61575501080301e-12,8.0616537911605e-12,-1.13853668347769e-11)
(2.73639221594185e-12,1.27194900603556e-11,-1.08608355686562e-11)
(4.56989705288276e-12,2.12438524478312e-11,-1.01284444696777e-11)
(7.15008084830061e-12,3.75040466849636e-11,-9.25472448251844e-12)
(9.92379313735887e-12,6.40266566232441e-11,-7.96111370559007e-12)
(1.25449517680237e-11,1.06259321511739e-10,-5.7295253038386e-12)
(1.31541089514415e-11,1.65814447908212e-10,-2.99927539021391e-12)
(0,0,0)
(0,0,0)
(0,0,0)
(0,0,0)
(0,0,0)
(0,0,0)
(5.78910643544492e-13,1.21100658580447e-12,-1.91403158927411e-11)
(1.65882638588512e-12,2.77044394397373e-12,-1.90051281075107e-11)
(3.29654430623744e-12,4.47841229894596e-12,-1.90856563915339e-11)
(4.97661532834711e-12,7.48076244823223e-12,-1.88002526372805e-11)
(6.25835251352994e-12,1.12790004083399e-11,-1.79907912179773e-11)
(8.08132418785224e-12,1.93017928435558e-11,-1.71321786979268e-11)
(1.01887698141124e-11,3.60848618425368e-11,-1.62665421118147e-11)
(1.30566403412532e-11,6.30638206010143e-11,-1.37228701558357e-11)
(1.5597988446747e-11,1.05174335756705e-10,-9.84998210708997e-12)
(1.67233189477156e-11,1.64609875929623e-10,-5.33989068169139e-12)
(0,0,0)
(0,0,0)
(0,0,0)
(0,0,0)
(0,0,0)
(0,0,0)
(2.62758161192875e-12,1.291051135774e-12,-3.15054055465594e-11)
(4.65004405666843e-12,2.8781544453715e-12,-3.08614697417423e-11)
(6.90297559442401e-12,4.52587384294333e-12,-3.03659391785737e-11)
(8.32050245349836e-12,6.90632428940098e-12,-2.95455853155991e-11)
(8.98024350895661e-12,1.01057945520458e-11,-2.85041367659906e-11)
(1.02772305841635e-11,1.79963067101097e-11,-2.7690056604171e-11)
(1.24720567838353e-11,3.47951952259542e-11,-2.6255668491818e-11)
(1.5053492692629e-11,6.15673277680892e-11,-2.21486111520202e-11)
(1.72743119070191e-11,1.02952425409012e-10,-1.60059914668418e-11)
(1.83578146816837e-11,1.61498156846299e-10,-8.70340864292653e-12)
(0,0,0)
(0,0,0)
(0,0,0)
(0,0,0)
(0,0,0)
(0,0,0)
(3.06949464987651e-12,8.95910036417301e-13,-4.90263019268104e-11)
(5.55382953582021e-12,2.68619516614738e-12,-4.84921016434521e-11)
(7.92070825060154e-12,4.56249342344395e-12,-4.77450672580159e-11)
(9.90284797535172e-12,6.69162143824727e-12,-4.63894982848604e-11)
(9.99792103875471e-12,9.69130564406887e-12,-4.49960851946882e-11)
(1.01592078976264e-11,1.71691639932658e-11,-4.38208637297927e-11)
(1.21759786283296e-11,3.27736443876418e-11,-4.08972852125293e-11)
(1.40951043135115e-11,5.82022874699439e-11,-3.48583407873618e-11)
(1.62401896647853e-11,9.80524299573607e-11,-2.57492754514846e-11)
(1.81527573506989e-11,1.55169009100097e-10,-1.40155629571702e-11)
(0,0,0)
(0,0,0)
(0,0,0)
(0,0,0)
(0,0,0)
(0,0,0)
(2.74832244333814e-12,6.20219967991856e-13,-7.4910315799974e-11)
(5.49261037302569e-12,2.25192893113327e-12,-7.49480210768801e-11)
(8.18895687426368e-12,3.9801270512368e-12,-7.43061720110609e-11)
(1.00195552007688e-11,5.84639586898528e-12,-7.24539164620574e-11)
(1.1339756707374e-11,8.67176195259367e-12,-7.07577446992037e-11)
(1.11220668257442e-11,1.5326580991669e-11,-6.87369864449755e-11)
(1.21045103626209e-11,2.8734222914738e-11,-6.4238317600775e-11)
(1.23946877462566e-11,5.14450993365117e-11,-5.56943368638135e-11)
(1.42258550482556e-11,8.86534973239642e-11,-4.26003831767234e-11)
(1.58278706465566e-11,1.44005400051846e-10,-2.41296814238926e-11)
(0,0,0)
(0,0,0)
(0,0,0)
(0,0,0)
(0,0,0)
(0,0,0)
(1.67259136432686e-12,6.03012850418688e-13,-1.16108834947412e-10)
(5.33920939896787e-12,1.53851289103412e-12,-1.16567000821827e-10)
(9.71742349411946e-12,2.29329538638318e-12,-1.16100440572697e-10)
(1.12782662041328e-11,3.82954579275277e-12,-1.14020217409468e-10)
(1.3101417890388e-11,6.6281670372002e-12,-1.11864530379335e-10)
(1.20626512752656e-11,1.16632615247245e-11,-1.08794076154562e-10)
(1.23227189361315e-11,2.17891839908082e-11,-1.03113114356148e-10)
(1.23033146034547e-11,4.00474595641636e-11,-9.25491388235072e-11)
(1.34464990756813e-11,7.20331437318276e-11,-7.41547046513402e-11)
(1.39579472230448e-11,1.22052220999451e-10,-4.42786936002342e-11)
(0,0,0)
(0,0,0)
(0,0,0)
(0,0,0)
(0,0,0)
(0,0,0)
(1.70569953431675e-12,4.15373769084736e-13,-1.74127249903781e-10)
(5.62704152010958e-12,7.62401118859257e-13,-1.74168142340955e-10)
(1.08340640286828e-11,6.77522487882233e-13,-1.7352193427928e-10)
(1.17305690779666e-11,1.67847786894727e-12,-1.72131725633294e-10)
(1.27720159185694e-11,3.89788772439965e-12,-1.70311018582055e-10)
(1.16248087939947e-11,6.61415391071725e-12,-1.66280868701349e-10)
(1.14211933556111e-11,1.22415722173089e-11,-1.59482041946861e-10)
(1.19680324755336e-11,2.29526562680288e-11,-1.47121699837086e-10)
(1.29730291964046e-11,4.34642294662846e-11,-1.23384021914225e-10)
(1.27108857706805e-11,7.89518422860307e-11,-7.91892189481267e-11)
(0,0,0)
(0,0,0)
(0,0,0)
(0,0,0)
(0,0,0)
(0,0,0)
(0,0,0)
(0,0,0)
(0,0,0)
(0,0,0)
(0,0,0)
(0,0,0)
(0,0,0)
(0,0,0)
(0,0,0)
(0,0,0)
(0,0,0)
(0,0,0)
(0,0,0)
(0,0,0)
(0,0,0)
(0,0,0)
(0,0,0)
(0,0,0)
(0,0,0)
(0,0,0)
(0,0,0)
(0,0,0)
(0,0,0)
(0,0,0)
(0,0,0)
(0,0,0)
(0,0,0)
(0,0,0)
(0,0,0)
(0,0,0)
(0,0,0)
(0,0,0)
(0,0,0)
(0,0,0)
(0,0,0)
(0,0,0)
(0,0,0)
(0,0,0)
(0,0,0)
(0,0,0)
(0,0,0)
(0,0,0)
(0,0,0)
(0,0,0)
(0,0,0)
(0,0,0)
(0,0,0)
(0,0,0)
(0,0,0)
(0,0,0)
(0,0,0)
(0,0,0)
(0,0,0)
(0,0,0)
(0,0,0)
(0,0,0)
(0,0,0)
(0,0,0)
(0,0,0)
(0,0,0)
(0,0,0)
(0,0,0)
(0,0,0)
(0,0,0)
(0,0,0)
(0,0,0)
(0,0,0)
(0,0,0)
(0,0,0)
(0,0,0)
(0,0,0)
(0,0,0)
(0,0,0)
(0,0,0)
(0,0,0)
(0,0,0)
(0,0,0)
(0,0,0)
(0,0,0)
(0,0,0)
(0,0,0)
(0,0,0)
(0,0,0)
(0,0,0)
(0,0,0)
(0,0,0)
(0,0,0)
(0,0,0)
(0,0,0)
(0,0,0)
(0,0,0)
(0,0,0)
(0,0,0)
(0,0,0)
(0,0,0)
(0,0,0)
(-1.11003982907346e-12,8.07917854977094e-13,2.83942475167092e-13)
(-1.57731441727014e-12,4.37843590930171e-12,8.27600377515327e-14)
(-1.48647608117925e-12,9.48002083528391e-12,-4.03411515579667e-13)
(-6.82072730848147e-13,1.56334104410512e-11,-7.51156179204456e-13)
(1.52890128438873e-13,2.60332363181704e-11,-1.13247885948483e-12)
(1.33811419285802e-12,4.23789699964662e-11,-9.94720476216632e-13)
(1.75079717907702e-12,6.98514604885832e-11,-8.95628285620842e-13)
(1.11855277183285e-12,1.15178643861202e-10,-5.26733316651281e-13)
(8.44099842879914e-13,1.99390527198126e-10,-3.10223489014285e-13)
(6.89793707372016e-13,3.93508888436427e-10,-1.79600355893398e-13)
(0,0,0)
(0,0,0)
(0,0,0)
(0,0,0)
(0,0,0)
(0,0,0)
(-1.81428173190285e-12,5.13575705970711e-13,-2.48888057927805e-12)
(-2.42539925391257e-12,3.97992964446216e-12,-3.07519214461354e-12)
(-2.25033465730982e-12,9.11947448334335e-12,-4.13932624779633e-12)
(-8.73441333505397e-13,1.53301655061673e-11,-4.83962257138867e-12)
(4.99753139113881e-13,2.56038100778311e-11,-5.07092016601547e-12)
(2.45864346309063e-12,4.20536037417827e-11,-4.11606251115695e-12)
(4.09964318657042e-12,6.91174336193054e-11,-3.32426216513529e-12)
(3.64056961696256e-12,1.14788988369603e-10,-2.96207255959931e-12)
(3.37860901206846e-12,1.99028819385627e-10,-2.38495807778037e-12)
(3.20571712827016e-12,3.93216030357838e-10,-1.38859845030773e-12)
(0,0,0)
(0,0,0)
(0,0,0)
(0,0,0)
(0,0,0)
(0,0,0)
(-1.6000723285012e-12,5.84012622986724e-13,-9.12617890087832e-12)
(-1.54468260179394e-12,3.72057745176267e-12,-1.00349869904751e-11)
(-1.41629815322241e-12,8.45520320158178e-12,-1.08248829693781e-11)
(1.24894655295004e-13,1.43244055913126e-11,-1.07942915488251e-11)
(1.79061697548472e-12,2.39001006624192e-11,-1.03075784067715e-11)
(4.014528440773e-12,4.05677856485978e-11,-8.66009668134307e-12)
(6.06638736042429e-12,6.80314354050242e-11,-6.76681028126561e-12)
(6.49598646932317e-12,1.13852817199248e-10,-6.09930464323933e-12)
(7.21107649425911e-12,1.98135634522313e-10,-4.60100827347765e-12)
(6.85512675446221e-12,3.92346058948691e-10,-2.32960366562415e-12)
(0,0,0)
(0,0,0)
(0,0,0)
(0,0,0)
(0,0,0)
(0,0,0)
(-1.32497203952201e-12,1.04812565507625e-12,-1.97657672185704e-11)
(-4.49786726533752e-13,3.43012350568034e-12,-2.0300122187162e-11)
(1.52449767031205e-13,7.29161566684893e-12,-2.05863017856459e-11)
(1.67211508761513e-12,1.31038399464439e-11,-2.00477415471083e-11)
(3.44449076897242e-12,2.17781573635095e-11,-1.86750071931243e-11)
(5.6382366700127e-12,3.7649183571806e-11,-1.65889404398642e-11)
(7.27565491378189e-12,6.63014025359177e-11,-1.40792498077647e-11)
(8.65504075790922e-12,1.12532137291226e-10,-1.17782423859572e-11)
(1.08996876098768e-11,1.96857115939744e-10,-8.8958301030077e-12)
(1.13594055406509e-11,3.91116256923721e-10,-4.79137005577268e-12)
(0,0,0)
(0,0,0)
(0,0,0)
(0,0,0)
(0,0,0)
(0,0,0)
(3.63678308344513e-13,1.26227602391924e-12,-3.48079372677271e-11)
(1.63164416850827e-12,3.0950637070914e-12,-3.44928022467049e-11)
(2.96367900798596e-12,6.09527940024941e-12,-3.40191462761657e-11)
(4.7415920678716e-12,1.11164044681655e-11,-3.304893559608e-11)
(6.57294584978357e-12,1.85101253517154e-11,-3.15656422850541e-11)
(8.521173735181e-12,3.3059700515083e-11,-2.99522571570083e-11)
(8.93476447472066e-12,6.25103438550526e-11,-2.86000301659657e-11)
(1.06802451256372e-11,1.11332652611079e-10,-2.29122889020079e-11)
(1.33098073689973e-11,1.95473395120835e-10,-1.63817325074268e-11)
(1.44951473489311e-11,3.89448684486051e-10,-8.8073067236804e-12)
(0,0,0)
(0,0,0)
(0,0,0)
(0,0,0)
(0,0,0)
(0,0,0)
(2.37878690646878e-12,1.29715788596667e-12,-5.50788462060788e-11)
(4.34647277272274e-12,2.87108252435149e-12,-5.39381628577609e-11)
(6.04600215094485e-12,5.35236271883744e-12,-5.30628193166846e-11)
(7.49375675505345e-12,9.37037215148444e-12,-5.18412593828731e-11)
(8.5806522551266e-12,1.56063063557431e-11,-5.05394963846385e-11)
(9.66998518862015e-12,2.96069522853595e-11,-4.92461474613824e-11)
(1.03865502823916e-11,6.06469703526115e-11,-4.70828857501549e-11)
(1.22759133056251e-11,1.09555913979505e-10,-3.89762517499248e-11)
(1.48717245346325e-11,1.92336154106901e-10,-2.7865825546309e-11)
(1.59835537850733e-11,3.85019698705268e-10,-1.48672471071561e-11)
(0,0,0)
(0,0,0)
(0,0,0)
(0,0,0)
(0,0,0)
(0,0,0)
(2.81098443494288e-12,6.76298705086552e-13,-8.40605647397889e-11)
(5.24106138539922e-12,2.69288671575856e-12,-8.34086490160255e-11)
(7.14750564965375e-12,5.28256421966191e-12,-8.26093835286976e-11)
(9.35466045443502e-12,8.57521286280159e-12,-8.10359684894769e-11)
(9.84224326535491e-12,1.38661120512478e-11,-7.9306713058592e-11)
(9.07821238198354e-12,2.66202113608965e-11,-7.73474509687924e-11)
(1.01764556761224e-11,5.73497481096195e-11,-7.20387162739609e-11)
(1.17432271108873e-11,1.04144215090768e-10,-6.23042972510483e-11)
(1.3905409803566e-11,1.84398988647344e-10,-4.5511062846205e-11)
(1.53008034423418e-11,3.74798621718575e-10,-2.43644983659868e-11)
(0,0,0)
(0,0,0)
(0,0,0)
(0,0,0)
(0,0,0)
(0,0,0)
(2.80323483781726e-12,4.28187143061329e-13,-1.29314651267629e-10)
(5.56417734730613e-12,2.47673658326523e-12,-1.29381926126518e-10)
(8.02353299011682e-12,4.79194598484583e-12,-1.28857320288101e-10)
(1.03402335141479e-11,7.72896274911867e-12,-1.26824037456367e-10)
(1.13625933685141e-11,1.2900667074751e-11,-1.24246358442965e-10)
(1.02867174485146e-11,2.50188494113959e-11,-1.20717341200026e-10)
(1.05055685496183e-11,5.08932360260205e-11,-1.13691529812695e-10)
(1.06983738313325e-11,9.13878545446626e-11,-9.88391881797559e-11)
(1.23755068877411e-11,1.6740227598288e-10,-7.52970243317504e-11)
(1.36513682744652e-11,3.54891335552712e-10,-4.25292988837471e-11)
(0,0,0)
(0,0,0)
(0,0,0)
(0,0,0)
(0,0,0)
(0,0,0)
(2.31839632007619e-12,3.19160595720924e-13,-2.12594894964026e-10)
(5.64876092201306e-12,1.84249911666929e-12,-2.13196391077166e-10)
(9.2529732293935e-12,3.2612217028455e-12,-2.12660696960924e-10)
(1.12736470978093e-11,5.68012089104974e-12,-2.10030721852929e-10)
(1.27612429784297e-11,1.0481833429205e-11,-2.06767861444691e-10)
(1.1430797090838e-11,1.97264705739381e-11,-2.01513651792747e-10)
(1.13063551769925e-11,3.82847051726971e-11,-1.91844449368977e-10)
(1.10036837274165e-11,7.0442087750808e-11,-1.73276821477173e-10)
(1.21394022900972e-11,1.37636048591077e-10,-1.41277932683777e-10)
(1.2779632336363e-11,3.15491270886033e-10,-8.76924007698709e-11)
(0,0,0)
(0,0,0)
(0,0,0)
(0,0,0)
(0,0,0)
(0,0,0)
(2.16196574057608e-12,1.17671276895436e-13,-4.05080373741592e-10)
(5.74323457729374e-12,8.65698558324657e-13,-4.05142071831604e-10)
(1.01213778705768e-11,1.27922149753892e-12,-4.03975025992186e-10)
(1.15883398956754e-11,2.75121300750977e-12,-4.01475608527955e-10)
(1.26397537622548e-11,5.96299140370076e-12,-3.98515647665306e-10)
(1.14401359502134e-11,1.07874632242895e-11,-3.92244019751662e-10)
(1.13024234631297e-11,2.09370752817989e-11,-3.80699787609922e-10)
(1.11830108207492e-11,4.00550732535052e-11,-3.58733063953034e-10)
(1.22424556965919e-11,8.60297644661928e-11,-3.17474354632691e-10)
(1.24735091086789e-11,2.2943559071467e-10,-2.30098315744981e-10)
(0,0,0)
(0,0,0)
(0,0,0)
(0,0,0)
(0,0,0)
(0,0,0)
(0,0,0)
(0,0,0)
(0,0,0)
(0,0,0)
(0,0,0)
(0,0,0)
(0,0,0)
(0,0,0)
(0,0,0)
(0,0,0)
(0,0,0)
(0,0,0)
(0,0,0)
(0,0,0)
(0,0,0)
(0,0,0)
(0,0,0)
(0,0,0)
(0,0,0)
(0,0,0)
(0,0,0)
(0,0,0)
(0,0,0)
(0,0,0)
(0,0,0)
(0,0,0)
(0,0,0)
(0,0,0)
(0,0,0)
(0,0,0)
(0,0,0)
(0,0,0)
(0,0,0)
(0,0,0)
(0,0,0)
(0,0,0)
(0,0,0)
(0,0,0)
(0,0,0)
(0,0,0)
(0,0,0)
(0,0,0)
(0,0,0)
(0,0,0)
(0,0,0)
(0,0,0)
(0,0,0)
(0,0,0)
(0,0,0)
(0,0,0)
(0,0,0)
(0,0,0)
(0,0,0)
(0,0,0)
(0,0,0)
(0,0,0)
(0,0,0)
(0,0,0)
(0,0,0)
(0,0,0)
(0,0,0)
(0,0,0)
(0,0,0)
(0,0,0)
(0,0,0)
(0,0,0)
(0,0,0)
(0,0,0)
(0,0,0)
(0,0,0)
(0,0,0)
(0,0,0)
(0,0,0)
(0,0,0)
(0,0,0)
(0,0,0)
(0,0,0)
(0,0,0)
(0,0,0)
(0,0,0)
(0,0,0)
(0,0,0)
(0,0,0)
(0,0,0)
(0,0,0)
(0,0,0)
(0,0,0)
(0,0,0)
(0,0,0)
(0,0,0)
(0,0,0)
(0,0,0)
(0,0,0)
(0,0,0)
(0,0,0)
(0,0,0)
(-6.14515242666937e-13,1.04855453117522e-12,-1.47274662280966e-12)
(-6.92636599385857e-13,4.36604735059242e-12,-9.87335606727497e-13)
(-7.78185065022187e-13,1.02860065744377e-11,-1.01197074306604e-12)
(2.49488456735545e-15,1.90450502090864e-11,-1.38250679116395e-12)
(4.44557985246337e-13,3.19779425230147e-11,-1.6606737700773e-12)
(1.56438825709869e-12,5.02919433031091e-11,-1.31808152765038e-12)
(2.1159290788667e-12,7.94314783930071e-11,-1.14205811151996e-12)
(1.29169843583618e-12,1.21416383108599e-10,-8.41139681434636e-13)
(1.075184522362e-12,1.79571904669385e-10,-5.72562554040075e-13)
(8.03051429876543e-13,2.50171613187821e-10,-1.64098637907463e-13)
(0,0,0)
(0,0,0)
(0,0,0)
(0,0,0)
(0,0,0)
(0,0,0)
(-1.29840708393103e-12,7.39643401323592e-13,-5.24778886300317e-12)
(-1.10191295873636e-12,4.1881768966062e-12,-5.27685616789301e-12)
(-8.85767052957996e-13,1.01206823725476e-11,-5.8025986296183e-12)
(3.63616176950095e-13,1.85550738725715e-11,-6.13376193827497e-12)
(1.24860489955283e-12,3.10568799957487e-11,-5.47852555358016e-12)
(3.15266121035196e-12,4.99273031618491e-11,-3.5441976540049e-12)
(4.82345179425527e-12,7.92905472823802e-11,-2.03269493167944e-12)
(3.99962630673861e-12,1.21402660576739e-10,-1.84610127095915e-12)
(3.27543424784742e-12,1.79456998168847e-10,-1.54718397774205e-12)
(2.6870900873634e-12,2.49920307696686e-10,-7.66326480352077e-13)
(0,0,0)
(0,0,0)
(0,0,0)
(0,0,0)
(0,0,0)
(0,0,0)
(-1.15537727293017e-12,7.19639421211746e-13,-1.36596924698278e-11)
(-4.64332675732477e-13,4.11701273438832e-12,-1.39367572505877e-11)
(-2.83302038445861e-13,9.51905064888733e-12,-1.37950028136184e-11)
(8.58747157469669e-13,1.69108211667942e-11,-1.29194386960007e-11)
(2.26507854890991e-12,2.84378287248582e-11,-1.10195369868286e-11)
(5.03984411744865e-12,4.81931323372135e-11,-7.36556819064498e-12)
(7.12891459244883e-12,7.94807090662668e-11,-3.02786054844003e-12)
(6.31837000655857e-12,1.21928757109998e-10,-2.93992362631771e-12)
(6.2181904699656e-12,1.79716684402087e-10,-2.74504613650703e-12)
(5.75532511308249e-12,2.49539222303342e-10,-1.24261389717898e-12)
(0,0,0)
(0,0,0)
(0,0,0)
(0,0,0)
(0,0,0)
(0,0,0)
(-1.00476744047169e-12,1.08875893763577e-12,-2.66324818550898e-11)
(1.71452671712507e-13,4.07080915218401e-12,-2.67865334831251e-11)
(8.10225794449414e-13,8.02731795216096e-12,-2.60777889601885e-11)
(2.28681621123631e-12,1.43447060956183e-11,-2.4344806551861e-11)
(4.62645602822266e-12,2.43660784221144e-11,-2.10805699249156e-11)
(7.7180290940426e-12,4.33503876533275e-11,-1.61162187184868e-11)
(8.76570617310571e-12,7.88385157680986e-11,-9.44719232223135e-12)
(6.97211315547274e-12,1.23540325582565e-10,-9.11594667200028e-12)
(8.17894838191331e-12,1.80744285780657e-10,-8.23115896967512e-12)
(8.23560792192177e-12,2.49962348362097e-10,-4.48880295897467e-12)
(0,0,0)
(0,0,0)
(0,0,0)
(0,0,0)
(0,0,0)
(0,0,0)
(1.36614248398233e-14,1.40047779079396e-12,-4.43018450912621e-11)
(1.38196938170673e-12,3.78429333970076e-12,-4.39456577642778e-11)
(2.73638500806284e-12,6.20043220956816e-12,-4.27162473992232e-11)
(5.0043310737535e-12,1.07477601336474e-11,-4.04155705963139e-11)
(7.86337971868447e-12,1.81896011582145e-11,-3.71010541486425e-11)
(1.06216949728931e-11,3.3112488208816e-11,-3.40581536288162e-11)
(5.11039671228552e-12,6.82037513316675e-11,-3.87904242896806e-11)
(5.92642736263342e-12,1.25083324990878e-10,-2.63559663517703e-11)
(8.87262260078214e-12,1.8104503739041e-10,-1.83743032688667e-11)
(1.01168264055778e-11,2.48961550457372e-10,-9.71806539192049e-12)
(0,0,0)
(0,0,0)
(0,0,0)
(0,0,0)
(0,0,0)
(0,0,0)
(1.8589627396043e-12,1.36281195033081e-12,-6.68952844043349e-11)
(3.6493250399191e-12,2.99477586662192e-12,-6.58817054043625e-11)
(4.89424071610955e-12,4.23767381807201e-12,-6.45490727781933e-11)
(6.98715304677792e-12,7.16987023835794e-12,-6.26184053099327e-11)
(9.02749763530258e-12,1.24689088110053e-11,-6.02831872652393e-11)
(1.04934644020122e-11,2.57199610710427e-11,-5.85804899401771e-11)
(5.57713852554223e-12,7.00474336938694e-11,-6.28835793427232e-11)
(6.57718599004537e-12,1.25761636600178e-10,-4.88011420988437e-11)
(9.81031155574984e-12,1.78743437239519e-10,-3.36731741724873e-11)
(1.1337383663697e-11,2.44712302543332e-10,-1.73784810761632e-11)
(0,0,0)
(0,0,0)
(0,0,0)
(0,0,0)
(0,0,0)
(0,0,0)
(2.40718027382523e-12,6.85830906654661e-13,-9.71589335159957e-11)
(4.65794602999097e-12,2.31090447797071e-12,-9.67147702657892e-11)
(6.06470884531507e-12,3.1772133365352e-12,-9.56397335382853e-11)
(8.47165513728014e-12,4.82258730764851e-12,-9.427333130536e-11)
(8.84842615231602e-12,7.61098377197218e-12,-9.33560963170645e-11)
(5.3708396364383e-12,1.54900224125889e-11,-9.45652314081802e-11)
(6.89854873699616e-12,6.73775954572268e-11,-8.62655831640994e-11)
(7.70635325161357e-12,1.20660461656355e-10,-8.0091894754173e-11)
(9.75555798824725e-12,1.69489462854051e-10,-5.53775394367172e-11)
(1.08435912427667e-11,2.32980321575876e-10,-2.83366604131678e-11)
(0,0,0)
(0,0,0)
(0,0,0)
(0,0,0)
(0,0,0)
(0,0,0)
(2.9795362443391e-12,4.93256627155319e-13,-1.39303814359535e-10)
(5.67380897559258e-12,1.90684701697165e-12,-1.39207942791372e-10)
(7.52097443961331e-12,2.73194429690916e-12,-1.3835178158903e-10)
(9.81139636003301e-12,4.60604861257e-12,-1.37151215104988e-10)
(1.02524097703495e-11,9.24884507425175e-12,-1.35622768932444e-10)
(8.55328489894295e-12,2.24232713482725e-11,-1.34892414608839e-10)
(8.26175777006139e-12,6.25565183905766e-11,-1.3160142926507e-10)
(8.10197677600999e-12,1.01139513406014e-10,-1.11022665333004e-10)
(9.37400883189133e-12,1.47450171648595e-10,-8.02577780146476e-11)
(1.05221340580003e-11,2.09337733107174e-10,-4.31596598784903e-11)
(0,0,0)
(0,0,0)
(0,0,0)
(0,0,0)
(0,0,0)
(0,0,0)
(3.1213817519328e-12,3.69091421884916e-13,-1.96871112984578e-10)
(6.08986736392995e-12,1.54721376616197e-12,-1.97027619331449e-10)
(8.60499832734878e-12,2.49502271758035e-12,-1.96084601821373e-10)
(1.09396945731902e-11,4.37023506410602e-12,-1.94344594202679e-10)
(1.20258753523747e-11,9.35565657142276e-12,-1.91537847223405e-10)
(1.07006020163811e-11,2.0551751182914e-11,-1.86865442140933e-10)
(1.0086357175936e-11,4.4555217714036e-11,-1.77359690805602e-10)
(9.39180943029945e-12,7.34849038056422e-11,-1.54597491853427e-10)
(1.01601545018725e-11,1.13540317420839e-10,-1.18765446209365e-10)
(1.11429117377004e-11,1.69617908757123e-10,-6.7981058473364e-11)
(0,0,0)
(0,0,0)
(0,0,0)
(0,0,0)
(0,0,0)
(0,0,0)
(2.34133510689224e-12,2.40277799289313e-13,-2.66807282706963e-10)
(5.44188729583249e-12,7.82849569131007e-13,-2.66552756618247e-10)
(8.90118190432878e-12,1.3823626857502e-12,-2.65386358648243e-10)
(1.13795920401906e-11,2.77297709588171e-12,-2.63572330934257e-10)
(1.23311172527066e-11,6.05510780169078e-12,-2.60094657350544e-10)
(1.06833670321979e-11,1.19416239869148e-11,-2.52746476632273e-10)
(1.02727750884336e-11,2.35854377713281e-11,-2.39484800111056e-10)
(9.97937475275531e-12,3.9643384367451e-11,-2.14409347661093e-10)
(1.08961812755899e-11,6.50710923951898e-11,-1.73426362438955e-10)