/*--------------------------------*- C++ -*----------------------------------*\
| =========                 |                                                 |
| \\      /  F ield         | foam-extend: Open Source CFD                    |
|  \\    /   O peration     | Version:     4.0                                |
|   \\  /    A nd           | Web:         http://www.foam-extend.org         |
|    \\/     M anipulation  |                                                 |
\*---------------------------------------------------------------------------*/
FoamFile
{
    version 2.0;
    format ascii;
    class volVectorField;
    location "Data/1350";
    object      E;
}
// * * * * * * * * * * * * * * * * * * * * * * * * * * * * * * * * * * * * * //

dimensions      [0 1 -1 0 0 0 0];

internalField   nonuniform List<vector>
4096
(
(0,0,0)
(0,0,0)
(0,0,0)
(0,0,0)
(0,0,0)
(0,0,0)
(0,0,0)
(0,0,0)
(0,0,0)
(0,0,0)
(0,0,0)
(0,0,0)
(0,0,0)
(0,0,0)
(0,0,0)
(0,0,0)
(0,0,0)
(0,0,0)
(0,0,0)
(0,0,0)
(0,0,0)
(0,0,0)
(0,0,0)
(0,0,0)
(0,0,0)
(0,0,0)
(0,0,0)
(0,0,0)
(0,0,0)
(0,0,0)
(0,0,0)
(0,0,0)
(0,0,0)
(0,0,0)
(0,0,0)
(0,0,0)
(0,0,0)
(0,0,0)
(0,0,0)
(0,0,0)
(0,0,0)
(0,0,0)
(0,0,0)
(0,0,0)
(0,0,0)
(0,0,0)
(0,0,0)
(0,0,0)
(0,0,0)
(0,0,0)
(0,0,0)
(0,0,0)
(0,0,0)
(0,0,0)
(0,0,0)
(0,0,0)
(0,0,0)
(0,0,0)
(0,0,0)
(0,0,0)
(0,0,0)
(0,0,0)
(0,0,0)
(0,0,0)
(0,0,0)
(0,0,0)
(0,0,0)
(0,0,0)
(0,0,0)
(0,0,0)
(0,0,0)
(0,0,0)
(0,0,0)
(0,0,0)
(0,0,0)
(0,0,0)
(0,0,0)
(0,0,0)
(0,0,0)
(0,0,0)
(0,0,0)
(0,0,0)
(0,0,0)
(0,0,0)
(0,0,0)
(0,0,0)
(0,0,0)
(0,0,0)
(0,0,0)
(0,0,0)
(0,0,0)
(0,0,0)
(0,0,0)
(0,0,0)
(0,0,0)
(0,0,0)
(0,0,0)
(0,0,0)
(0,0,0)
(0,0,0)
(0,0,0)
(0,0,0)
(0,0,0)
(0,0,0)
(0,0,0)
(0,0,0)
(0,0,0)
(0,0,0)
(0,0,0)
(0,0,0)
(0,0,0)
(0,0,0)
(0,0,0)
(0,0,0)
(0,0,0)
(0,0,0)
(0,0,0)
(0,0,0)
(0,0,0)
(0,0,0)
(0,0,0)
(0,0,0)
(0,0,0)
(0,0,0)
(0,0,0)
(0,0,0)
(0,0,0)
(0,0,0)
(0,0,0)
(0,0,0)
(0,0,0)
(0,0,0)
(0,0,0)
(0,0,0)
(0,0,0)
(0,0,0)
(0,0,0)
(0,0,0)
(0,0,0)
(0,0,0)
(0,0,0)
(0,0,0)
(0,0,0)
(0,0,0)
(0,0,0)
(0,0,0)
(0,0,0)
(0,0,0)
(0,0,0)
(0,0,0)
(0,0,0)
(0,0,0)
(0,0,0)
(0,0,0)
(0,0,0)
(0,0,0)
(0,0,0)
(0,0,0)
(0,0,0)
(0,0,0)
(0,0,0)
(0,0,0)
(0,0,0)
(0,0,0)
(0,0,0)
(0,0,0)
(0,0,0)
(0,0,0)
(0,0,0)
(0,0,0)
(0,0,0)
(0,0,0)
(0,0,0)
(0,0,0)
(0,0,0)
(0,0,0)
(0,0,0)
(0,0,0)
(0,0,0)
(0,0,0)
(0,0,0)
(0,0,0)
(0,0,0)
(0,0,0)
(0,0,0)
(0,0,0)
(0,0,0)
(0,0,0)
(0,0,0)
(0,0,0)
(0,0,0)
(0,0,0)
(0,0,0)
(0,0,0)
(0,0,0)
(0,0,0)
(0,0,0)
(0,0,0)
(0,0,0)
(0,0,0)
(0,0,0)
(0,0,0)
(0,0,0)
(0,0,0)
(0,0,0)
(0,0,0)
(0,0,0)
(0,0,0)
(0,0,0)
(0,0,0)
(0,0,0)
(0,0,0)
(0,0,0)
(0,0,0)
(0,0,0)
(0,0,0)
(0,0,0)
(0,0,0)
(0,0,0)
(0,0,0)
(0,0,0)
(0,0,0)
(0,0,0)
(0,0,0)
(0,0,0)
(0,0,0)
(0,0,0)
(0,0,0)
(0,0,0)
(0,0,0)
(0,0,0)
(0,0,0)
(0,0,0)
(0,0,0)
(0,0,0)
(0,0,0)
(0,0,0)
(0,0,0)
(0,0,0)
(0,0,0)
(0,0,0)
(0,0,0)
(0,0,0)
(0,0,0)
(0,0,0)
(0,0,0)
(0,0,0)
(0,0,0)
(0,0,0)
(0,0,0)
(0,0,0)
(0,0,0)
(0,0,0)
(0,0,0)
(0,0,0)
(0,0,0)
(0,0,0)
(0,0,0)
(0,0,0)
(0,0,0)
(0,0,0)
(0,0,0)
(0,0,0)
(0,0,0)
(0,0,0)
(0,0,0)
(0,0,0)
(0,0,0)
(0,0,0)
(0,0,0)
(0,0,0)
(0,0,0)
(0,0,0)
(0,0,0)
(0,0,0)
(0,0,0)
(0,0,0)
(0,0,0)
(0,0,0)
(0,0,0)
(0,0,0)
(0,0,0)
(0,0,0)
(0,0,0)
(0,0,0)
(0,0,0)
(0,0,0)
(0,0,0)
(0,0,0)
(0,0,0)
(0,0,0)
(0,0,0)
(0,0,0)
(0,0,0)
(0,0,0)
(0,0,0)
(0,0,0)
(0,0,0)
(0,0,0)
(0,0,0)
(0,0,0)
(0,0,0)
(0,0,0)
(0,0,0)
(0,0,0)
(0,0,0)
(0,0,0)
(0,0,0)
(0,0,0)
(0,0,0)
(0,0,0)
(0,0,0)
(0,0,0)
(0,0,0)
(0,0,0)
(0,0,0)
(0,0,0)
(0,0,0)
(0,0,0)
(0,0,0)
(0,0,0)
(0,0,0)
(0,0,0)
(0,0,0)
(0,0,0)
(0,0,0)
(0,0,0)
(0,0,0)
(0,0,0)
(0,0,0)
(0,0,0)
(0,0,0)
(0,0,0)
(0,0,0)
(0,0,0)
(0,0,0)
(0,0,0)
(0,0,0)
(0,0,0)
(0,0,0)
(0,0,0)
(0,0,0)
(0,0,0)
(0,0,0)
(0,0,0)
(0,0,0)
(0,0,0)
(0,0,0)
(0,0,0)
(0,0,0)
(0,0,0)
(0,0,0)
(0,0,0)
(0,0,0)
(0,0,0)
(0,0,0)
(0,0,0)
(0,0,0)
(0,0,0)
(0,0,0)
(0,0,0)
(0,0,0)
(0,0,0)
(0,0,0)
(0,0,0)
(0,0,0)
(0,0,0)
(0,0,0)
(0,0,0)
(0,0,0)
(0,0,0)
(0,0,0)
(0,0,0)
(0,0,0)
(0,0,0)
(0,0,0)
(0,0,0)
(0,0,0)
(0,0,0)
(0,0,0)
(0,0,0)
(0,0,0)
(0,0,0)
(0,0,0)
(0,0,0)
(0,0,0)
(0,0,0)
(0,0,0)
(0,0,0)
(0,0,0)
(0,0,0)
(0,0,0)
(0,0,0)
(0,0,0)
(0,0,0)
(0,0,0)
(0,0,0)
(0,0,0)
(0,0,0)
(0,0,0)
(0,0,0)
(0,0,0)
(0,0,0)
(0,0,0)
(0,0,0)
(0,0,0)
(0,0,0)
(0,0,0)
(0,0,0)
(0,0,0)
(0,0,0)
(0,0,0)
(0,0,0)
(0,0,0)
(0,0,0)
(0,0,0)
(0,0,0)
(0,0,0)
(0,0,0)
(0,0,0)
(0,0,0)
(0,0,0)
(0,0,0)
(0,0,0)
(0,0,0)
(0,0,0)
(0,0,0)
(0,0,0)
(0,0,0)
(0,0,0)
(0,0,0)
(0,0,0)
(0,0,0)
(0,0,0)
(0,0,0)
(0,0,0)
(0,0,0)
(0,0,0)
(0,0,0)
(0,0,0)
(0,0,0)
(0,0,0)
(0,0,0)
(0,0,0)
(0,0,0)
(0,0,0)
(0,0,0)
(0,0,0)
(0,0,0)
(0,0,0)
(0,0,0)
(0,0,0)
(0,0,0)
(0,0,0)
(0,0,0)
(0,0,0)
(0,0,0)
(0,0,0)
(0,0,0)
(0,0,0)
(0,0,0)
(0,0,0)
(0,0,0)
(0,0,0)
(0,0,0)
(0,0,0)
(0,0,0)
(0,0,0)
(0,0,0)
(0,0,0)
(0,0,0)
(0,0,0)
(0,0,0)
(0,0,0)
(0,0,0)
(0,0,0)
(0,0,0)
(0,0,0)
(0,0,0)
(0,0,0)
(0,0,0)
(0,0,0)
(0,0,0)
(0,0,0)
(0,0,0)
(0,0,0)
(0,0,0)
(0,0,0)
(0,0,0)
(0,0,0)
(0,0,0)
(0,0,0)
(0,0,0)
(0,0,0)
(0,0,0)
(0,0,0)
(0,0,0)
(0,0,0)
(0,0,0)
(0,0,0)
(0,0,0)
(0,0,0)
(0,0,0)
(0,0,0)
(0,0,0)
(0,0,0)
(0,0,0)
(0,0,0)
(0,0,0)
(0,0,0)
(0,0,0)
(0,0,0)
(0,0,0)
(0,0,0)
(0,0,0)
(0,0,0)
(0,0,0)
(0,0,0)
(0,0,0)
(0,0,0)
(0,0,0)
(0,0,0)
(0,0,0)
(0,0,0)
(0,0,0)
(0,0,0)
(0,0,0)
(0,0,0)
(0,0,0)
(0,0,0)
(0,0,0)
(0,0,0)
(0,0,0)
(0,0,0)
(0,0,0)
(0,0,0)
(0,0,0)
(0,0,0)
(0,0,0)
(0,0,0)
(0,0,0)
(0,0,0)
(0,0,0)
(0,0,0)
(0,0,0)
(0,0,0)
(0,0,0)
(0,0,0)
(0,0,0)
(0,0,0)
(0,0,0)
(0,0,0)
(0,0,0)
(0,0,0)
(0,0,0)
(0,0,0)
(0,0,0)
(0,0,0)
(0,0,0)
(0,0,0)
(0,0,0)
(0,0,0)
(0,0,0)
(0,0,0)
(0,0,0)
(0,0,0)
(0,0,0)
(0,0,0)
(0,0,0)
(0,0,0)
(0,0,0)
(0,0,0)
(0,0,0)
(0,0,0)
(0,0,0)
(0,0,0)
(0,0,0)
(0,0,0)
(0,0,0)
(0,0,0)
(0,0,0)
(0,0,0)
(0,0,0)
(0,0,0)
(0,0,0)
(0,0,0)
(0,0,0)
(0,0,0)
(0,0,0)
(0,0,0)
(0,0,0)
(0,0,0)
(0,0,0)
(0,0,0)
(0,0,0)
(0,0,0)
(0,0,0)
(0,0,0)
(0,0,0)
(0,0,0)
(0,0,0)
(0,0,0)
(0,0,0)
(0,0,0)
(0,0,0)
(0,0,0)
(0,0,0)
(0,0,0)
(0,0,0)
(0,0,0)
(0,0,0)
(0,0,0)
(0,0,0)
(0,0,0)
(0,0,0)
(0,0,0)
(0,0,0)
(0,0,0)
(0,0,0)
(0,0,0)
(0,0,0)
(0,0,0)
(0,0,0)
(0,0,0)
(0,0,0)
(0,0,0)
(0,0,0)
(0,0,0)
(0,0,0)
(0,0,0)
(0,0,0)
(0,0,0)
(0,0,0)
(0,0,0)
(0,0,0)
(0,0,0)
(0,0,0)
(0,0,0)
(0,0,0)
(0,0,0)
(0,0,0)
(0,0,0)
(0,0,0)
(0,0,0)
(0,0,0)
(0,0,0)
(0,0,0)
(0,0,0)
(0,0,0)
(0,0,0)
(0,0,0)
(0,0,0)
(0,0,0)
(0,0,0)
(0,0,0)
(0,0,0)
(0,0,0)
(0,0,0)
(0,0,0)
(0,0,0)
(0,0,0)
(0,0,0)
(0,0,0)
(0,0,0)
(0,0,0)
(0,0,0)
(0,0,0)
(0,0,0)
(0,0,0)
(0,0,0)
(0,0,0)
(0,0,0)
(0,0,0)
(0,0,0)
(0,0,0)
(0,0,0)
(0,0,0)
(0,0,0)
(0,0,0)
(0,0,0)
(0,0,0)
(0,0,0)
(0,0,0)
(0,0,0)
(0,0,0)
(0,0,0)
(0,0,0)
(0,0,0)
(0,0,0)
(0,0,0)
(0,0,0)
(0,0,0)
(0,0,0)
(0,0,0)
(0,0,0)
(0,0,0)
(0,0,0)
(0,0,0)
(0,0,0)
(0,0,0)
(0,0,0)
(0,0,0)
(0,0,0)
(0,0,0)
(0,0,0)
(0,0,0)
(0,0,0)
(0,0,0)
(0,0,0)
(0,0,0)
(0,0,0)
(0,0,0)
(0,0,0)
(0,0,0)
(0,0,0)
(0,0,0)
(0,0,0)
(0,0,0)
(0,0,0)
(0,0,0)
(0,0,0)
(0,0,0)
(0,0,0)
(0,0,0)
(0,0,0)
(0,0,0)
(0,0,0)
(0,0,0)
(0,0,0)
(0,0,0)
(0,0,0)
(0,0,0)
(0,0,0)
(0,0,0)
(0,0,0)
(0,0,0)
(0,0,0)
(0,0,0)
(0,0,0)
(0,0,0)
(0,0,0)
(0,0,0)
(0,0,0)
(0,0,0)
(0,0,0)
(0,0,0)
(0,0,0)
(0,0,0)
(0,0,0)
(0,0,0)
(0,0,0)
(0,0,0)
(0,0,0)
(0,0,0)
(0,0,0)
(0,0,0)
(0,0,0)
(0,0,0)
(0,0,0)
(0,0,0)
(0,0,0)
(0,0,0)
(0,0,0)
(0,0,0)
(0,0,0)
(0,0,0)
(0,0,0)
(0,0,0)
(0,0,0)
(0,0,0)
(0,0,0)
(0,0,0)
(0,0,0)
(0,0,0)
(0,0,0)
(0,0,0)
(0,0,0)
(0,0,0)
(0,0,0)
(0,0,0)
(0,0,0)
(0,0,0)
(0,0,0)
(0,0,0)
(0,0,0)
(0,0,0)
(0,0,0)
(0,0,0)
(0,0,0)
(0,0,0)
(0,0,0)
(0,0,0)
(0,0,0)
(0,0,0)
(0,0,0)
(0,0,0)
(0,0,0)
(0,0,0)
(0,0,0)
(0,0,0)
(0,0,0)
(0,0,0)
(0,0,0)
(0,0,0)
(0,0,0)
(0,0,0)
(0,0,0)
(0,0,0)
(0,0,0)
(0,0,0)
(0,0,0)
(0,0,0)
(0,0,0)
(0,0,0)
(0,0,0)
(0,0,0)
(0,0,0)
(0,0,0)
(0,0,0)
(-144729.795760542,77087.9466461252,67641.8491144162)
(-153030.462056751,73901.1338548752,146771.177316293)
(-172312.759843768,67260.6432388937,251823.293921167)
(-208805.623200988,56828.2841294996,403800.632992658)
(-274581.520688831,42781.6143616419,635600.539319854)
(-392713.935452137,26597.5304954749,1001716.9442765)
(-606579.51552349,11892.8704961454,1596403.58930388)
(-993071.232980253,2926.68184831535,2586548.14043581)
(-1637973.29346808,-24.7952376383743,4224546.22914158)
(-2282280.11752809,-255.273736004238,6507081.62040568)
(0,0,0)
(0,0,0)
(0,0,0)
(0,0,0)
(0,0,0)
(0,0,0)
(-153028.995431778,165630.130210986,64486.8118669175)
(-161457.24008912,159638.438673688,140206.747137228)
(-181053.876557053,147012.09656724,241509.170365932)
(-218405.095198423,126891.143993486,389851.405700373)
(-286026.4078681,99122.9952305818,619536.432699531)
(-407008.894181486,66058.2807855357,987084.576590963)
(-623212.534327262,34792.6850128127,1587397.29640153)
(-1008210.60786554,15039.7332570723,2583494.85285828)
(-1648060.06686258,7338.7188283447,4224191.40565494)
(-2286993.56284091,3750.99167821022,6507178.70308155)
(0,0,0)
(0,0,0)
(0,0,0)
(0,0,0)
(0,0,0)
(0,0,0)
(-172093.367561424,279202.32730185,58521.1704705589)
(-180696.193994555,271156.681734074,127699.121404728)
(-200927.316981959,254073.417655845,221565.117298086)
(-240131.392765247,226342.010381266,362245.643675555)
(-312080.427397959,186776.467173641,586672.599130455)
(-440553.718599085,137318.430135746,955966.16837933)
(-664197.888230659,87293.6902900058,1567663.0513328)
(-1045941.3886585,53000.0355375363,2575644.1377108)
(-1672343.23960132,34938.2710035125,4220387.82513704)
(-2297984.29156157,18945.7936626688,6503177.31471411)
(0,0,0)
(0,0,0)
(0,0,0)
(0,0,0)
(0,0,0)
(0,0,0)
(-207705.999146573,436415.052292075,50493.2741563487)
(-216443.905606581,427443.513491389,110650.348005617)
(-237463.570256607,408298.200346677,193889.135571386)
(-279361.850894713,376783.041557413,322809.955289949)
(-358439.810297138,330627.388566529,537398.844194202)
(-501283.844412016,269970.388981086,906030.729760872)
(-742657.777394744,202656.067001033,1533326.1304446)
(-1118907.62375805,147777.302294627,2557456.48744553)
(-1716853.65555102,105029.12283293,4204219.29116709)
(-2317405.03563288,56528.8820839389,6484041.23837879)
(0,0,0)
(0,0,0)
(0,0,0)
(0,0,0)
(0,0,0)
(0,0,0)
(-271582.959005309,666456.151396976,41541.8599004069)
(-280275.988897345,657742.579236458,91518.7830526813)
(-301720.40625861,639097.372252425,162440.017405542)
(-345892.45712522,608344.084909117,276771.431179062)
(-432320.669307649,562845.292031637,476874.197021608)
(-592957.190961486,501024.839848729,838776.937115439)
(-862217.743745501,425290.003542174,1478360.7443198)
(-1230043.71495463,341595.608091282,2514586.1534778)
(-1781566.68733664,245555.651305564,4155626.31234187)
(-2345493.87856501,130181.33804552,6427467.73494529)
(0,0,0)
(0,0,0)
(0,0,0)
(0,0,0)
(0,0,0)
(0,0,0)
(-386825.205720361,1020447.71498502,32833.6421323144)
(-395079.756900652,1012693.67957425,72962.2986951716)
(-415808.900630845,996036.315711877,131832.255866564)
(-459535.134199483,968339.788382578,231371.686592583)
(-546873.743221716,925996.829141174,415093.892704761)
(-710575.099419245,863634.697529813,763059.13444293)
(-980671.427159444,774345.145245772,1394675.4198988)
(-1331804.07779173,649517.239691863,2418557.86608994)
(-1851723.59617524,475610.385843155,4040226.72772762)
(-2380850.94313201,253928.977913708,6297330.03099136)
(0,0,0)
(0,0,0)
(0,0,0)
(0,0,0)
(0,0,0)
(0,0,0)
(-598237.020864553,1593605.02811651,25079.707733069)
(-605562.150958351,1586905.99830879,56429.5399568811)
(-624177.450303714,1572390.05491111,104253.251061364)
(-664119.711416683,1547651.6272643,189061.123596334)
(-745240.020165254,1507530.36302744,352767.609875322)
(-899066.564574287,1441606.63988307,673862.232096347)
(-1152568.1807727,1330809.15088379,1269966.40723104)
(-1471865.61702375,1146597.42030199,2244751.84364466)
(-1956254.38034462,857973.471898444,3818643.13793393)
(-2438511.9078313,467509.109316746,6043574.91436224)
(0,0,0)
(0,0,0)
(0,0,0)
(0,0,0)
(0,0,0)
(0,0,0)
(-984902.089299468,2560126.80823493,18380.3091810345)
(-990778.602114319,2554029.99498157,42034.9146225755)
(-1005777.31048256,2540561.12650803,79641.1535082284)
(-1038259.76736844,2516514.89446511,149037.653675837)
(-1104936.97514548,2474512.8564322,286992.135416554)
(-1232833.08650115,2398177.02865622,563254.833144551)
(-1445131.37460513,2253297.24734392,1085898.11128953)
(-1703639.06544322,1979874.7440607,1956259.85297407)
(-2145992.00937595,1531797.85652275,3428427.47772571)
(-2548752.30061952,868276.991937036,5576411.89572488)
(0,0,0)
(0,0,0)
(0,0,0)
(0,0,0)
(0,0,0)
(0,0,0)
(-1632386.48907066,4180187.69420695,12325.603098637)
(-1636404.93584644,4174082.08308725,28678.4508394062)
(-1646607.80584037,4160116.2091689,55731.1740188851)
(-1668469.64319194,4133504.56148105,107211.150194883)
(-1712514.16595233,4083302.68811624,210935.484463191)
(-1795276.48319721,3985734.40116483,418654.595151768)
(-1934253.05595618,3793542.13480816,812662.763643718)
(-2140744.67681383,3424859.81962627,1508422.36489197)
(-2495901.24731124,2770801.53293047,2765319.93579546)
(-2741005.7160843,1665985.65683015,4708616.98698665)
(0,0,0)
(0,0,0)
(0,0,0)
(0,0,0)
(0,0,0)
(0,0,0)
(-2279675.90515875,6453578.03932258,6285.56004310226)
(-2281692.59826795,6447255.81053318,14804.4308651331)
(-2286765.00493417,6432419.76837922,29265.8765889937)
(-2297513.04916573,6403054.04675291,57229.4404828855)
(-2318843.66501659,6345616.01912507,113759.77449066)
(-2358700.04494048,6231435.94821275,226758.272383218)
(-2428255.99349804,6004362.74221209,444193.658477313)
(-2545470.0616663,5559894.19032159,854629.349448258)
(-2740372.73412536,4704938.5307226,1660865.08578148)
(-2759841.84255449,3043638.33798998,3043054.24717615)
(0,0,0)
(0,0,0)
(0,0,0)
(0,0,0)
(0,0,0)
(0,0,0)
(0,0,0)
(0,0,0)
(0,0,0)
(0,0,0)
(0,0,0)
(0,0,0)
(0,0,0)
(0,0,0)
(0,0,0)
(0,0,0)
(0,0,0)
(0,0,0)
(0,0,0)
(0,0,0)
(0,0,0)
(0,0,0)
(0,0,0)
(0,0,0)
(0,0,0)
(0,0,0)
(0,0,0)
(0,0,0)
(0,0,0)
(0,0,0)
(0,0,0)
(0,0,0)
(0,0,0)
(0,0,0)
(0,0,0)
(0,0,0)
(0,0,0)
(0,0,0)
(0,0,0)
(0,0,0)
(0,0,0)
(0,0,0)
(0,0,0)
(0,0,0)
(0,0,0)
(0,0,0)
(0,0,0)
(0,0,0)
(0,0,0)
(0,0,0)
(0,0,0)
(0,0,0)
(0,0,0)
(0,0,0)
(0,0,0)
(0,0,0)
(0,0,0)
(0,0,0)
(0,0,0)
(0,0,0)
(0,0,0)
(0,0,0)
(0,0,0)
(0,0,0)
(0,0,0)
(0,0,0)
(0,0,0)
(0,0,0)
(0,0,0)
(0,0,0)
(0,0,0)
(0,0,0)
(0,0,0)
(0,0,0)
(0,0,0)
(0,0,0)
(0,0,0)
(0,0,0)
(0,0,0)
(0,0,0)
(0,0,0)
(0,0,0)
(0,0,0)
(0,0,0)
(0,0,0)
(0,0,0)
(0,0,0)
(0,0,0)
(0,0,0)
(0,0,0)
(0,0,0)
(0,0,0)
(0,0,0)
(0,0,0)
(0,0,0)
(0,0,0)
(0,0,0)
(0,0,0)
(0,0,0)
(0,0,0)
(0,0,0)
(0,0,0)
(21404560.1539433,68667.9360696186,59341.3571993997)
(21390657.8178837,65441.2282030098,127511.092028724)
(21358616.2463418,58509.9451385355,215371.383677385)
(21298639.9343646,47215.1693881206,338009.899696406)
(21191861.5583506,31329.6754174964,517536.388212241)
(21001872.5428464,12341.4311410024,787907.721745378)
(20653384.0687442,-4697.04810704011,1209940.42855748)
(19964729.6716052,-12209.4143250591,1941648.18126981)
(18410877.0367333,-10127.3135441211,3580224.40758536)
(14190932.1846124,-4973.49977425466,8789284.84819196)
(0,0,0)
(0,0,0)
(0,0,0)
(0,0,0)
(0,0,0)
(0,0,0)
(21390375.6901592,146464.264824877,56098.2286266008)
(21376397.9825608,140356.437184514,120627.039968009)
(21344056.7111325,127123.351878231,204202.288511524)
(21282925.3605097,105129.478051744,322256.767112582)
(21173198.555515,73013.5267028251,498647.195417009)
(20977869.2945403,32485.3395173025,770924.341291717)
(20624064.2233717,-6167.62101526744,1202417.39947389)
(19938295.9215962,-22661.4853712407,1943662.18403111)
(18394442.8239273,-16942.7293201746,3585273.95199001)
(14183731.2213426,-7257.82288693686,8794132.73389196)
(0,0,0)
(0,0,0)
(0,0,0)
(0,0,0)
(0,0,0)
(0,0,0)
(21358153.4631215,243538.28127701,49978.3958377008)
(21344092.9453149,235364.344972591,107480.591713079)
(21311085.3420331,217509.024035841,182381.503513305)
(21247271.3294292,187076.573091512,290330.929251966)
(21129936.3205687,140362.064126354,458264.886834483)
(20918622.5506911,76528.3843735163,732344.815660924)
(20544574.8590105,8798.56468167418,1185905.12569568)
(19865347.314149,-19985.338926608,1949239.51941646)
(18352035.5545443,-9576.97989745562,3594794.21882091)
(14166149.2076241,-474.395316634202,8801176.53503782)
(0,0,0)
(0,0,0)
(0,0,0)
(0,0,0)
(0,0,0)
(0,0,0)
(21298774.9360383,372552.43649466,41804.1525702754)
(21284754.6706559,363613.434686934,89655.7295663081)
(21250936.5420238,344051.307968436,152012.576326093)
(21182945.987497,310295.758165981,243784.79583271)
(21051614.3004061,256790.249380684,394601.74284797)
(20804161.6440578,178316.987142826,664666.894581727)
(20367943.610868,83114.5176767661,1157048.79629671)
(19699335.2174176,36634.3175784446,1959485.5415888)
(18266326.5282215,40318.3421778543,3603709.27871374)
(14133230.6267278,28449.7795430332,8801448.68446628)
(0,0,0)
(0,0,0)
(0,0,0)
(0,0,0)
(0,0,0)
(0,0,0)
(21194168.3422282,551210.804658599,32889.5735753903)
(21180486.9078875,542920.391684608,70118.9627656572)
(21146478.8900257,524972.427712083,118297.789710532)
(21074934.7428812,494687.739669951,190377.851172937)
(20927607.3650671,448307.317044789,316231.992106925)
(20625950.8187181,383445.712088351,569494.500454618)
(20050300.13295,306884.997275302,1110505.38713337)
(19391519.6935472,239838.80764351,1963036.73153934)
(18131963.3331808,175418.819029124,3591705.47714335)
(14084237.7807587,94841.3444167217,8772881.49591882)
(0,0,0)
(0,0,0)
(0,0,0)
(0,0,0)
(0,0,0)
(0,0,0)
(21008134.6419688,808934.217051549,24615.9828907209)
(20995386.7458253,802117.436894276,52251.6779278468)
(20963012.424013,787593.448095371,88108.5758735626)
(20892807.5689361,763702.277038977,144050.57834181)
(20743791.044893,727587.887335226,251404.462909437)
(20433477.4121973,675119.266004893,492977.640349222)
(19850495.5767546,602450.383139314,1043544.49354405)
(19220786.9099184,509452.872227728,1898638.68422246)
(18017450.5190269,371084.346006994,3511098.28501526)
(14028055.3048291,196262.886466339,8678069.73797747)
(0,0,0)
(0,0,0)
(0,0,0)
(0,0,0)
(0,0,0)
(0,0,0)
(20663327.1930106,1206885.7147649,17783.5313842928)
(20652199.7672581,1201625.73815547,37812.5548794562)
(20623498.1665698,1190723.00524843,64306.6238257657)
(20559779.7623043,1173445.35065491,107963.319461669)
(20420846.3291363,1147779.38801276,198984.712455369)
(20124110.5250656,1107825.33800112,420400.793792101)
(19558677.1720269,1038240.61365767,950664.45344697)
(18990390.5267007,914806.390316635,1760354.03460639)
(17847901.8261931,668199.136490259,3336382.28055815)
(13932222.3920535,357232.153228815,8481977.95688377)
(0,0,0)
(0,0,0)
(0,0,0)
(0,0,0)
(0,0,0)
(0,0,0)
(19974143.3157146,1912592.9278949,12546.6248288318)
(19965344.8211593,1908315.95708825,27032.2255952863)
(19942484.4470849,1899638.24358492,47154.4726641043)
(19891005.629037,1886231.59096332,82402.0789231491)
(19776507.895004,1866858.27333693,159177.56642227)
(19524779.2286389,1835682.93288605,351006.899370153)
(19029891.9673045,1764127.02034111,827396.393749834)
(18659257.7939829,1542699.6679224,1513905.49969072)
(17505927.6639988,1181812.88337945,3025671.32239951)
(13710434.0173972,675965.711490531,8125050.68909383)
(0,0,0)
(0,0,0)
(0,0,0)
(0,0,0)
(0,0,0)
(0,0,0)
(18416329.8230856,3532820.86931244,8354.98939896027)
(18410400.2259482,3528668.74665145,18496.2810139845)
(18395123.7395928,3519795.76918491,33906.4529536203)
(18361423.2540993,3504323.83141651,63220.558181918)
(18289744.930863,3476867.0284871,128251.949189203)
(18143977.5507726,3422254.20058333,279725.89049494)
(17881247.5476257,3299475.94866972,606175.601557335)
(17512132.5112293,3020045.12466494,1153252.19974451)
(16469989.8801785,2526253.14000844,2520220.05859861)
(13035842.5950073,1647093.65423923,7449543.04773108)
(0,0,0)
(0,0,0)
(0,0,0)
(0,0,0)
(0,0,0)
(0,0,0)
(14192972.2412327,8733166.25334822,4305.71254551182)
(14190013.311653,8728815.93030959,9751.86193922291)
(14182515.0082179,8719009.2635141,18557.5974307933)
(14166310.6036931,8700413.33997314,35943.6789882318)
(14132970.7951982,8664350.61540904,73944.874824362)
(14067469.8723452,8590090.5250157,157237.876079171)
(13946206.2027471,8432550.78089675,327000.090579769)
(13713912.6676727,8105230.05258632,659731.676292194)
(13036370.646036,7445145.67721185,1641395.00190027)
(10599732.0917834,5803364.91199654,5802849.05277782)
(0,0,0)
(0,0,0)
(0,0,0)
(0,0,0)
(0,0,0)
(0,0,0)
(0,0,0)
(0,0,0)
(0,0,0)
(0,0,0)
(0,0,0)
(0,0,0)
(0,0,0)
(0,0,0)
(0,0,0)
(0,0,0)
(0,0,0)
(0,0,0)
(0,0,0)
(0,0,0)
(0,0,0)
(0,0,0)
(0,0,0)
(0,0,0)
(0,0,0)
(0,0,0)
(0,0,0)
(0,0,0)
(0,0,0)
(0,0,0)
(0,0,0)
(0,0,0)
(0,0,0)
(0,0,0)
(0,0,0)
(0,0,0)
(0,0,0)
(0,0,0)
(0,0,0)
(0,0,0)
(0,0,0)
(0,0,0)
(0,0,0)
(0,0,0)
(0,0,0)
(0,0,0)
(0,0,0)
(0,0,0)
(0,0,0)
(0,0,0)
(0,0,0)
(0,0,0)
(0,0,0)
(0,0,0)
(0,0,0)
(0,0,0)
(0,0,0)
(0,0,0)
(0,0,0)
(0,0,0)
(0,0,0)
(0,0,0)
(0,0,0)
(0,0,0)
(0,0,0)
(0,0,0)
(0,0,0)
(0,0,0)
(0,0,0)
(0,0,0)
(0,0,0)
(0,0,0)
(0,0,0)
(0,0,0)
(0,0,0)
(0,0,0)
(0,0,0)
(0,0,0)
(0,0,0)
(0,0,0)
(0,0,0)
(0,0,0)
(0,0,0)
(0,0,0)
(0,0,0)
(0,0,0)
(0,0,0)
(0,0,0)
(0,0,0)
(0,0,0)
(0,0,0)
(0,0,0)
(0,0,0)
(0,0,0)
(0,0,0)
(0,0,0)
(0,0,0)
(0,0,0)
(0,0,0)
(0,0,0)
(0,0,0)
(0,0,0)
(-372475.178419143,54409.2984828055,45326.7909067798)
(-387857.992031799,51166.6509992883,95376.7068502025)
(-422629.671970533,43951.0604460509,155372.321743719)
(-486010.441376108,31534.3631313387,231189.091380361)
(-594526.66203506,12729.2553724001,327548.81342086)
(-775663.750978839,-11581.3566074688,439367.220880879)
(-1071808.76336666,-33967.6268565192,521228.436875493)
(-1540456.83881396,-38616.7069138946,387732.411235818)
(-2212374.10328226,-26533.0983352941,-639782.593386201)
(-2712134.98494003,-12145.7601118101,-5401868.90669476)
(0,0,0)
(0,0,0)
(0,0,0)
(0,0,0)
(0,0,0)
(0,0,0)
(-388738.922893011,114147.746967892,42076.9215942871)
(-403874.004537153,108000.32413676,88215.9925819351)
(-438301.580132213,94146.8991957433,143079.20212419)
(-501783.772771013,69496.3923735434,212527.063189892)
(-611981.9386165,29798.6333626522,303338.936358292)
(-798043.731704512,-26699.6106713836,417070.973694216)
(-1101113.34479762,-85618.2394710942,516599.911505224)
(-1565195.772236,-95580.6164805302,399756.271931277)
(-2224792.73247594,-59349.8084719483,-625490.704501554)
(-2716531.87481734,-24846.1811121918,-5389826.43031411)
(0,0,0)
(0,0,0)
(0,0,0)
(0,0,0)
(0,0,0)
(0,0,0)
(-425068.552837627,184158.483787098,35912.0361671618)
(-439727.189595902,175994.849551395,74438.4026904184)
(-473572.605429401,157344.910775601,118599.095600163)
(-537680.781739428,122740.378234846,173007.97793461)
(-653583.265672583,62065.9642845015,246960.990281331)
(-858792.194884666,-37896.4350916399,358273.317304506)
(-1198910.69735584,-167813.297213648,506654.688440552)
(-1650759.87886142,-185984.293626689,435866.315624228)
(-2262331.57622224,-95286.5347599122,-591129.070294043)
(-2728566.31495135,-33389.4771585758,-5365169.49464506)
(0,0,0)
(0,0,0)
(0,0,0)
(0,0,0)
(0,0,0)
(0,0,0)
(-490140.908673859,268031.692192936,27743.3933335232)
(-504012.183363239,259384.316662301,55821.5372689009)
(-536918.368870697,239640.646297026,84081.4696691884)
(-602334.589337574,202329.031158538,112474.150607269)
(-731121.360371549,132853.759047903,147122.773648685)
(-992518.51320086,189.256580935665,228417.996261898)
(-1502732.06423087,-234455.121224905,488436.252399217)
(-1930771.08216907,-271172.035483296,526431.050869707)
(-2356365.06174797,-94039.9992700593,-529423.137623458)
(-2754369.27171407,-20529.5408776093,-5331982.41843544)
(0,0,0)
(0,0,0)
(0,0,0)
(0,0,0)
(0,0,0)
(0,0,0)
(-599518.173415875,365242.886287835,19176.0785763354)
(-612245.476164922,357834.906532097,36158.6297861701)
(-643339.646015591,341486.900445589,46831.6687060646)
(-708754.784363342,312515.112290091,43035.8718462603)
(-852764.963250697,264488.303518297,14474.4127208225)
(-1221466.24414408,191037.712569368,-6256.22337822381)
(-2426568.00281282,107204.503659656,451653.044527233)
(-2877906.14801757,69138.6965475674,703468.911088274)
(-2540789.22174806,60930.5217816211,-456048.2980073)
(-2796701.42533726,38665.1071845888,-5311602.98294629)
(0,0,0)
(0,0,0)
(0,0,0)
(0,0,0)
(0,0,0)
(0,0,0)
(-779762.127458903,463990.813837868,11849.5989048408)
(-790911.852952902,458771.412975938,19912.4482664586)
(-818761.803830415,447941.54810793,17932.7854746851)
(-879583.132998698,430550.537071213,-5011.18034449275)
(-1019593.12073958,404554.783242195,-58992.7374085853)
(-1387422.78426008,365708.338242273,-90062.4095969738)
(-2534121.56982979,310644.134337547,413815.863336615)
(-2947965.94463166,279082.909074787,695325.262386704)
(-2626817.83869589,201550.105353054,-478325.206434795)
(-2839035.09027309,100412.800534887,-5350281.74765572)
(0,0,0)
(0,0,0)
(0,0,0)
(0,0,0)
(0,0,0)
(0,0,0)
(-1074194.9984856,517556.087860616,6657.67450064259)
(-1083397.5995392,514590.138171757,9137.07312931992)
(-1106836.6539564,509519.037921236,595.160869321506)
(-1159860.43230577,504497.062090049,-31010.4125122608)
(-1288434.12882946,503329.23451614,-97803.6487932313)
(-1648656.27951495,508434.334111257,-145062.083054496)
(-2844777.53912007,509398.978949757,382338.540507445)
(-3226972.51396117,583628.581277811,617856.665993512)
(-2756796.60074968,326157.725019539,-579351.769702951)
(-2908858.35509885,135393.865944429,-5450551.33093301)
(0,0,0)
(0,0,0)
(0,0,0)
(0,0,0)
(0,0,0)
(0,0,0)
(-1544054.06972629,354678.973441942,3775.25688668072)
(-1550993.19774162,353226.899930629,4177.27105587064)
(-1568902.99506462,352120.894861543,-4336.38670768374)
(-1610529.60936639,356512.232721807,-32115.5619089592)
(-1716998.09178639,379994.150746173,-92573.7343213977)
(-2047543.37677041,454800.683283946,-143916.72105761)
(-3354061.49339295,615392.174805889,456744.300810963)
(-2733701.14289159,395468.144620936,360564.431369523)
(-2860516.42384805,145744.539695849,-769877.538432654)
(-3016945.50149255,1279.95180046651,-5585683.34837165)
(0,0,0)
(0,0,0)
(0,0,0)
(0,0,0)
(0,0,0)
(0,0,0)
(-2218076.12080729,-690661.339822187,2447.01418424542)
(-2222571.52110655,-691868.024070144,3214.44226689515)
(-2234060.84407202,-692981.69337762,202.371198077875)
(-2259712.90570404,-690972.559385207,-8475.9198643073)
(-2318398.97081755,-680083.226787793,-17553.883622581)
(-2458601.49970235,-654422.35368928,16948.9608527432)
(-2765021.18540989,-635753.46907775,237064.094799089)
(-2865356.73034999,-778378.600730774,111100.838757238)
(-3128935.73606911,-907551.658390947,-913976.589881211)
(-3178426.46095566,-789152.892990433,-5586573.93210012)
(0,0,0)
(0,0,0)
(0,0,0)
(0,0,0)
(0,0,0)
(0,0,0)
(-2716430.54983373,-5459935.39000743,1377.59827890889)
(-2718639.86952788,-5461386.51115271,2250.02356949972)
(-2724151.30398254,-5463727.31161799,2362.71103753034)
(-2736034.59906437,-5466173.42331514,2609.53475205073)
(-2761273.51281313,-5468943.60938946,8414.98239223312)
(-2814082.96602736,-5477703.50247164,35949.7265743432)
(-2911628.70514091,-5514003.10570622,94735.028118098)
(-3020184.76379254,-5609063.9126695,-17781.4714507588)
(-3179386.21527061,-5591614.86402026,-795260.647487663)
(-3068227.44143649,-4796673.46712435,-4797079.78310662)
(0,0,0)
(0,0,0)
(0,0,0)
(0,0,0)
(0,0,0)
(0,0,0)
(0,0,0)
(0,0,0)
(0,0,0)
(0,0,0)
(0,0,0)
(0,0,0)
(0,0,0)
(0,0,0)
(0,0,0)
(0,0,0)
(0,0,0)
(0,0,0)
(0,0,0)
(0,0,0)
(0,0,0)
(0,0,0)
(0,0,0)
(0,0,0)
(0,0,0)
(0,0,0)
(0,0,0)
(0,0,0)
(0,0,0)
(0,0,0)
(0,0,0)
(0,0,0)
(0,0,0)
(0,0,0)
(0,0,0)
(0,0,0)
(0,0,0)
(0,0,0)
(0,0,0)
(0,0,0)
(0,0,0)
(0,0,0)
(0,0,0)
(0,0,0)
(0,0,0)
(0,0,0)
(0,0,0)
(0,0,0)
(0,0,0)
(0,0,0)
(0,0,0)
(0,0,0)
(0,0,0)
(0,0,0)
(0,0,0)
(0,0,0)
(0,0,0)
(0,0,0)
(0,0,0)
(0,0,0)
(0,0,0)
(0,0,0)
(0,0,0)
(0,0,0)
(0,0,0)
(0,0,0)
(0,0,0)
(0,0,0)
(0,0,0)
(0,0,0)
(0,0,0)
(0,0,0)
(0,0,0)
(0,0,0)
(0,0,0)
(0,0,0)
(0,0,0)
(0,0,0)
(0,0,0)
(0,0,0)
(0,0,0)
(0,0,0)
(0,0,0)
(0,0,0)
(0,0,0)
(0,0,0)
(0,0,0)
(0,0,0)
(0,0,0)
(0,0,0)
(0,0,0)
(0,0,0)
(0,0,0)
(0,0,0)
(0,0,0)
(0,0,0)
(0,0,0)
(0,0,0)
(0,0,0)
(0,0,0)
(0,0,0)
(0,0,0)
(-440493.50032188,38075.9410315357,29942.3808712013)
(-453567.147979604,35078.657657891,60572.8791611153)
(-482309.85754195,28221.9617482433,92031.1029842911)
(-532551.835930284,15796.3407431745,122776.156795289)
(-613718.234544796,-4612.9557306148,146580.685035644)
(-738557.288656909,-33815.773910218,143289.996623933)
(-917949.234429069,-63152.8601895853,52583.3278759335)
(-1140340.05938628,-63284.8598966564,-284248.591655091)
(-1318117.69048546,-38902.5081349358,-1139602.49631694)
(-1145427.24729184,-16507.1643186231,-2689803.06964651)
(0,0,0)
(0,0,0)
(0,0,0)
(0,0,0)
(0,0,0)
(0,0,0)
(-455290.8507776,77675.8357960362,26952.0331200892)
(-467639.188961879,72031.772448107,53764.1027545955)
(-494796.345410316,58818.6727642963,79662.1570166465)
(-542399.226849516,33618.8623041598,102455.089534164)
(-619899.577367947,-11715.394915387,117475.167470382)
(-741154.716801299,-87334.5154892913,114104.89414625)
(-919373.813412697,-183327.998983599,52540.5015553453)
(-1134979.89432237,-181088.408604256,-259871.827650674)
(-1309421.89467152,-96869.0254514085,-1117276.14813862)
(-1140074.99531703,-36859.5891882798,-2673380.6027693)
(0,0,0)
(0,0,0)
(0,0,0)
(0,0,0)
(0,0,0)
(0,0,0)
(-487718.593655715,119038.897143532,21286.9794705952)
(-498675.230599923,111652.120008035,40614.6729146838)
(-522697.320445852,93978.6887497469,54579.3719456822)
(-564822.970282855,58108.4161302256,57232.0066630466)
(-634590.263889309,-15414.2904285894,41937.9003929732)
(-750879.216411931,-171567.598188656,18258.0046195936)
(-947226.378536151,-471578.661802599,54824.3486189115)
(-1135341.32990977,-465937.197355713,-175745.411581294)
(-1288229.93016573,-189297.244682466,-1057418.83840675)
(-1126971.01292365,-59181.3629850944,-2636692.36663765)
(0,0,0)
(0,0,0)
(0,0,0)
(0,0,0)
(0,0,0)
(0,0,0)
(-543715.394472825,158729.603100269,13883.7798422339)
(-552664.254207988,151219.387929315,22968.5827657065)
(-572057.48308096,133318.981415322,18767.4043103967)
(-605267.628084588,96024.6937040125,-16215.8345163767)
(-659936.491556434,11339.7607077613,-114154.754467836)
(-767869.849837223,-228640.264231271,-281730.751788864)
(-1158263.5607209,-1158173.76884345,60395.851742016)
(-1218846.05329308,-1218265.58615073,100799.211661052)
(-1238923.72314513,-278451.619709465,-927487.751914791)
(-1100515.03719402,-62837.6980876661,-2577685.65133226)
(0,0,0)
(0,0,0)
(0,0,0)
(0,0,0)
(0,0,0)
(0,0,0)
(-632362.766502343,185120.761733441,6453.43445329652)
(-638959.909031065,179264.754225033,5122.50102372162)
(-652527.318378248,166146.525758099,-18517.3709563986)
(-672076.713771452,141773.052770398,-100943.800614673)
(-685944.512859992,97771.7063708231,-354196.196668442)
(-618132.287799215,25228.2567176156,-1211398.6739622)
(-8.154518376864e-05,-2.12117728939166e-05,5.2899255950875e-05)