/*--------------------------------*- C++ -*----------------------------------*\
| =========                 |                                                 |
| \\      /  F ield         | foam-extend: Open Source CFD                    |
|  \\    /   O peration     | Version:     4.0                                |
|   \\  /    A nd           | Web:         http://www.foam-extend.org         |
|    \\/     M anipulation  |                                                 |
\*---------------------------------------------------------------------------*/
FoamFile
{
    version 2.0;
    format ascii;
    class volVectorField;
    location "3483";
    object      H;
}
// * * * * * * * * * * * * * * * * * * * * * * * * * * * * * * * * * * * * * //

dimensions      [0 1 -1 0 0 0 0];

internalField   nonuniform List<vector>
4096
(
(0,0,0)
(0,0,0)
(0,0,0)
(0,0,0)
(0,0,0)
(0,0,0)
(0,0,0)
(0,0,0)
(0,0,0)
(0,0,0)
(0,0,0)
(0,0,0)
(0,0,0)
(0,0,0)
(0,0,0)
(0,0,0)
(0,0,0)
(0,0,0)
(0,0,0)
(0,0,0)
(0,0,0)
(0,0,0)
(0,0,0)
(0,0,0)
(0,0,0)
(0,0,0)
(0,0,0)
(0,0,0)
(0,0,0)
(0,0,0)
(0,0,0)
(0,0,0)
(0,0,0)
(0,0,0)
(0,0,0)
(0,0,0)
(0,0,0)
(0,0,0)
(0,0,0)
(0,0,0)
(0,0,0)
(0,0,0)
(0,0,0)
(0,0,0)
(0,0,0)
(0,0,0)
(0,0,0)
(0,0,0)
(0,0,0)
(0,0,0)
(0,0,0)
(0,0,0)
(0,0,0)
(0,0,0)
(0,0,0)
(0,0,0)
(0,0,0)
(0,0,0)
(0,0,0)
(0,0,0)
(0,0,0)
(0,0,0)
(0,0,0)
(0,0,0)
(0,0,0)
(0,0,0)
(0,0,0)
(0,0,0)
(0,0,0)
(0,0,0)
(0,0,0)
(0,0,0)
(0,0,0)
(0,0,0)
(0,0,0)
(0,0,0)
(0,0,0)
(0,0,0)
(0,0,0)
(0,0,0)
(0,0,0)
(0,0,0)
(0,0,0)
(0,0,0)
(0,0,0)
(0,0,0)
(0,0,0)
(0,0,0)
(0,0,0)
(0,0,0)
(0,0,0)
(0,0,0)
(0,0,0)
(0,0,0)
(0,0,0)
(0,0,0)
(0,0,0)
(0,0,0)
(0,0,0)
(0,0,0)
(0,0,0)
(0,0,0)
(0,0,0)
(0,0,0)
(0,0,0)
(0,0,0)
(0,0,0)
(0,0,0)
(0,0,0)
(0,0,0)
(0,0,0)
(0,0,0)
(0,0,0)
(0,0,0)
(0,0,0)
(0,0,0)
(0,0,0)
(0,0,0)
(0,0,0)
(0,0,0)
(0,0,0)
(0,0,0)
(0,0,0)
(0,0,0)
(0,0,0)
(0,0,0)
(0,0,0)
(0,0,0)
(0,0,0)
(0,0,0)
(0,0,0)
(0,0,0)
(0,0,0)
(0,0,0)
(0,0,0)
(0,0,0)
(0,0,0)
(0,0,0)
(0,0,0)
(0,0,0)
(0,0,0)
(0,0,0)
(0,0,0)
(0,0,0)
(0,0,0)
(0,0,0)
(0,0,0)
(0,0,0)
(0,0,0)
(0,0,0)
(0,0,0)
(0,0,0)
(0,0,0)
(0,0,0)
(0,0,0)
(0,0,0)
(0,0,0)
(0,0,0)
(0,0,0)
(0,0,0)
(0,0,0)
(0,0,0)
(0,0,0)
(0,0,0)
(0,0,0)
(0,0,0)
(0,0,0)
(0,0,0)
(0,0,0)
(0,0,0)
(0,0,0)
(0,0,0)
(0,0,0)
(0,0,0)
(0,0,0)
(0,0,0)
(0,0,0)
(0,0,0)
(0,0,0)
(0,0,0)
(0,0,0)
(0,0,0)
(0,0,0)
(0,0,0)
(0,0,0)
(0,0,0)
(0,0,0)
(0,0,0)
(0,0,0)
(0,0,0)
(0,0,0)
(0,0,0)
(0,0,0)
(0,0,0)
(0,0,0)
(0,0,0)
(0,0,0)
(0,0,0)
(0,0,0)
(0,0,0)
(0,0,0)
(0,0,0)
(0,0,0)
(0,0,0)
(0,0,0)
(0,0,0)
(0,0,0)
(0,0,0)
(0,0,0)
(0,0,0)
(0,0,0)
(0,0,0)
(0,0,0)
(0,0,0)
(0,0,0)
(0,0,0)
(0,0,0)
(0,0,0)
(0,0,0)
(0,0,0)
(0,0,0)
(0,0,0)
(0,0,0)
(0,0,0)
(0,0,0)
(0,0,0)
(0,0,0)
(0,0,0)
(0,0,0)
(0,0,0)
(0,0,0)
(0,0,0)
(0,0,0)
(0,0,0)
(0,0,0)
(0,0,0)
(0,0,0)
(0,0,0)
(0,0,0)
(0,0,0)
(0,0,0)
(0,0,0)
(0,0,0)
(0,0,0)
(0,0,0)
(0,0,0)
(0,0,0)
(0,0,0)
(0,0,0)
(0,0,0)
(0,0,0)
(0,0,0)
(0,0,0)
(0,0,0)
(0,0,0)
(0,0,0)
(0,0,0)
(0,0,0)
(0,0,0)
(0,0,0)
(0,0,0)
(0,0,0)
(0,0,0)
(0,0,0)
(0,0,0)
(0,0,0)
(0,0,0)
(0,0,0)
(0,0,0)
(0,0,0)
(0,0,0)
(0,0,0)
(0,0,0)
(0,0,0)
(0,0,0)
(0,0,0)
(0,0,0)
(0,0,0)
(0,0,0)
(0,0,0)
(0,0,0)
(0,0,0)
(0,0,0)
(0,0,0)
(0,0,0)
(0,0,0)
(0,0,0)
(0,0,0)
(0,0,0)
(0,0,0)
(0,0,0)
(0,0,0)
(0,0,0)
(0,0,0)
(0,0,0)
(0,0,0)
(0,0,0)
(0,0,0)
(0,0,0)
(0,0,0)
(0,0,0)
(0,0,0)
(0,0,0)
(0,0,0)
(0,0,0)
(0,0,0)
(0,0,0)
(0,0,0)
(0,0,0)
(0,0,0)
(0,0,0)
(0,0,0)
(0,0,0)
(0,0,0)
(0,0,0)
(0,0,0)
(0,0,0)
(0,0,0)
(0,0,0)
(0,0,0)
(0,0,0)
(0,0,0)
(0,0,0)
(0,0,0)
(0,0,0)
(0,0,0)
(0,0,0)
(0,0,0)
(0,0,0)
(0,0,0)
(0,0,0)
(0,0,0)
(0,0,0)
(0,0,0)
(0,0,0)
(0,0,0)
(0,0,0)
(0,0,0)
(0,0,0)
(0,0,0)
(0,0,0)
(0,0,0)
(0,0,0)
(0,0,0)
(0,0,0)
(0,0,0)
(0,0,0)
(0,0,0)
(0,0,0)
(0,0,0)
(0,0,0)
(0,0,0)
(0,0,0)
(0,0,0)
(0,0,0)
(0,0,0)
(0,0,0)
(0,0,0)
(0,0,0)
(0,0,0)
(0,0,0)
(0,0,0)
(0,0,0)
(0,0,0)
(0,0,0)
(0,0,0)
(0,0,0)
(0,0,0)
(0,0,0)
(0,0,0)
(0,0,0)
(0,0,0)
(0,0,0)
(0,0,0)
(0,0,0)
(0,0,0)
(0,0,0)
(0,0,0)
(0,0,0)
(0,0,0)
(0,0,0)
(0,0,0)
(0,0,0)
(0,0,0)
(0,0,0)
(0,0,0)
(0,0,0)
(0,0,0)
(0,0,0)
(0,0,0)
(0,0,0)
(0,0,0)
(0,0,0)
(0,0,0)
(0,0,0)
(0,0,0)
(0,0,0)
(0,0,0)
(0,0,0)
(0,0,0)
(0,0,0)
(0,0,0)
(0,0,0)
(0,0,0)
(0,0,0)
(0,0,0)
(0,0,0)
(0,0,0)
(0,0,0)
(0,0,0)
(0,0,0)
(0,0,0)
(0,0,0)
(0,0,0)
(0,0,0)
(0,0,0)
(0,0,0)
(0,0,0)
(0,0,0)
(0,0,0)
(0,0,0)
(0,0,0)
(0,0,0)
(0,0,0)
(0,0,0)
(0,0,0)
(0,0,0)
(0,0,0)
(0,0,0)
(0,0,0)
(0,0,0)
(0,0,0)
(0,0,0)
(0,0,0)
(0,0,0)
(0,0,0)
(0,0,0)
(0,0,0)
(0,0,0)
(0,0,0)
(0,0,0)
(0,0,0)
(0,0,0)
(0,0,0)
(0,0,0)
(0,0,0)
(0,0,0)
(0,0,0)
(0,0,0)
(0,0,0)
(0,0,0)
(0,0,0)
(0,0,0)
(0,0,0)
(0,0,0)
(0,0,0)
(0,0,0)
(0,0,0)
(0,0,0)
(0,0,0)
(0,0,0)
(0,0,0)
(0,0,0)
(0,0,0)
(0,0,0)
(0,0,0)
(0,0,0)
(0,0,0)
(0,0,0)
(0,0,0)
(0,0,0)
(0,0,0)
(0,0,0)
(0,0,0)
(0,0,0)
(0,0,0)
(0,0,0)
(0,0,0)
(0,0,0)
(0,0,0)
(0,0,0)
(0,0,0)
(0,0,0)
(0,0,0)
(0,0,0)
(0,0,0)
(0,0,0)
(0,0,0)
(0,0,0)
(0,0,0)
(0,0,0)
(0,0,0)
(0,0,0)
(0,0,0)
(0,0,0)
(0,0,0)
(0,0,0)
(0,0,0)
(0,0,0)
(0,0,0)
(0,0,0)
(0,0,0)
(0,0,0)
(0,0,0)
(0,0,0)
(0,0,0)
(0,0,0)
(0,0,0)
(0,0,0)
(0,0,0)
(0,0,0)
(0,0,0)
(0,0,0)
(0,0,0)
(0,0,0)
(0,0,0)
(0,0,0)
(0,0,0)
(0,0,0)
(0,0,0)
(0,0,0)
(0,0,0)
(0,0,0)
(0,0,0)
(0,0,0)
(0,0,0)
(0,0,0)
(0,0,0)
(0,0,0)
(0,0,0)
(0,0,0)
(0,0,0)
(0,0,0)
(0,0,0)
(0,0,0)
(0,0,0)
(0,0,0)
(0,0,0)
(0,0,0)
(0,0,0)
(0,0,0)
(0,0,0)
(0,0,0)
(0,0,0)
(0,0,0)
(0,0,0)
(0,0,0)
(0,0,0)
(0,0,0)
(0,0,0)
(0,0,0)
(0,0,0)
(0,0,0)
(0,0,0)
(0,0,0)
(0,0,0)
(0,0,0)
(0,0,0)
(0,0,0)
(0,0,0)
(0,0,0)
(0,0,0)
(0,0,0)
(0,0,0)
(0,0,0)
(0,0,0)
(0,0,0)
(0,0,0)
(0,0,0)
(0,0,0)
(0,0,0)
(0,0,0)
(0,0,0)
(0,0,0)
(0,0,0)
(0,0,0)
(0,0,0)
(0,0,0)
(0,0,0)
(0,0,0)
(0,0,0)
(0,0,0)
(0,0,0)
(0,0,0)
(0,0,0)
(0,0,0)
(0,0,0)
(0,0,0)
(0,0,0)
(0,0,0)
(0,0,0)
(0,0,0)
(0,0,0)
(0,0,0)
(0,0,0)
(0,0,0)
(0,0,0)
(0,0,0)
(0,0,0)
(0,0,0)
(0,0,0)
(0,0,0)
(0,0,0)
(0,0,0)
(0,0,0)
(0,0,0)
(0,0,0)
(0,0,0)
(0,0,0)
(0,0,0)
(0,0,0)
(0,0,0)
(0,0,0)
(0,0,0)
(0,0,0)
(0,0,0)
(0,0,0)
(0,0,0)
(0,0,0)
(0,0,0)
(0,0,0)
(0,0,0)
(0,0,0)
(0,0,0)
(0,0,0)
(0,0,0)
(0,0,0)
(0,0,0)
(0,0,0)
(0,0,0)
(0,0,0)
(0,0,0)
(0,0,0)
(0,0,0)
(0,0,0)
(0,0,0)
(0,0,0)
(0,0,0)
(0,0,0)
(0,0,0)
(0,0,0)
(0,0,0)
(0,0,0)
(0,0,0)
(0,0,0)
(0,0,0)
(0,0,0)
(0,0,0)
(0,0,0)
(0,0,0)
(0,0,0)
(0,0,0)
(0,0,0)
(0,0,0)
(0,0,0)
(0,0,0)
(0,0,0)
(0,0,0)
(0,0,0)
(0,0,0)
(0,0,0)
(0,0,0)
(0,0,0)
(0,0,0)
(0,0,0)
(0,0,0)
(0,0,0)
(0,0,0)
(0,0,0)
(0,0,0)
(0,0,0)
(0,0,0)
(0,0,0)
(0,0,0)
(0,0,0)
(0,0,0)
(0,0,0)
(0,0,0)
(0,0,0)
(0,0,0)
(0,0,0)
(0,0,0)
(0,0,0)
(0,0,0)
(0,0,0)
(0,0,0)
(0,0,0)
(0,0,0)
(0,0,0)
(0,0,0)
(0,0,0)
(0,0,0)
(0,0,0)
(0,0,0)
(0,0,0)
(0,0,0)
(0,0,0)
(0,0,0)
(0,0,0)
(0,0,0)
(0,0,0)
(0,0,0)
(0,0,0)
(0,0,0)
(0,0,0)
(0,0,0)
(0,0,0)
(0,0,0)
(0,0,0)
(0,0,0)
(0,0,0)
(0,0,0)
(0,0,0)
(0,0,0)
(0,0,0)
(0,0,0)
(0,0,0)
(0,0,0)
(0,0,0)
(0,0,0)
(0,0,0)
(0,0,0)
(0,0,0)
(0,0,0)
(0,0,0)
(0,0,0)
(0,0,0)
(0,0,0)
(0,0,0)
(0,0,0)
(0,0,0)
(0,0,0)
(0,0,0)
(0,0,0)
(0,0,0)
(0,0,0)
(0,0,0)
(0,0,0)
(0,0,0)
(0,0,0)
(0,0,0)
(0,0,0)
(0,0,0)
(0,0,0)
(0,0,0)
(0,0,0)
(0,0,0)
(0,0,0)
(0,0,0)
(0,0,0)
(0,0,0)
(0,0,0)
(0,0,0)
(0,0,0)
(0,0,0)
(0,0,0)
(0,0,0)
(0,0,0)
(0,0,0)
(0,0,0)
(0,0,0)
(0,0,0)
(0,0,0)
(0,0,0)
(0,0,0)
(0,0,0)
(0,0,0)
(0,0,0)
(0,0,0)
(0,0,0)
(0,0,0)
(0,0,0)
(0,0,0)
(0,0,0)
(0,0,0)
(0,0,0)
(0,0,0)
(0,0,0)
(0,0,0)
(0,0,0)
(0,0,0)
(0,0,0)
(0,0,0)
(0,0,0)
(0,0,0)
(0,0,0)
(0,0,0)
(0,0,0)
(0,0,0)
(0,0,0)
(0,0,0)
(0,0,0)
(0,0,0)
(0,0,0)
(0,0,0)
(0,0,0)
(0,0,0)
(0,0,0)
(0,0,0)
(0,0,0)
(0,0,0)
(0,0,0)
(0,0,0)
(0,0,0)
(0,0,0)
(0,0,0)
(0,0,0)
(0,0,0)
(0,0,0)
(0,0,0)
(0,0,0)
(0,0,0)
(0,0,0)
(0,0,0)
(0,0,0)
(0,0,0)
(0,0,0)
(0,0,0)
(0,0,0)
(9.68511446764004e-13,1.04253595438281e-11,-1.24646182080854e-11)
(2.02056068981633e-12,2.24655345415528e-11,-1.18594674781102e-11)
(2.12866794751249e-12,3.81032675756543e-11,-1.05858653193142e-11)
(1.66422633579097e-12,6.02687274726092e-11,-8.79005484240633e-12)
(9.65466933167876e-13,9.50813323981922e-11,-6.71056111066307e-12)
(-7.24919302404493e-13,1.49086667320422e-10,-4.20761262055563e-12)
(-2.62841067270404e-12,2.38243582261676e-10,-2.08880849994391e-12)
(-4.82497516988153e-12,3.86264228313444e-10,-8.66824920682041e-13)
(-6.25609223962546e-12,6.28801918835848e-10,-4.00407020113222e-13)
(-7.06480942369533e-12,9.67674859974553e-10,-1.78287809972359e-13)
(0,0,0)
(0,0,0)
(0,0,0)
(0,0,0)
(0,0,0)
(0,0,0)
(1.04902121303464e-12,1.02118411187566e-11,-2.53185650252761e-11)
(2.05646850935487e-12,2.2069351637161e-11,-2.4283618820086e-11)
(2.55186478514109e-12,3.68852180999131e-11,-2.18302869454984e-11)
(2.50107483514071e-12,5.85630617448468e-11,-1.83846275419997e-11)
(2.37705278224496e-12,9.28977836638133e-11,-1.43909494624691e-11)
(2.74137456927966e-13,1.47239882780579e-10,-9.64776850218649e-12)
(-3.33041953566966e-12,2.37012510389594e-10,-5.71453736330875e-12)
(-6.92234228101246e-12,3.85821495691696e-10,-3.59490468777147e-12)
(-9.4320964270312e-12,6.29179658568974e-10,-2.12688974731979e-12)
(-1.16276139644721e-11,9.688686016971e-10,-9.63807677049386e-13)
(0,0,0)
(0,0,0)
(0,0,0)
(0,0,0)
(0,0,0)
(0,0,0)
(1.86540223389305e-13,9.33929768669485e-12,-4.13992464988604e-11)
(-1.00082154741439e-13,2.04216218098558e-11,-3.98885592425895e-11)
(7.91208434772515e-13,3.39771788711366e-11,-3.68852300518843e-11)
(1.15416190843609e-12,5.47470119916987e-11,-3.24527098612174e-11)
(1.20286172286519e-12,8.84740963687621e-11,-2.67520527712996e-11)
(-6.26433457096017e-14,1.43559736538503e-10,-1.98993543419928e-11)
(-3.05695226472715e-12,2.3458956956444e-10,-1.3348005736242e-11)
(-7.03855671929739e-12,3.84640363386355e-10,-9.18534698083869e-12)
(-1.05041649665932e-11,6.29130505321308e-10,-5.83495930041184e-12)
(-1.36103556636536e-11,9.69325918418243e-10,-2.77932072434767e-12)
(0,0,0)
(0,0,0)
(0,0,0)
(0,0,0)
(0,0,0)
(0,0,0)
(-5.90489911124432e-13,7.75300703662546e-12,-6.4108394029603e-11)
(-2.08303554386091e-12,1.74466233216186e-11,-6.25267763154729e-11)
(-1.33853527645025e-12,2.93743323422046e-11,-5.95249307895526e-11)
(-8.72318748768698e-13,4.85855678440337e-11,-5.50187058777454e-11)
(-4.80490153211424e-13,8.10517444086076e-11,-4.85946712644359e-11)
(-6.61887477993772e-13,1.36341861031537e-10,-4.02661371695662e-11)
(-2.38309063861153e-12,2.29421170942375e-10,-3.1273331814414e-11)
(-5.87040426153627e-12,3.81601752286014e-10,-2.36116229431893e-11)
(-1.00976541851196e-11,6.26899411676552e-10,-1.61140457267022e-11)
(-1.30409708151164e-11,9.67257171079376e-10,-8.2867622319843e-12)
(0,0,0)
(0,0,0)
(0,0,0)
(0,0,0)
(0,0,0)
(0,0,0)
(-7.36252162269136e-13,6.03731395363263e-12,-9.87139912432663e-11)
(-2.7751311429386e-12,1.40702622122999e-11,-9.75709627839463e-11)
(-3.0281176585331e-12,2.44431098151066e-11,-9.47718441530205e-11)
(-3.63517834431894e-12,4.15650225347837e-11,-9.04065839719034e-11)
(-3.56797232613615e-12,7.16293746798759e-11,-8.42972230750816e-11)
(-2.68631257315953e-12,1.25495134066967e-10,-7.58539156198127e-11)
(-2.94548524044308e-12,2.19653981147648e-10,-6.58925096470818e-11)
(-4.0113361824985e-12,3.74419606587971e-10,-5.28230697264123e-11)
(-6.78494036997907e-12,6.19765833284996e-10,-3.73797895856737e-11)
(-8.6888994192202e-12,9.59660057682103e-10,-1.95296535675959e-11)
(0,0,0)
(0,0,0)
(0,0,0)
(0,0,0)
(0,0,0)
(0,0,0)
(-1.96570883496715e-12,4.90146375925557e-12,-1.51724092238141e-10)
(-4.58265678986609e-12,1.08583590216521e-11,-1.50649537397507e-10)
(-5.40904210667187e-12,1.94347420754221e-11,-1.48609507630105e-10)
(-6.18420277601304e-12,3.44758299297445e-11,-1.44945753244591e-10)
(-6.93902433914071e-12,6.13862781244094e-11,-1.39162335948312e-10)
(-6.06114466836948e-12,1.1282062386225e-10,-1.30555041588956e-10)
(-4.20828503592106e-12,2.06816878836191e-10,-1.18221442744487e-10)
(-2.89460219452562e-12,3.60713669508552e-10,-9.91900764219951e-11)
(-3.45886118355407e-12,6.03526252098549e-10,-7.21263790157183e-11)
(-3.77798003392089e-12,9.41686083927913e-10,-3.82876095564012e-11)
(0,0,0)
(0,0,0)
(0,0,0)
(0,0,0)
(0,0,0)
(0,0,0)
(-2.1649504631275e-12,3.89588860935599e-12,-2.37296397822988e-10)
(-5.00790470320128e-12,8.03315630443552e-12,-2.36400300983553e-10)
(-6.75349778960741e-12,1.46545093726952e-11,-2.34961898627947e-10)
(-7.50030176308904e-12,2.76204654516837e-11,-2.32292951180637e-10)
(-9.21285238990455e-12,5.1213221115296e-11,-2.27103690511379e-10)
(-9.19000612305797e-12,9.84153003774289e-11,-2.18224109062661e-10)
(-5.51065889944212e-12,1.88576163741579e-10,-2.01616848918237e-10)
(-2.3831557970108e-12,3.36031385377928e-10,-1.74312689238702e-10)
(-9.21707068638147e-13,5.7204959432757e-10,-1.30312042179059e-10)
(3.23822621452343e-13,9.05482055576481e-10,-7.10059943311536e-11)
(0,0,0)
(0,0,0)
(0,0,0)
(0,0,0)
(0,0,0)
(0,0,0)
(-2.53566237265307e-12,3.07226485592138e-12,-3.81156689514329e-10)
(-5.14179607245675e-12,5.74182939073383e-12,-3.80339523256461e-10)
(-6.96435395569927e-12,1.06752532257673e-11,-3.79158228662069e-10)
(-8.61434974571856e-12,2.16383178884977e-11,-3.77267903038524e-10)
(-1.03559433758545e-11,4.22975040464847e-11,-3.72525545033456e-10)
(-1.01617509110662e-11,8.3555726868565e-11,-3.62351942882901e-10)
(-6.35800149671975e-12,1.62072797847072e-10,-3.41021164694045e-10)
(-2.05467179295233e-12,2.93952644205187e-10,-3.00284735616529e-10)
(-5.16661475509279e-14,5.14794472811537e-10,-2.32501759486814e-10)
(1.37045103613002e-12,8.36420536684713e-10,-1.31910046553457e-10)
(0,0,0)
(0,0,0)
(0,0,0)
(0,0,0)
(0,0,0)
(0,0,0)
(-2.73406632658968e-12,2.11451703361879e-12,-6.2133879377755e-10)
(-5.3707791519754e-12,3.90944968402094e-12,-6.20647299381303e-10)
(-6.81461506201974e-12,7.38838557141288e-12,-6.19570932663472e-10)
(-8.55335658501774e-12,1.54218230451993e-11,-6.17177899100321e-10)
(-1.00760584527454e-11,3.1111672619949e-11,-6.11693977904647e-10)
(-1.06226292633541e-11,6.22885891525988e-11,-5.99033719356302e-10)
(-7.440080228968e-12,1.21783719286479e-10,-5.71570997434432e-10)
(-2.96339134220726e-12,2.27569585596189e-10,-5.16839041962305e-10)
(-3.1751089322676e-13,4.15665457243694e-10,-4.17823975482601e-10)
(2.67015506768316e-12,7.05830538939879e-10,-2.50929535902379e-10)
(0,0,0)
(0,0,0)
(0,0,0)
(0,0,0)
(0,0,0)
(0,0,0)
(-3.08526439442419e-12,1.38847129399116e-12,-9.60750936247106e-10)
(-6.22878709538082e-12,2.45766608840666e-12,-9.59667508292032e-10)
(-7.36365587274218e-12,4.04890384180476e-12,-9.58317857370567e-10)
(-8.38810555779872e-12,8.3382003064371e-12,-9.55398208208544e-10)
(-9.42070904156995e-12,1.68682326102432e-11,-9.48673500339984e-10)
(-9.76186284030998e-12,3.38705064836189e-11,-9.33498667707852e-10)
(-7.70625487564297e-12,6.6676150494511e-11,-9.00737629521892e-10)
(-3.52126307109209e-12,1.2908000077655e-10,-8.34986445952911e-10)
(-4.98936739792404e-13,2.49588548143391e-10,-7.06108248320969e-10)
(3.24930276241541e-12,4.55737079845994e-10,-4.56206273514213e-10)
(0,0,0)
(0,0,0)
(0,0,0)
(0,0,0)
(0,0,0)
(0,0,0)
(0,0,0)
(0,0,0)
(0,0,0)
(0,0,0)
(0,0,0)
(0,0,0)
(0,0,0)
(0,0,0)
(0,0,0)
(0,0,0)
(0,0,0)
(0,0,0)
(0,0,0)
(0,0,0)
(0,0,0)
(0,0,0)
(0,0,0)
(0,0,0)
(0,0,0)
(0,0,0)
(0,0,0)
(0,0,0)
(0,0,0)
(0,0,0)
(0,0,0)
(0,0,0)
(0,0,0)
(0,0,0)
(0,0,0)
(0,0,0)
(0,0,0)
(0,0,0)
(0,0,0)
(0,0,0)
(0,0,0)
(0,0,0)
(0,0,0)
(0,0,0)
(0,0,0)
(0,0,0)
(0,0,0)
(0,0,0)
(0,0,0)
(0,0,0)
(0,0,0)
(0,0,0)
(0,0,0)
(0,0,0)
(0,0,0)
(0,0,0)
(0,0,0)
(0,0,0)
(0,0,0)
(0,0,0)
(0,0,0)
(0,0,0)
(0,0,0)
(0,0,0)
(0,0,0)
(0,0,0)
(0,0,0)
(0,0,0)
(0,0,0)
(0,0,0)
(0,0,0)
(0,0,0)
(0,0,0)
(0,0,0)
(0,0,0)
(0,0,0)
(0,0,0)
(0,0,0)
(0,0,0)
(0,0,0)
(0,0,0)
(0,0,0)
(0,0,0)
(0,0,0)
(0,0,0)
(0,0,0)
(0,0,0)
(0,0,0)
(0,0,0)
(0,0,0)
(0,0,0)
(0,0,0)
(0,0,0)
(0,0,0)
(0,0,0)
(0,0,0)
(0,0,0)
(0,0,0)
(0,0,0)
(0,0,0)
(0,0,0)
(0,0,0)
(5.76879141858144e-13,2.02631269601303e-11,-2.31644579136313e-11)
(1.14314143541151e-12,4.24434744025246e-11,-2.18600596464988e-11)
(1.5509069463526e-12,7.12199835729446e-11,-1.99581661676707e-11)
(1.2903983317869e-12,1.12271336897314e-10,-1.66169489721685e-11)
(6.46067177401046e-13,1.74164399889089e-10,-1.2529253226584e-11)
(-9.9693888312723e-13,2.67728864865262e-10,-7.50539391816513e-12)
(-2.61932237980056e-12,4.18444563065384e-10,-2.8423611710881e-12)
(-4.84866044883747e-12,6.74518833316696e-10,-2.11787339383672e-13)
(-6.85595118338443e-12,1.16128374203897e-09,8.1550216103289e-13)
(-8.43683895660228e-12,2.27863247796327e-09,5.95611197619752e-13)
(0,0,0)
(0,0,0)
(0,0,0)
(0,0,0)
(0,0,0)
(0,0,0)
(8.86618439905751e-13,1.94670387871449e-11,-4.83344164859362e-11)
(1.25086646208357e-12,4.11788772823928e-11,-4.60719899936414e-11)
(2.01424461040142e-12,6.84482175251064e-11,-4.19455630545043e-11)
(2.32344650876643e-12,1.0835996635625e-10,-3.55789595000973e-11)
(2.05755911700789e-12,1.69216761009286e-10,-2.72559669219005e-11)
(2.10525600929336e-14,2.63639999059099e-10,-1.69357786064551e-11)
(-3.02711138617687e-12,4.1654985565586e-10,-7.36976549943159e-12)
(-7.20922491573683e-12,6.74337795041521e-10,-2.66499964506601e-12)
(-1.05460252491935e-11,1.16197950544249e-09,-6.21805590443471e-13)
(-1.30487383626435e-11,2.27949687385291e-09,-8.33120454596932e-14)
(0,0,0)
(0,0,0)
(0,0,0)
(0,0,0)
(0,0,0)
(0,0,0)
(2.62143617189054e-13,1.7609037630142e-11,-7.82586013368372e-11)
(-1.2841285720544e-13,3.77112520156105e-11,-7.5315513237765e-11)
(9.61534773061054e-13,6.28010772902043e-11,-6.98191775541446e-11)
(1.61494896617832e-12,1.00536905649265e-10,-6.10790041591643e-11)
(1.77251525368108e-12,1.5954281434772e-10,-4.86302165473534e-11)
(6.03883555503398e-13,2.55112755203983e-10,-3.28236743748016e-11)
(-2.05121239801398e-12,4.12477492078808e-10,-1.71529122947534e-11)
(-7.35033329958873e-12,6.73969487029406e-10,-1.0059795801763e-11)
(-1.13287098980423e-11,1.16319286319469e-09,-6.53029104380796e-12)
(-1.43209290492861e-11,2.28058085279448e-09,-3.36718797326897e-12)
(0,0,0)
(0,0,0)
(0,0,0)
(0,0,0)
(0,0,0)
(0,0,0)
(-4.564145422614e-13,1.49927730472458e-11,-1.21084386121926e-10)
(-1.70851996046402e-12,3.23149764031174e-11,-1.17686281307324e-10)
(-9.13537661165137e-13,5.41261763896137e-11,-1.11257354911116e-10)
(-2.75808052828531e-13,8.80225878766625e-11,-1.0137314272117e-10)
(6.13345480648689e-13,1.43446325311012e-10,-8.70482882798416e-11)
(1.19203413143768e-12,2.38719241554185e-10,-6.80734982680247e-11)
(-2.77609715110856e-13,4.03471217818375e-10,-4.708606415772e-11)
(-6.18583577989938e-12,6.72341478720924e-10,-3.47702280927737e-11)
(-1.07913592876732e-11,1.16250741804957e-09,-2.49236845864946e-11)
(-1.37306196487985e-11,2.27905553365832e-09,-1.3401820630811e-11)
(0,0,0)
(0,0,0)
(0,0,0)
(0,0,0)
(0,0,0)
(0,0,0)
(-7.43430427213113e-13,1.21919757372155e-11,-1.83151377929542e-10)
(-2.36234658321858e-12,2.5851488346149e-11,-1.79837236139918e-10)
(-2.38501009997051e-12,4.37571198855663e-11,-1.73542924277123e-10)
(-2.65534663610803e-12,7.25859416008416e-11,-1.64163513576925e-10)
(-1.76818322592645e-12,1.21990406808489e-10,-1.51281491195554e-10)
(2.67916587572382e-14,2.12481173359615e-10,-1.34458421483798e-10)
(-3.17782284957203e-12,3.82155261111482e-10,-1.17883168108169e-10)
(-5.74867924369057e-12,6.64398950657829e-10,-9.16486964823912e-11)
(-8.39549520183714e-12,1.15396580416179e-09,-6.44131386075542e-11)
(-1.02445792330262e-11,2.26782022325478e-09,-3.37002114420828e-11)
(0,0,0)
(0,0,0)
(0,0,0)
(0,0,0)
(0,0,0)
(0,0,0)
(-2.03468852569965e-12,9.71272730506673e-12,-2.74230772517252e-10)
(-3.79748384005534e-12,1.94757275890722e-11,-2.71361405159859e-10)
(-4.2925637894624e-12,3.31418713459861e-11,-2.66615452832406e-10)
(-5.11225559422375e-12,5.66780058459697e-11,-2.59320891732227e-10)
(-5.37326168937636e-12,9.90532004439896e-11,-2.48818597670118e-10)
(-3.98942002804824e-12,1.85035830700308e-10,-2.33727749534275e-10)
(-4.99893626379979e-12,3.60984952789862e-10,-2.13317310109599e-10)
(-5.27601547023141e-12,6.43256190442226e-10,-1.77422185662356e-10)
(-5.82097287209241e-12,1.12756296993307e-09,-1.27597245154223e-10)
(-5.86156123836534e-12,2.23707927116452e-09,-6.74152776659847e-11)
(0,0,0)
(0,0,0)
(0,0,0)
(0,0,0)
(0,0,0)
(0,0,0)
(-2.23742354912907e-12,7.13477906751575e-12,-4.17189147047697e-10)
(-4.15498014510431e-12,1.38829679864244e-11,-4.15440849430925e-10)
(-5.443189089985e-12,2.37892048106582e-11,-4.12715114788115e-10)
(-6.70741486916714e-12,4.24895509383701e-11,-4.08597662449235e-10)
(-9.1767167697795e-12,7.76823306855191e-11,-4.01806510879086e-10)
(-1.09376927586062e-11,1.54831912230566e-10,-3.8945865523874e-10)
(-6.31145268447165e-12,3.29384957849451e-10,-3.56919005139526e-10)
(-4.30506168409949e-12,5.99821240970952e-10,-3.12291121183529e-10)
(-2.97263340051884e-12,1.07198456061216e-09,-2.30617375176239e-10)
(-1.62065281725513e-12,2.17307686624886e-09,-1.24527604353881e-10)
(0,0,0)
(0,0,0)
(0,0,0)
(0,0,0)
(0,0,0)
(0,0,0)
(-2.39508080821772e-12,5.23883990393559e-12,-6.65086265184651e-10)
(-4.49071096013427e-12,9.90237840356609e-12,-6.6392015895014e-10)
(-5.56781192488718e-12,1.74793674886166e-11,-6.62411523082544e-10)
(-7.14021290749346e-12,3.33576715729571e-11,-6.59840315219336e-10)
(-9.34371409989464e-12,6.59580505393597e-11,-6.5415231238072e-10)
(-1.02253913839252e-11,1.37731609277704e-10,-6.40901067275196e-10)
(-6.8053520135787e-12,2.86396268364296e-10,-6.06391498589109e-10)
(-3.45458931381381e-12,5.21548856816456e-10,-5.327466642978e-10)
(-1.51436351294903e-12,9.69240216225651e-10,-4.10479043573415e-10)
(5.04022268078981e-14,2.05204397528732e-09,-2.33638534841361e-10)
(0,0,0)
(0,0,0)
(0,0,0)
(0,0,0)
(0,0,0)
(0,0,0)
(-2.69951498320873e-12,3.67044922584918e-12,-1.14691100980008e-09)
(-4.99536227419204e-12,6.87317128277062e-12,-1.14585226463077e-09)
(-5.86816689555888e-12,1.24671118088223e-11,-1.14441076258027e-09)
(-6.95365504192166e-12,2.45815892096586e-11,-1.1410571745153e-09)
(-8.49287699137434e-12,5.06560396165057e-11,-1.13330551305291e-09)
(-9.66726851625545e-12,1.05965764044569e-10,-1.11395696009798e-09)
(-7.06446690912176e-12,2.13783856894742e-10,-1.06789137752193e-09)
(-3.48887300227417e-12,4.0133603963377e-10,-9.71182550848926e-10)
(-1.13504137318551e-12,7.9439765121647e-10,-7.97777478342309e-10)
(1.83407825902488e-12,1.82075548164175e-09,-4.98585921156469e-10)
(0,0,0)
(0,0,0)
(0,0,0)
(0,0,0)
(0,0,0)
(0,0,0)
(-2.78022105550611e-12,2.17244453622202e-12,-2.26164425286201e-09)
(-5.12077192843981e-12,3.84972810880041e-12,-2.26012000509193e-09)
(-6.23440119296323e-12,6.70500986087198e-12,-2.25820432600475e-09)
(-6.77461311992244e-12,1.35656454203387e-11,-2.25393959576248e-09)
(-7.7273090634664e-12,2.81140807375223e-11,-2.24335600810954e-09)
(-8.65239454266581e-12,5.82429773439051e-11,-2.21856451512957e-09)
(-6.78128795014024e-12,1.16606055843696e-10,-2.16292702577328e-09)
(-3.31945992645467e-12,2.28748211152427e-10,-2.04792579340023e-09)
(-8.12363403160395e-13,4.96080374917767e-10,-1.81986326268994e-09)
(2.78010909430932e-12,1.32339150208863e-09,-1.32397783403345e-09)
(0,0,0)
(0,0,0)
(0,0,0)
(0,0,0)
(0,0,0)
(0,0,0)
(0,0,0)
(0,0,0)
(0,0,0)
(0,0,0)
(0,0,0)
(0,0,0)
(0,0,0)
(0,0,0)
(0,0,0)
(0,0,0)
(0,0,0)
(0,0,0)
(0,0,0)
(0,0,0)
(0,0,0)
(0,0,0)
(0,0,0)
(0,0,0)
(0,0,0)
(0,0,0)
(0,0,0)
(0,0,0)
(0,0,0)
(0,0,0)
(0,0,0)
(0,0,0)
(0,0,0)
(0,0,0)
(0,0,0)
(0,0,0)
(0,0,0)
(0,0,0)
(0,0,0)
(0,0,0)
(0,0,0)
(0,0,0)
(0,0,0)
(0,0,0)
(0,0,0)
(0,0,0)
(0,0,0)
(0,0,0)
(0,0,0)
(0,0,0)
(0,0,0)
(0,0,0)
(0,0,0)
(0,0,0)
(0,0,0)
(0,0,0)
(0,0,0)
(0,0,0)
(0,0,0)
(0,0,0)
(0,0,0)
(0,0,0)
(0,0,0)
(0,0,0)
(0,0,0)
(0,0,0)
(0,0,0)
(0,0,0)
(0,0,0)
(0,0,0)
(0,0,0)
(0,0,0)
(0,0,0)
(0,0,0)
(0,0,0)
(0,0,0)
(0,0,0)
(0,0,0)
(0,0,0)
(0,0,0)
(0,0,0)
(0,0,0)
(0,0,0)
(0,0,0)
(0,0,0)
(0,0,0)
(0,0,0)
(0,0,0)
(0,0,0)
(0,0,0)
(0,0,0)
(0,0,0)
(0,0,0)
(0,0,0)
(0,0,0)
(0,0,0)
(0,0,0)
(0,0,0)
(0,0,0)
(0,0,0)
(0,0,0)
(0,0,0)
(6.85690472796124e-14,2.87971776484764e-11,-3.19305907569352e-11)
(5.05845076670462e-13,5.93459158909028e-11,-2.98842261412585e-11)
(9.81455799587389e-13,9.69878635420263e-11,-2.70278001711082e-11)
(1.11407312693295e-12,1.49786242970848e-10,-2.22024828481291e-11)
(5.69846748639066e-13,2.25773839912332e-10,-1.55184982453081e-11)
(-1.5711058234746e-12,3.35174458811907e-10,-6.85243659167482e-12)
(-3.35518880276143e-12,4.96396026810739e-10,9.31370333275617e-13)
(-5.69491167444801e-12,7.29899500528991e-10,4.00884067136296e-12)
(-7.33182362316491e-12,1.06247572846208e-09,3.70016132607668e-12)
(-8.7056236493096e-12,1.47019129031273e-09,1.83609965393336e-12)
(0,0,0)
(0,0,0)
(0,0,0)
(0,0,0)
(0,0,0)
(0,0,0)
(4.82193104766039e-13,2.71337289866597e-11,-6.53329303459771e-11)
(5.92064789430702e-13,5.67315865574708e-11,-6.21428173130645e-11)
(1.29478128952654e-12,9.26755274440563e-11,-5.63196959738558e-11)
(1.82351463799694e-12,1.4367610557248e-10,-4.70046140848949e-11)
(1.41131746365682e-12,2.17968215021102e-10,-3.322424980236e-11)
(-1.01771669211923e-12,3.28557751438532e-10,-1.49189595656678e-11)
(-3.65951366409146e-12,4.94455739981658e-10,2.72091352479689e-12)
(-8.88411095780384e-12,7.31497691943702e-10,7.73177634316545e-12)
(-1.2297876545526e-11,1.06507573591693e-09,5.93747381362719e-12)
(-1.4216029349607e-11,1.47213019856702e-09,2.55166346069393e-12)
(0,0,0)
(0,0,0)
(0,0,0)
(0,0,0)
(0,0,0)
(0,0,0)
(-6.46799005091172e-14,2.4276262996618e-11,-1.04296216310981e-10)
(-2.28472927377364e-13,5.11910119870262e-11,-1.00781958182176e-10)
(8.96262279188119e-13,8.41147468737438e-11,-9.29701574115204e-11)
(1.68047912672522e-12,1.3104985554449e-10,-7.95988321313228e-11)
(2.062462117428e-12,2.01451204966301e-10,-5.83973377765487e-11)
(1.32663512532252e-12,3.1328978754628e-10,-2.83468770481992e-11)
(-1.38054630540646e-13,4.91497698783638e-10,4.99869100963229e-12)
(-9.25182974893799e-12,7.36586004490716e-10,8.9234008171306e-12)
(-1.3806367822801e-11,1.07098839136999e-09,3.38899046874476e-12)
(-1.61627978868368e-11,1.47633667417129e-09,1.62205312003751e-13)
(0,0,0)
(0,0,0)
(0,0,0)
(0,0,0)
(0,0,0)
(0,0,0)
(-1.0537220474679e-12,2.09181504057997e-11,-1.59722311021554e-10)
(-1.67395829887065e-12,4.34364860250695e-11,-1.55376197434138e-10)
(-4.28693347589721e-13,7.10860122260152e-11,-1.45983918720185e-10)
(8.35983780417761e-13,1.10351401711654e-10,-1.30150712024804e-10)
(3.09447397157846e-12,1.72361300084598e-10,-1.0489742574488e-10)
(6.44266821650092e-12,2.81142794613588e-10,-6.59546709958857e-11)
(8.72251092720847e-12,4.84534458497612e-10,-1.21297596717541e-11)
(-8.08985122355979e-12,7.47756942579638e-10,-1.15594503803286e-11)
(-1.3771609354437e-11,1.07886956265908e-09,-1.57325856055304e-11)
(-1.58971298776229e-11,1.47955498721028e-09,-1.10221880276842e-11)
(0,0,0)
(0,0,0)
(0,0,0)
(0,0,0)
(0,0,0)
(0,0,0)
(-1.57832378514655e-12,1.70786442326382e-11,-2.36987543037125e-10)
(-2.2808976880268e-12,3.42507473547881e-11,-2.32376728601383e-10)
(-1.14917226201206e-12,5.48419186916475e-11,-2.23123003196035e-10)
(3.70566737340111e-13,8.37819638583318e-11,-2.0810755773717e-10)
(4.34595342878104e-12,1.31126082813147e-10,-1.86115651371076e-10)
(1.08968809415242e-11,2.19195544184833e-10,-1.57877383963906e-10)
(-8.24198615517792e-12,4.31152217687312e-10,-1.53883281003805e-10)
(-1.18414769033084e-11,7.59402231923205e-10,-1.02714843272967e-10)
(-1.27055881365649e-11,1.08137271653643e-09,-7.16202029168153e-11)
(-1.32038385851831e-11,1.47295619661207e-09,-3.81537361597765e-11)
(0,0,0)
(0,0,0)
(0,0,0)
(0,0,0)
(0,0,0)
(0,0,0)
(-2.32610764543918e-12,1.28291965196667e-11,-3.4310998851864e-10)
(-2.95067656502309e-12,2.47716336531479e-11,-3.39458224426028e-10)
(-2.23445835403045e-12,3.81434468251321e-11,-3.32264884476742e-10)
(-1.4260947484074e-12,5.71290629828079e-11,-3.21109224944676e-10)
(9.06759932989275e-13,9.08615640148214e-11,-3.05793002484186e-10)
(5.80405901682963e-12,1.69729520171138e-10,-2.85202472184907e-10)
(-9.29406576971245e-12,4.2186468609898e-10,-2.76568377473013e-10)
(-1.16660065079823e-11,7.4573109187728e-10,-2.21973614551072e-10)
(-1.04245310387271e-11,1.05634191428074e-09,-1.55876739631795e-10)
(-9.27443398917331e-12,1.43960222517615e-09,-8.11442913046826e-11)
(0,0,0)
(0,0,0)
(0,0,0)
(0,0,0)
(0,0,0)
(0,0,0)
(-2.0897820004611e-12,8.54302574854133e-12,-4.94248733638743e-10)
(-2.90012520727634e-12,1.61712133030257e-11,-4.92245246582335e-10)
(-3.25080410633957e-12,2.3904910816354e-11,-4.88352274605883e-10)
(-4.36668707393093e-12,3.48051699319115e-11,-4.83987329066981e-10)
(-9.80029226390242e-12,5.30994613646387e-11,-4.82136076516251e-10)
(-2.63770399043765e-11,1.02370025344053e-10,-4.84074749701414e-10)
(-7.95064715561282e-12,3.88523378121411e-10,-4.1687550256714e-10)
(-7.70642353828844e-12,6.96377602536326e-10,-4.01997011267493e-10)
(-6.31805983553068e-12,9.89393331685429e-10,-2.80348710862898e-10)
(-5.11536620973874e-12,1.36272888513516e-09,-1.44819537863708e-10)
(0,0,0)
(0,0,0)
(0,0,0)
(0,0,0)
(0,0,0)
(0,0,0)
(-1.99279636345097e-12,5.64781769188338e-12,-7.17750950357476e-10)
(-2.97013970688178e-12,1.06366833058688e-11,-7.16643549287091e-10)
(-3.12676410879101e-12,1.63316401522764e-11,-7.1476198642584e-10)
(-4.05213338239421e-12,2.72052483596233e-11,-7.13316817396554e-10)
(-7.29294828256242e-12,5.35887851652099e-11,-7.13984064846289e-10)
(-1.29691148372443e-11,1.30267314284121e-10,-7.15766921815282e-10)
(-7.83777483546704e-12,3.55592289940724e-10,-6.95458483362952e-10)
(-5.5093928562419e-12,5.78288447200155e-10,-5.93689546388234e-10)
(-3.5123072358309e-12,8.57878942146669e-10,-4.34107184118804e-10)
(-2.29963896806095e-12,1.22165016018728e-09,-2.34722491048987e-10)
(0,0,0)
(0,0,0)
(0,0,0)
(0,0,0)
(0,0,0)
(0,0,0)
(-2.26025546375066e-12,3.90556669418229e-12,-1.04357819379092e-09)
(-3.41342115111128e-12,7.11988865457814e-12,-1.04257763364881e-09)
(-3.45965301132684e-12,1.17795824892858e-11,-1.04098618309251e-09)
(-3.68937271555057e-12,2.2331449109732e-11,-1.03855828473335e-09)
(-5.29947106655885e-12,4.87750706560284e-11,-1.0338901296694e-09)
(-8.01006439175076e-12,1.13637474378535e-10,-1.01994290250302e-09)
(-6.5954925305953e-12,2.51260385459554e-10,-9.75209533439269e-10)
(-4.3061170293581e-12,4.19914087831798e-10,-8.57664015180576e-10)
(-2.00932225907496e-12,6.6040496921826e-10,-6.64823604089244e-10)
(6.12136655314392e-13,9.89527323850108e-10,-3.82403823294633e-10)
(0,0,0)
(0,0,0)
(0,0,0)
(0,0,0)
(0,0,0)
(0,0,0)
(-2.1320242906346e-12,2.27295485816357e-12,-1.44673715241975e-09)
(-3.18672290664536e-12,3.9504814521469e-12,-1.44534507804173e-09)
(-3.79412157424332e-12,6.65262663359053e-12,-1.44289673340257e-09)
(-3.79255535234242e-12,1.33334963970927e-11,-1.43867621692599e-09)
(-4.40472130569007e-12,2.90723434962066e-11,-1.42880292816632e-09)
(-6.0469065559042e-12,6.42503508086594e-11,-1.40419316976705e-09)