/*--------------------------------*- C++ -*----------------------------------*\
| =========                 |                                                 |
| \\      /  F ield         | foam-extend: Open Source CFD                    |
|  \\    /   O peration     | Version:     4.0                                |
|   \\  /    A nd           | Web:         http://www.foam-extend.org         |
|    \\/     M anipulation  |                                                 |
\*---------------------------------------------------------------------------*/
FoamFile
{
    version 2.0;
    format ascii;
    class volVectorField;
    location "2362";
    object      E;
}
// * * * * * * * * * * * * * * * * * * * * * * * * * * * * * * * * * * * * * //

dimensions      [0 1 -1 0 0 0 0];

internalField   nonuniform List<vector>
4096
(
(0,0,0)
(0,0,0)
(0,0,0)
(0,0,0)
(0,0,0)
(0,0,0)
(0,0,0)
(0,0,0)
(0,0,0)
(0,0,0)
(0,0,0)
(0,0,0)
(0,0,0)
(0,0,0)
(0,0,0)
(0,0,0)
(0,0,0)
(0,0,0)
(0,0,0)
(0,0,0)
(0,0,0)
(0,0,0)
(0,0,0)
(0,0,0)
(0,0,0)
(0,0,0)
(0,0,0)
(0,0,0)
(0,0,0)
(0,0,0)
(0,0,0)
(0,0,0)
(0,0,0)
(0,0,0)
(0,0,0)
(0,0,0)
(0,0,0)
(0,0,0)
(0,0,0)
(0,0,0)
(0,0,0)
(0,0,0)
(0,0,0)
(0,0,0)
(0,0,0)
(0,0,0)
(0,0,0)
(0,0,0)
(0,0,0)
(0,0,0)
(0,0,0)
(0,0,0)
(0,0,0)
(0,0,0)
(0,0,0)
(0,0,0)
(0,0,0)
(0,0,0)
(0,0,0)
(0,0,0)
(0,0,0)
(0,0,0)
(0,0,0)
(0,0,0)
(0,0,0)
(0,0,0)
(0,0,0)
(0,0,0)
(0,0,0)
(0,0,0)
(0,0,0)
(0,0,0)
(0,0,0)
(0,0,0)
(0,0,0)
(0,0,0)
(0,0,0)
(0,0,0)
(0,0,0)
(0,0,0)
(0,0,0)
(0,0,0)
(0,0,0)
(0,0,0)
(0,0,0)
(0,0,0)
(0,0,0)
(0,0,0)
(0,0,0)
(0,0,0)
(0,0,0)
(0,0,0)
(0,0,0)
(0,0,0)
(0,0,0)
(0,0,0)
(0,0,0)
(0,0,0)
(0,0,0)
(0,0,0)
(0,0,0)
(0,0,0)
(0,0,0)
(0,0,0)
(0,0,0)
(0,0,0)
(0,0,0)
(0,0,0)
(0,0,0)
(0,0,0)
(0,0,0)
(0,0,0)
(0,0,0)
(0,0,0)
(0,0,0)
(0,0,0)
(0,0,0)
(0,0,0)
(0,0,0)
(0,0,0)
(0,0,0)
(0,0,0)
(0,0,0)
(0,0,0)
(0,0,0)
(0,0,0)
(0,0,0)
(0,0,0)
(0,0,0)
(0,0,0)
(0,0,0)
(0,0,0)
(0,0,0)
(0,0,0)
(0,0,0)
(0,0,0)
(0,0,0)
(0,0,0)
(0,0,0)
(0,0,0)
(0,0,0)
(0,0,0)
(0,0,0)
(0,0,0)
(0,0,0)
(0,0,0)
(0,0,0)
(0,0,0)
(0,0,0)
(0,0,0)
(0,0,0)
(0,0,0)
(0,0,0)
(0,0,0)
(0,0,0)
(0,0,0)
(0,0,0)
(0,0,0)
(0,0,0)
(0,0,0)
(0,0,0)
(0,0,0)
(0,0,0)
(0,0,0)
(0,0,0)
(0,0,0)
(0,0,0)
(0,0,0)
(0,0,0)
(0,0,0)
(0,0,0)
(0,0,0)
(0,0,0)
(0,0,0)
(0,0,0)
(0,0,0)
(0,0,0)
(0,0,0)
(0,0,0)
(0,0,0)
(0,0,0)
(0,0,0)
(0,0,0)
(0,0,0)
(0,0,0)
(0,0,0)
(0,0,0)
(0,0,0)
(0,0,0)
(0,0,0)
(0,0,0)
(0,0,0)
(0,0,0)
(0,0,0)
(0,0,0)
(0,0,0)
(0,0,0)
(0,0,0)
(0,0,0)
(0,0,0)
(0,0,0)
(0,0,0)
(0,0,0)
(0,0,0)
(0,0,0)
(0,0,0)
(0,0,0)
(0,0,0)
(0,0,0)
(0,0,0)
(0,0,0)
(0,0,0)
(0,0,0)
(0,0,0)
(0,0,0)
(0,0,0)
(0,0,0)
(0,0,0)
(0,0,0)
(0,0,0)
(0,0,0)
(0,0,0)
(0,0,0)
(0,0,0)
(0,0,0)
(0,0,0)
(0,0,0)
(0,0,0)
(0,0,0)
(0,0,0)
(0,0,0)
(0,0,0)
(0,0,0)
(0,0,0)
(0,0,0)
(0,0,0)
(0,0,0)
(0,0,0)
(0,0,0)
(0,0,0)
(0,0,0)
(0,0,0)
(0,0,0)
(0,0,0)
(0,0,0)
(0,0,0)
(0,0,0)
(0,0,0)
(0,0,0)
(0,0,0)
(0,0,0)
(0,0,0)
(0,0,0)
(0,0,0)
(0,0,0)
(0,0,0)
(0,0,0)
(0,0,0)
(0,0,0)
(0,0,0)
(0,0,0)
(0,0,0)
(0,0,0)
(0,0,0)
(0,0,0)
(0,0,0)
(0,0,0)
(0,0,0)
(0,0,0)
(0,0,0)
(0,0,0)
(0,0,0)
(0,0,0)
(0,0,0)
(0,0,0)
(0,0,0)
(0,0,0)
(0,0,0)
(0,0,0)
(0,0,0)
(0,0,0)
(0,0,0)
(0,0,0)
(0,0,0)
(0,0,0)
(0,0,0)
(0,0,0)
(0,0,0)
(0,0,0)
(0,0,0)
(0,0,0)
(0,0,0)
(0,0,0)
(0,0,0)
(0,0,0)
(0,0,0)
(0,0,0)
(0,0,0)
(0,0,0)
(0,0,0)
(0,0,0)
(0,0,0)
(0,0,0)
(0,0,0)
(0,0,0)
(0,0,0)
(0,0,0)
(0,0,0)
(0,0,0)
(0,0,0)
(0,0,0)
(0,0,0)
(0,0,0)
(0,0,0)
(0,0,0)
(0,0,0)
(0,0,0)
(0,0,0)
(0,0,0)
(0,0,0)
(0,0,0)
(0,0,0)
(0,0,0)
(0,0,0)
(0,0,0)
(0,0,0)
(0,0,0)
(0,0,0)
(0,0,0)
(0,0,0)
(0,0,0)
(0,0,0)
(0,0,0)
(0,0,0)
(0,0,0)
(0,0,0)
(0,0,0)
(0,0,0)
(0,0,0)
(0,0,0)
(0,0,0)
(0,0,0)
(0,0,0)
(0,0,0)
(0,0,0)
(0,0,0)
(0,0,0)
(0,0,0)
(0,0,0)
(0,0,0)
(0,0,0)
(0,0,0)
(0,0,0)
(0,0,0)
(0,0,0)
(0,0,0)
(0,0,0)
(0,0,0)
(0,0,0)
(0,0,0)
(0,0,0)
(0,0,0)
(0,0,0)
(0,0,0)
(0,0,0)
(0,0,0)
(0,0,0)
(0,0,0)
(0,0,0)
(0,0,0)
(0,0,0)
(0,0,0)
(0,0,0)
(0,0,0)
(0,0,0)
(0,0,0)
(0,0,0)
(0,0,0)
(0,0,0)
(0,0,0)
(0,0,0)
(0,0,0)
(0,0,0)
(0,0,0)
(0,0,0)
(0,0,0)
(0,0,0)
(0,0,0)
(0,0,0)
(0,0,0)
(0,0,0)
(0,0,0)
(0,0,0)
(0,0,0)
(0,0,0)
(0,0,0)
(0,0,0)
(0,0,0)
(0,0,0)
(0,0,0)
(0,0,0)
(0,0,0)
(0,0,0)
(0,0,0)
(0,0,0)
(0,0,0)
(0,0,0)
(0,0,0)
(0,0,0)
(0,0,0)
(0,0,0)
(0,0,0)
(0,0,0)
(0,0,0)
(0,0,0)
(0,0,0)
(0,0,0)
(0,0,0)
(0,0,0)
(0,0,0)
(0,0,0)
(0,0,0)
(0,0,0)
(0,0,0)
(0,0,0)
(0,0,0)
(0,0,0)
(0,0,0)
(0,0,0)
(0,0,0)
(0,0,0)
(0,0,0)
(0,0,0)
(0,0,0)
(0,0,0)
(0,0,0)
(0,0,0)
(0,0,0)
(0,0,0)
(0,0,0)
(0,0,0)
(0,0,0)
(0,0,0)
(0,0,0)
(0,0,0)
(0,0,0)
(0,0,0)
(0,0,0)
(0,0,0)
(0,0,0)
(0,0,0)
(0,0,0)
(0,0,0)
(0,0,0)
(0,0,0)
(0,0,0)
(0,0,0)
(0,0,0)
(0,0,0)
(0,0,0)
(0,0,0)
(0,0,0)
(0,0,0)
(0,0,0)
(0,0,0)
(0,0,0)
(0,0,0)
(0,0,0)
(0,0,0)
(0,0,0)
(0,0,0)
(0,0,0)
(0,0,0)
(0,0,0)
(0,0,0)
(0,0,0)
(0,0,0)
(0,0,0)
(0,0,0)
(0,0,0)
(0,0,0)
(0,0,0)
(0,0,0)
(0,0,0)
(0,0,0)
(0,0,0)
(0,0,0)
(0,0,0)
(0,0,0)
(0,0,0)
(0,0,0)
(0,0,0)
(0,0,0)
(0,0,0)
(0,0,0)
(0,0,0)
(0,0,0)
(0,0,0)
(0,0,0)
(0,0,0)
(0,0,0)
(0,0,0)
(0,0,0)
(0,0,0)
(0,0,0)
(0,0,0)
(0,0,0)
(0,0,0)
(0,0,0)
(0,0,0)
(0,0,0)
(0,0,0)
(0,0,0)
(0,0,0)
(0,0,0)
(0,0,0)
(0,0,0)
(0,0,0)
(0,0,0)
(0,0,0)
(0,0,0)
(0,0,0)
(0,0,0)
(0,0,0)
(0,0,0)
(0,0,0)
(0,0,0)
(0,0,0)
(0,0,0)
(0,0,0)
(0,0,0)
(0,0,0)
(0,0,0)
(0,0,0)
(0,0,0)
(0,0,0)
(0,0,0)
(0,0,0)
(0,0,0)
(0,0,0)
(0,0,0)
(0,0,0)
(0,0,0)
(0,0,0)
(0,0,0)
(0,0,0)
(0,0,0)
(0,0,0)
(0,0,0)
(0,0,0)
(0,0,0)
(0,0,0)
(0,0,0)
(0,0,0)
(0,0,0)
(0,0,0)
(0,0,0)
(0,0,0)
(0,0,0)
(0,0,0)
(0,0,0)
(0,0,0)
(0,0,0)
(0,0,0)
(0,0,0)
(0,0,0)
(0,0,0)
(0,0,0)
(0,0,0)
(0,0,0)
(0,0,0)
(0,0,0)
(0,0,0)
(0,0,0)
(0,0,0)
(0,0,0)
(0,0,0)
(0,0,0)
(0,0,0)
(0,0,0)
(0,0,0)
(0,0,0)
(0,0,0)
(0,0,0)
(0,0,0)
(0,0,0)
(0,0,0)
(0,0,0)
(0,0,0)
(0,0,0)
(0,0,0)
(0,0,0)
(0,0,0)
(0,0,0)
(0,0,0)
(0,0,0)
(0,0,0)
(0,0,0)
(0,0,0)
(0,0,0)
(0,0,0)
(0,0,0)
(0,0,0)
(0,0,0)
(0,0,0)
(0,0,0)
(0,0,0)
(0,0,0)
(0,0,0)
(0,0,0)
(0,0,0)
(0,0,0)
(0,0,0)
(0,0,0)
(0,0,0)
(0,0,0)
(0,0,0)
(0,0,0)
(0,0,0)
(0,0,0)
(0,0,0)
(0,0,0)
(0,0,0)
(0,0,0)
(0,0,0)
(0,0,0)
(0,0,0)
(0,0,0)
(0,0,0)
(0,0,0)
(0,0,0)
(0,0,0)
(0,0,0)
(0,0,0)
(0,0,0)
(0,0,0)
(0,0,0)
(0,0,0)
(0,0,0)
(0,0,0)
(0,0,0)
(0,0,0)
(0,0,0)
(0,0,0)
(0,0,0)
(0,0,0)
(0,0,0)
(0,0,0)
(0,0,0)
(0,0,0)
(0,0,0)
(0,0,0)
(0,0,0)
(0,0,0)
(0,0,0)
(0,0,0)
(0,0,0)
(0,0,0)
(0,0,0)
(0,0,0)
(0,0,0)
(0,0,0)
(0,0,0)
(0,0,0)
(0,0,0)
(0,0,0)
(0,0,0)
(0,0,0)
(0,0,0)
(0,0,0)
(0,0,0)
(0,0,0)
(0,0,0)
(0,0,0)
(0,0,0)
(0,0,0)
(0,0,0)
(0,0,0)
(0,0,0)
(0,0,0)
(0,0,0)
(0,0,0)
(0,0,0)
(0,0,0)
(0,0,0)
(0,0,0)
(0,0,0)
(0,0,0)
(0,0,0)
(0,0,0)
(0,0,0)
(0,0,0)
(0,0,0)
(0,0,0)
(0,0,0)
(0,0,0)
(0,0,0)
(0,0,0)
(0,0,0)
(0,0,0)
(0,0,0)
(0,0,0)
(0,0,0)
(0,0,0)
(0,0,0)
(0,0,0)
(0,0,0)
(0,0,0)
(0,0,0)
(0,0,0)
(0,0,0)
(0,0,0)
(0,0,0)
(0,0,0)
(0,0,0)
(0,0,0)
(0,0,0)
(0,0,0)
(0,0,0)
(0,0,0)
(0,0,0)
(0,0,0)
(0,0,0)
(0,0,0)
(0,0,0)
(0,0,0)
(0,0,0)
(0,0,0)
(0,0,0)
(0,0,0)
(0,0,0)
(0,0,0)
(0,0,0)
(0,0,0)
(0,0,0)
(0,0,0)
(0,0,0)
(0,0,0)
(0,0,0)
(0,0,0)
(0,0,0)
(0,0,0)
(0,0,0)
(0,0,0)
(0,0,0)
(0,0,0)
(0,0,0)
(0,0,0)
(0,0,0)
(0,0,0)
(0,0,0)
(0,0,0)
(0,0,0)
(0,0,0)
(0,0,0)
(0,0,0)
(0,0,0)
(0,0,0)
(0,0,0)
(0,0,0)
(0,0,0)
(0,0,0)
(0,0,0)
(0,0,0)
(0,0,0)
(0,0,0)
(0,0,0)
(0,0,0)
(0,0,0)
(0,0,0)
(0,0,0)
(0,0,0)
(0,0,0)
(0,0,0)
(0,0,0)
(0,0,0)
(0,0,0)
(0,0,0)
(0,0,0)
(0,0,0)
(0,0,0)
(0,0,0)
(0,0,0)
(0,0,0)
(0,0,0)
(0,0,0)
(0,0,0)
(0,0,0)
(0,0,0)
(0,0,0)
(0,0,0)
(0,0,0)
(0,0,0)
(0,0,0)
(0,0,0)
(0,0,0)
(0,0,0)
(0,0,0)
(0,0,0)
(0,0,0)
(0,0,0)
(0,0,0)
(0,0,0)
(0,0,0)
(0,0,0)
(0,0,0)
(0,0,0)
(0,0,0)
(0,0,0)
(0,0,0)
(0,0,0)
(0,0,0)
(0,0,0)
(0,0,0)
(0,0,0)
(0,0,0)
(0,0,0)
(0,0,0)
(0,0,0)
(-127725.68430669,68167.2502112157,59558.4340954725)
(-135069.483033225,65349.1177899848,129278.799338713)
(-152075.192025899,59469.1254688703,221884.865895742)
(-184193.320463462,50245.3178963108,355832.868462899)
(-242152.666465698,37827.7886590826,560157.746269523)
(-346213.621186315,23582.7222204977,882788.645235334)
(-534635.415144942,10630.4942320376,1406793.56614826)
(-875157.66328823,2711.87174433441,2279239.3576922)
(-1443435.91746724,55.7518141691747,3722619.52334524)
(-2011217.81344562,-216.412507534519,5734053.74929843)
(0,0,0)
(0,0,0)
(0,0,0)
(0,0,0)
(0,0,0)
(0,0,0)
(-135079.872687623,146439.713519441,56807.4093793955)
(-142506.967848729,141157.889246032,123505.605772083)
(-159793.197463035,129993.638446063,212774.290257922)
(-192668.994613311,112169.014552255,343519.588215295)
(-252213.169740411,87606.3802479541,545954.166366823)
(-358778.835234071,58460.6754877962,869855.048333595)
(-549289.580855003,30899.8925015131,1398875.23091912)
(-888526.555821465,13473.521568257,2276640.13691658)
(-1452353.54388444,6592.29571261632,3722457.13690263)
(-2015376.76513396,3318.20570019862,5734299.28382878)
(0,0,0)
(0,0,0)
(0,0,0)
(0,0,0)
(0,0,0)
(0,0,0)
(-151871.303157931,246720.697014338,51590.3196630343)
(-159438.746581402,239657.30554361,112529.64994686)
(-177272.619388804,224554.786041942,195241.12173979)
(-211801.744981821,199974.075400133,319237.805873735)
(-275162.98350441,164994.82088541,517012.348740677)
(-388338.601036605,121362.037678144,842449.587586933)
(-585418.070678194,77204.0054578744,1381563.54530878)
(-921795.960692899,46897.298636794,2269935.72893312)
(-1473774.20595236,30883.4460094455,3719418.78458869)
(-2025063.85825673,16685.3522631805,5731115.49628248)
(0,0,0)
(0,0,0)
(0,0,0)
(0,0,0)
(0,0,0)
(0,0,0)
(-183161.756218266,385343.452235537,44539.0009970675)
(-190846.005533059,377461.830905727,97580.4811680119)
(-209360.378005838,360544.976108918,170950.669106867)
(-246291.117422633,332654.113742546,284561.74818708)
(-315966.86897976,291872.022017626,473651.416034631)
(-441846.393757419,238326.152821845,798533.694648353)
(-654575.41432559,178879.858233849,1351433.25619796)
(-986118.652634899,130359.342113777,2254089.86535582)
(-1513007.24890539,92583.6288581503,3705396.93141246)
(-2042168.60258613,49760.6368521483,5714490.24940977)
(0,0,0)
(0,0,0)
(0,0,0)
(0,0,0)
(0,0,0)
(0,0,0)
(-239318.568802529,588012.683743065,36649.3372949975)
(-246971.175953783,580336.729312735,80745.6148417697)
(-265866.430049682,563890.280861582,143266.740138788)
(-304825.971597124,536733.968625555,244012.856852902)
(-381016.911859708,496540.65013603,420361.140594208)
(-522639.708238263,441938.681243173,739388.320411119)
(-759968.893386322,375049.545277842,1303187.52675345)
(-1084113.62755888,301146.075328861,2216514.42109725)
(-1570062.14874452,216413.492321245,3662746.70637875)
(-2066926.85663655,114655.26147807,5664778.93838936)
(0,0,0)
(0,0,0)
(0,0,0)
(0,0,0)
(0,0,0)
(0,0,0)
(-340754.252858014,899811.367929155,28955.5686719281)
(-348038.766370525,892961.099245803,64369.96510938)
(-366353.746126542,878316.53599644,116297.456101065)
(-404944.885783207,853905.833302094,204070.47720773)
(-481946.072431699,816509.866172611,366047.333602852)
(-626276.412962852,761437.596821764,672824.830987134)
(-864336.378877341,682612.353003821,1229598.40213851)
(-1173776.61966269,572494.569456698,2132026.52767336)
(-1631878.96807446,419141.328620456,3561177.65944869)
(-2098077.87005197,223718.60374612,5550192.18723244)
(0,0,0)
(0,0,0)
(0,0,0)
(0,0,0)
(0,0,0)
(0,0,0)
(-527084.630298102,1404841.54958738,22054.4486398708)
(-533568.733898359,1398903.88215285,49680.3996311977)
(-550041.490835428,1386132.23617921,91906.1902838604)
(-585278.589175557,1364291.69906276,166798.913698758)
(-656796.606980371,1328896.55450453,311208.83234721)
(-792418.281232486,1270760.12226561,594304.588135843)
(-1015847.89106288,1173014.93034452,1119749.90185803)
(-1297212.12547137,1010546.4218468,1978910.1749393)
(-1723994.26676084,756067.330946244,3365978.43937431)
(-2148887.28051622,411932.046169283,5326652.27746748)
(0,0,0)
(0,0,0)
(0,0,0)
(0,0,0)
(0,0,0)
(0,0,0)
(-867850.261387307,2256555.62092907,16136.1900456209)
(-873052.076904638,2251149.23045352,36942.9186495883)
(-886353.163385895,2239254.40197995,70173.9162347604)
(-915024.678314844,2217989.14934641,131501.144265942)
(-973805.399009778,2180965.38816594,253237.709614298)
(-1086530.28091025,2113733.15260299,496794.960187159)
(-1273635.48048356,1985979.58648824,957465.784526984)
(-1501391.88141194,1744840.68863632,1724563.39914942)
(-1891162.01287504,1349815.4660508,3021977.27691992)
(-2246023.73055444,765101.072330849,4914831.98131273)
(0,0,0)
(0,0,0)
(0,0,0)
(0,0,0)
(0,0,0)
(0,0,0)
(-1438439.94351417,3684188.06796416,10807.4964790488)
(-1442001.97407265,3678794.11081309,25164.5901921429)
(-1451073.192214,3666420.88295379,49071.3014322619)
(-1470393.23343176,3642890.1704127,94563.5137977204)
(-1509224.53149361,3598648.87208189,186104.561375387)
(-1582144.2477994,3512749.09773262,369232.864045151)
(-1704614.6572675,3343282.11662463,716544.991176264)
(-1886531.68821571,3018202.02852832,1329715.33949998)
(-2199485.78827417,2441663.92276133,2437352.67106354)
(-2415442.47787801,1468058.80781872,4149837.41345368)
(0,0,0)
(0,0,0)
(0,0,0)
(0,0,0)
(0,0,0)
(0,0,0)
(-2008917.92191535,5687644.93420639,5461.05567313792)
(-2010704.36722527,5682038.59892738,12920.9347841097)
(-2015223.69539756,5668867.52629835,25697.9868371503)
(-2024721.52125901,5642893.9743494,50415.7041595043)
(-2043516.24191419,5592254.03702998,100326.781125627)
(-2078613.5039648,5491725.25217889,199964.130644138)
(-2139895.41729914,5291491.2208886,391650.443679313)
(-2243152.41467985,4899623.54889398,753381.337993466)
(-2414887.0611777,4146036.01396246,1463896.30797)
(-2432037.78425747,2682021.88298308,2681971.01706314)
(0,0,0)
(0,0,0)
(0,0,0)
(0,0,0)
(0,0,0)
(0,0,0)
(0,0,0)
(0,0,0)
(0,0,0)
(0,0,0)
(0,0,0)
(0,0,0)
(0,0,0)
(0,0,0)
(0,0,0)
(0,0,0)
(0,0,0)
(0,0,0)
(0,0,0)
(0,0,0)
(0,0,0)
(0,0,0)
(0,0,0)
(0,0,0)
(0,0,0)
(0,0,0)
(0,0,0)
(0,0,0)
(0,0,0)
(0,0,0)
(0,0,0)
(0,0,0)
(0,0,0)
(0,0,0)
(0,0,0)
(0,0,0)
(0,0,0)
(0,0,0)
(0,0,0)
(0,0,0)
(0,0,0)
(0,0,0)
(0,0,0)
(0,0,0)
(0,0,0)
(0,0,0)
(0,0,0)
(0,0,0)
(0,0,0)
(0,0,0)
(0,0,0)
(0,0,0)
(0,0,0)
(0,0,0)
(0,0,0)
(0,0,0)
(0,0,0)
(0,0,0)
(0,0,0)
(0,0,0)
(0,0,0)
(0,0,0)
(0,0,0)
(0,0,0)
(0,0,0)
(0,0,0)
(0,0,0)
(0,0,0)
(0,0,0)
(0,0,0)
(0,0,0)
(0,0,0)
(0,0,0)
(0,0,0)
(0,0,0)
(0,0,0)
(0,0,0)
(0,0,0)
(0,0,0)
(0,0,0)
(0,0,0)
(0,0,0)
(0,0,0)
(0,0,0)
(0,0,0)
(0,0,0)
(0,0,0)
(0,0,0)
(0,0,0)
(0,0,0)
(0,0,0)
(0,0,0)
(0,0,0)
(0,0,0)
(0,0,0)
(0,0,0)
(0,0,0)
(0,0,0)
(0,0,0)
(0,0,0)
(0,0,0)
(0,0,0)
(18862074.0899322,60775.577436917,52182.4148795852)
(18849775.8010324,57861.3682005984,112233.529168879)
(18821504.5179319,51705.8590095787,189705.726756891)
(18768685.7869769,41747.3195991983,297837.066272698)
(18674631.4328032,27751.3350104085,456059.398548845)
(18507306.7365114,11005.8202263163,694290.987180169)
(18200302.3038404,-4024.4787449199,1066135.51349512)
(17593529.8872699,-10664.0441625169,1710869.77365499)
(16224279.1419161,-8883.67587411301,3154796.15670121)
(12505545.3825756,-4385.47224709437,7745176.1994825)
(0,0,0)
(0,0,0)
(0,0,0)
(0,0,0)
(0,0,0)
(0,0,0)
(18849541.7187365,129540.143625139,49371.6089431659)
(18837204.3160595,124084.947998091,106194.511792924)
(18808669.8422887,112366.338576079,179828.759030054)
(18754843.6653405,92934.572649092,283886.612581805)
(18658225.2116462,64604.0731077123,439353.259653368)
(18486179.8608197,28852.8544968866,679305.2958845)
(18174459.0728594,-5254.00291492213,1059543.93289559)
(17570205.1637939,-19828.8332149988,1712734.76888822)
(16209764.1825787,-14875.9366514135,3159367.06975764)
(12499196.9293936,-6395.15112910085,7749560.82066743)
(0,0,0)
(0,0,0)
(0,0,0)
(0,0,0)
(0,0,0)
(0,0,0)
(18821141.9308564,215266.17134898,44018.5048171828)
(18808757.5222227,208012.710148774,94652.2404178051)
(18779664.565307,192214.134188243,160625.026665334)
(18723477.8059762,165282.642134213,255755.172777649)
(18620143.2513435,124045.399583558,403765.37800934)
(18433981.3982738,67731.1341639066,645324.865587346)
(18104377.1124649,7954.52030748508,1045078.92577735)
(17505870.55448,-17495.9709405085,1717837.31488556)
(16172355.4266132,-8406.54428281238,3167996.05650675)
(12483699.0652465,-438.509927789958,7756034.25835774)
(0,0,0)
(0,0,0)
(0,0,0)
(0,0,0)
(0,0,0)
(0,0,0)
(18768973.9727262,329036.489351531,36851.7196083643)
(18756611.2328263,321134.421709144,79030.5362440832)
(18726815.1557315,303860.464671663,133966.438578732)
(18666928.3488836,273999.398550973,214787.982411171)
(18551202.8592903,226730.646403846,347690.773876368)
(18333118.9993344,157467.078187837,585747.203316066)
(17948659.4305878,73436.0056366969,1019788.63962898)
(17359490.8149039,32359.7643589167,1727081.20334617)
(16096803.5422902,35522.9067304281,3176098.72769267)
(12454695.8948534,25022.0434305989,7756531.44345038)
(0,0,0)
(0,0,0)
(0,0,0)
(0,0,0)
(0,0,0)
(0,0,0)
(18677024.1454755,486440.438210133,29011.1034188171)
(18664936.1716867,479120.180810377,61875.7632324764)
(18634975.4440902,463313.62461166,104338.495708128)
(18571911.2433732,436558.45474451,167799.991099663)
(18442017.6796192,395530.241654714,278723.570925394)
(18176067.5116077,338223.748842345,502017.44698042)
(17668633.4769645,270635.871136033,978972.977685722)
(17088031.4000579,211475.912252781,1730469.56873059)
(15978336.3731327,154583.076193749,3165768.64394538)
(12411522.0013619,83518.7508026502,7731580.84513039)
(0,0,0)
(0,0,0)
(0,0,0)
(0,0,0)
(0,0,0)
(0,0,0)
(18513299.6737509,713431.886500917,21712.3916557649)
(18502003.2192847,707415.98189404,46132.371472368)
(18473412.7284715,694670.423352774,77766.8646886847)
(18411476.306382,673582.348329308,127079.545494282)
(18280076.0548016,641604.728301624,221740.698169596)
(18006481.5247616,595242.960221031,434721.315621871)
(17492597.1415177,531103.736205613,920077.696712743)
(16937633.9559188,449066.529278664,1673834.2706607)
(15877419.5535703,327000.58099094,3094876.01077419)
(12362022.3044787,172894.552584256,7648157.80101733)
(0,0,0)
(0,0,0)
(0,0,0)
(0,0,0)
(0,0,0)
(0,0,0)
(18209456.9618259,1063981.58522651,15666.4757058437)
(18199579.0791101,1059349.77895995,33342.6321869171)
(18174200.5574006,1049798.05835668,56730.7155025423)
(18117974.0528254,1034528.22295258,95289.9654337864)
(17995443.0941471,1011818.60787574,175594.15128765)
(17733812.4439444,976549.950702759,370814.202184442)
(17235389.6345093,915166.867949975,838271.311423293)
(16734563.9897315,806304.469360836,1552015.02269381)
(15727999.4747546,588837.244030621,2940942.38469393)
(12277568.8945845,314761.894893255,7475376.63383977)
(0,0,0)
(0,0,0)
(0,0,0)
(0,0,0)
(0,0,0)
(0,0,0)
(17602043.6797958,1685825.48562654,11019.924972329)
(17594231.5724215,1682062.32330021,23781.4978614122)
(17573989.464177,1674431.04744096,41563.6477696295)
(17528550.6041433,1662552.53233533,72721.8224842422)
(17427580.5185195,1645435.73037944,140476.54900658)
(17205665.2396164,1617959.35248845,309629.393249821)
(16769424.0937446,1554887.91404349,729606.539483557)
(16442931.2035016,1359625.67016768,1334720.02031852)
(15426722.0499519,1041427.36028103,2667003.60779655)
(12082138.851516,595638.130648758,7160722.55652608)
(0,0,0)
(0,0,0)
(0,0,0)
(0,0,0)
(0,0,0)
(0,0,0)
(16229195.1088841,3113641.94297581,7306.25680797956)
(16223924.5891222,3109988.88527123,16210.8981976848)
(16210349.9830303,3102144.29545014,29832.2414996438)
(16180591.2156614,3088411.38204738,55746.7092498983)
(16117413.5110994,3064159.99565742,113142.167934318)
(15988932.9311649,3016061.35564643,246720.752367506)
(15757373.4838159,2907837.86429077,534540.427592352)
(15432192.6182052,2661482.84363386,1016716.71426073)
(14513897.5432663,2226187.5042107,2221331.00534609)
(11487689.1309867,1451411.59004545,6565183.70364008)
(0,0,0)
(0,0,0)
(0,0,0)
(0,0,0)
(0,0,0)
(0,0,0)
(12507325.2446574,7696433.83079034,3722.71216808645)
(12504710.6265923,7692576.69763128,8477.67254580727)
(12498033.866307,7683866.49386214,16255.6789847072)
(12483728.7764853,7667338.24666953,31636.2831738366)
(12454375.854615,7635465.83726421,65196.1115933948)
(12396661.590018,7570077.53164817,138662.608164325)
(12289802.4205322,7431204.31528891,288356.085890351)
(12085155.2513292,7142657.7011863,581631.328884389)
(11488130.3656578,6560836.43400126,1446722.73881377)
(9340912.07843766,5114000.6663048,5113941.56641463)
(0,0,0)
(0,0,0)
(0,0,0)
(0,0,0)
(0,0,0)
(0,0,0)
(0,0,0)
(0,0,0)
(0,0,0)
(0,0,0)
(0,0,0)
(0,0,0)
(0,0,0)
(0,0,0)
(0,0,0)
(0,0,0)
(0,0,0)
(0,0,0)
(0,0,0)
(0,0,0)
(0,0,0)
(0,0,0)
(0,0,0)
(0,0,0)
(0,0,0)
(0,0,0)
(0,0,0)
(0,0,0)
(0,0,0)
(0,0,0)
(0,0,0)
(0,0,0)
(0,0,0)
(0,0,0)
(0,0,0)
(0,0,0)
(0,0,0)
(0,0,0)
(0,0,0)
(0,0,0)
(0,0,0)
(0,0,0)
(0,0,0)
(0,0,0)
(0,0,0)
(0,0,0)
(0,0,0)
(0,0,0)
(0,0,0)
(0,0,0)
(0,0,0)
(0,0,0)
(0,0,0)
(0,0,0)
(0,0,0)
(0,0,0)
(0,0,0)
(0,0,0)
(0,0,0)
(0,0,0)
(0,0,0)
(0,0,0)
(0,0,0)
(0,0,0)
(0,0,0)
(0,0,0)
(0,0,0)
(0,0,0)
(0,0,0)
(0,0,0)
(0,0,0)
(0,0,0)
(0,0,0)
(0,0,0)
(0,0,0)
(0,0,0)
(0,0,0)
(0,0,0)
(0,0,0)
(0,0,0)
(0,0,0)
(0,0,0)
(0,0,0)
(0,0,0)
(0,0,0)
(0,0,0)
(0,0,0)
(0,0,0)
(0,0,0)
(0,0,0)
(0,0,0)
(0,0,0)
(0,0,0)
(0,0,0)
(0,0,0)
(0,0,0)
(0,0,0)
(0,0,0)
(0,0,0)
(0,0,0)
(0,0,0)
(0,0,0)
(-328673.213987571,48152.9419062217,39836.5954581585)
(-342231.162131828,45215.5698854433,83870.2221814223)
(-372941.485691401,38807.7543533029,136750.704896031)
(-428803.59650858,27864.1006502227,203618.221175922)
(-524383.035653188,11297.9371116596,288576.9859652)
(-683843.861887783,-10146.1381385137,387115.955947531)
(-944675.057748312,-29854.2100897634,459189.761070601)
(-1357558.41007939,-33956.9581622723,341477.250026681)
(-1949610.40812735,-23346.6352523769,-564044.331232962)
(-2390014.91579817,-10687.2480437121,-4760554.55137076)
(0,0,0)
(0,0,0)
(0,0,0)
(0,0,0)
(0,0,0)
(0,0,0)
(-343013.251848282,100939.495477401,37010.6504580918)
(-356356.014102038,95433.8971441711,77594.8868054204)
(-386753.15043652,83160.6810255405,125907.186303036)
(-442676.865200879,61414.346663401,187119.704275779)
(-539707.573859692,26405.8358962647,267186.824441595)
(-703544.668873299,-23434.2265197521,367441.675960365)
(-970512.700671041,-75351.0243472562,455152.497192832)
(-1379381.25042114,-84147.3135284271,352171.50021849)
(-1960562.93669358,-52268.7294611697,-551337.052855736)
(-2393875.58961577,-21871.5280738696,-4749838.02037155)
(0,0,0)
(0,0,0)
(0,0,0)
(0,0,0)
(0,0,0)
(0,0,0)
(-375046.298863086,162760.744673093,31609.2139684405)
(-387956.61708297,155501.818486611,65497.665376262)
(-417808.960670572,139016.111329035,104357.994494837)
(-474263.332971381,108459.588216046,152296.125334321)
(-576311.007685714,54906.7255561543,217491.728148191)
(-757059.525893578,-33262.0773259272,315602.736566311)
(-1056757.50323892,-147832.101329704,446460.662697076)
(-1454861.39187834,-163899.433429296,384186.962400672)
(-1993677.16398508,-83969.2099253877,-520837.733092151)
(-2404477.26316044,-29420.7040443727,-4727869.9952702)
(0,0,0)
(0,0,0)
(0,0,0)
(0,0,0)
(0,0,0)
(0,0,0)
(-432223.822851712,236734.351247639,24466.4224479831)
(-444466.231876386,229103.69392107,49184.2451607644)
(-473476.655204808,211702.562985496,74031.8378852054)
(-531090.335230812,178761.234568204,98991.1090920249)
(-644564.142698967,117398.787237072,129508.282844834)
(-874926.908447154,350.619432038679,201183.72731299)
(-1324664.00943289,-206613.466732433,430530.766180894)
(-1701829.88582948,-239061.442630078,464255.709559669)
(-2076567.20943857,-82898.6781652518,-466201.837027077)
(-2427204.69653954,-18106.7538781877,-4698372.96235591)
(0,0,0)
(0,0,0)
(0,0,0)
(0,0,0)
(0,0,0)
(0,0,0)
(-528323.59127996,322385.105624594,16939.2158230495)
(-539590.327508403,315882.002445175,31929.6399386671)
(-567008.147130392,301538.326093262,41319.7014959562)
(-624671.713024854,275987.200121884,37918.9257849342)
(-751647.732372032,233478.671657079,12746.6868006575)
(-1076688.38641477,168584.855679259,-5489.41797958796)
(-2139121.66495005,94597.9309073554,398296.559739688)
(-2537255.38463718,61137.6018464646,620626.533402758)
(-2239162.90514035,53730.4893017854,-401261.122346593)
(-2464493.26895007,34061.8378221021,-4680172.21029029)
(0,0,0)
(0,0,0)
(0,0,0)
(0,0,0)
(0,0,0)
(0,0,0)
(-686879.95056825,409330.695360714,10476.2680275724)
(-696786.323436087,404772.363809723,17617.6828283287)
(-721411.050214471,395319.823001945,15902.1980501425)
(-775073.350993984,379982.169000537,-4300.88000812883)
(-898550.632856989,356901.439916056,-51854.7271640337)
(-1222848.59390033,322535.00120681,-79232.5205850636)
(-2233694.37013493,273899.685423137,364999.469996283)
(-2598471.35228639,246041.756333451,613442.857159106)
(-2315013.57442701,177633.491792792,-420784.783890078)
(-2501793.68611586,88476.3228692519,-4714141.04489802)
(0,0,0)
(0,0,0)
(0,0,0)
(0,0,0)
(0,0,0)
(0,0,0)
(-946257.729487803,456391.837626032,5895.78249293413)
(-954448.621395951,453837.085609921,8100.99464334979)
(-975202.932633916,449470.250463261,596.29066096942)
(-1022026.55465877,445019.761405857,-27198.4608156481)
(-1135457.74300238,443881.119266218,-86035.0695717595)
(-1453081.00812501,448317.396477617,-127681.779328557)
(-2507569.14914846,449112.096748042,337306.826448915)
(-2844686.8425345,514597.396135069,545244.252357774)
(-2429601.02658402,287518.79026365,-509798.311329713)
(-2563337.17521125,119335.236734392,-4802508.92195469)
(0,0,0)
(0,0,0)
(0,0,0)
(0,0,0)
(0,0,0)
(0,0,0)
(-1360418.67015699,312791.697752908,3304.72327044248)
(-1366616.5037851,311557.903812217,3674.21471925735)
(-1382494.81148664,310654.429323949,-3783.45503318671)
(-1419255.02946593,314487.999178517,-28203.8257521298)
(-1513155.28176703,335123.244030846,-81467.9167855507)
(-1804590.8229524,401050.475018014,-126702.699312703)
(-2956561.21709289,542664.966586722,402971.975130701)
(-2409349.36052001,348748.197761777,318343.970970187)
(-2520844.2049842,128502.429363836,-677831.179749226)
(-2658565.51502193,1131.88833265944,-4921681.23136498)
(0,0,0)
(0,0,0)
(0,0,0)
(0,0,0)
(0,0,0)
(0,0,0)
(-1954505.25854159,-608362.431806862,2096.73042994354)
(-1958544.99773616,-609397.467501499,2763.92204645609)
(-1968771.85755854,-610377.48919251,159.914596321576)
(-1991421.83918314,-608676.743881894,-7420.05405419792)
(-2043151.18386057,-599115.782264782,-15374.0993540133)
(-2166755.42188522,-576478.516301615,15085.478460248)
(-2436875.19513038,-559997.152508488,209238.509946227)
(-2525122.76969588,-685754.73570203,98299.0647556179)
(-2757296.19362766,-799709.608615606,-805052.926926465)
(-2800855.60745807,-695438.67436822,-4922695.39233624)
(0,0,0)
(0,0,0)
(0,0,0)
(0,0,0)
(0,0,0)
(0,0,0)
(-2393808.90704203,-4811126.40350189,1140.35683903995)
(-2395767.06750929,-4812402.25686606,1865.0737497378)
(-2400681.15997164,-4814535.39731965,1980.24160009344)
(-2411172.6704181,-4816809.36553685,2256.54360284094)
(-2433391.58271502,-4819290.43721024,7440.86932285925)
(-2479939.33977624,-4826948.61684937,31754.1331093955)
(-2565899.01231807,-4858933.38729216,83634.0341878954)
(-2661486.38714719,-4942765.7256914,-15471.1039019107)
(-2801728.44056671,-4927483.68203215,-700595.990816311)
(-2703752.5176491,-4227026.41265637,-4227101.42299681)
(0,0,0)
(0,0,0)
(0,0,0)
(0,0,0)
(0,0,0)
(0,0,0)
(0,0,0)
(0,0,0)
(0,0,0)
(0,0,0)
(0,0,0)
(0,0,0)
(0,0,0)
(0,0,0)
(0,0,0)
(0,0,0)
(0,0,0)
(0,0,0)
(0,0,0)
(0,0,0)
(0,0,0)
(0,0,0)
(0,0,0)
(0,0,0)
(0,0,0)
(0,0,0)
(0,0,0)
(0,0,0)
(0,0,0)
(0,0,0)
(0,0,0)
(0,0,0)
(0,0,0)
(0,0,0)
(0,0,0)
(0,0,0)
(0,0,0)
(0,0,0)
(0,0,0)
(0,0,0)
(0,0,0)
(0,0,0)
(0,0,0)
(0,0,0)
(0,0,0)
(0,0,0)
(0,0,0)
(0,0,0)
(0,0,0)
(0,0,0)
(0,0,0)
(0,0,0)
(0,0,0)
(0,0,0)
(0,0,0)
(0,0,0)
(0,0,0)
(0,0,0)
(0,0,0)
(0,0,0)
(0,0,0)
(0,0,0)
(0,0,0)
(0,0,0)
(0,0,0)
(0,0,0)
(0,0,0)
(0,0,0)
(0,0,0)
(0,0,0)
(0,0,0)
(0,0,0)
(0,0,0)
(0,0,0)
(0,0,0)
(0,0,0)
(0,0,0)
(0,0,0)
(0,0,0)
(0,0,0)
(0,0,0)
(0,0,0)
(0,0,0)
(0,0,0)
(0,0,0)
(0,0,0)
(0,0,0)
(0,0,0)
(0,0,0)
(0,0,0)
(0,0,0)
(0,0,0)
(0,0,0)
(0,0,0)
(0,0,0)
(0,0,0)
(0,0,0)
(0,0,0)
(0,0,0)
(0,0,0)
(0,0,0)
(0,0,0)
(-388610.770957425,33697.4241987131,26240.1327711418)
(-400137.547957527,31012.9623428105,53133.5562540345)
(-425568.671759181,24949.0607123681,80811.6816094471)
(-469855.906445299,13962.2705770992,107901.720969064)
(-541319.473426319,-4075.74221869866,128913.900960896)
(-651172.089944817,-29840.042067493,126082.171085426)
(-809112.136530012,-55620.8638892841,46140.1137564117)
(-1004953.26525889,-55714.4876320309,-250750.543432061)
(-1161570.60323853,-34223.6953310165,-1004566.65298984)
(-1009409.4330141,-14505.4788431,-2370666.65693079)
(0,0,0)
(0,0,0)
(0,0,0)
(0,0,0)
(0,0,0)
(0,0,0)
(-401641.699182009,68701.7692271651,23624.1023052737)
(-412543.912107584,63679.9232673479,47145.0393862831)
(-436556.688840853,51987.1383485155,69910.5001544715)
(-478497.473436879,29729.3374976021,89964.0414699644)
(-546714.280374515,-10309.7465716553,103204.752337747)
(-653448.984428998,-77020.2789572688,100289.304783227)
(-810375.34182556,-161556.663325666,46087.7453741344)
(-1000231.7599057,-159553.726801009,-229222.50597232)
(-1153875.22427513,-85308.7304920209,-984825.183229755)
(-1004646.89186559,-32431.9240879825,-2356127.43573511)
(0,0,0)
(0,0,0)
(0,0,0)
(0,0,0)
(0,0,0)
(0,0,0)
(-430226.015056522,105215.690862303,18665.7945583019)
(-439883.950154593,98666.9560729116,35606.0948243567)
(-461093.850306574,83052.9128285309,47825.2099803428)
(-498195.099983566,51373.1634429084,50113.1510472253)
(-559589.859997335,-13541.128366691,36623.3851538789)
(-661977.636221831,-151246.401987209,15767.6185120602)
(-834954.107319193,-415761.370417574,48168.9296842444)
(-1000559.98767011,-410832.110786546,-154854.090538456)
(-1135175.6206151,-166817.569606872,-931846.794793577)
(-993071.973621393,-52111.2932685324,-2323572.71515208)
(0,0,0)
(0,0,0)
(0,0,0)
(0,0,0)
(0,0,0)
(0,0,0)
(-479442.215913167,140213.021170517,12221.0627532488)
(-487344.730366237,133609.694420913,20156.8228951035)
(-504443.186958068,117832.303176141,16343.964300756)
(-533706.513613291,84906.9407927784,-14573.6346666368)
(-581868.250239032,10128.9842674836,-100939.639760743)
(-676959.788742744,-201507.429591447,-248645.731860916)
(-1021183.86045111,-1021104.64900199,53217.3977417144)
(-1074297.43739048,-1074442.2731241,89295.1116402711)
(-1091606.856243,-245431.538842614,-817051.272319568)
(-969696.716188003,-55336.0295514707,-2271334.51638818)
(0,0,0)
(0,0,0)
(0,0,0)
(0,0,0)
(0,0,0)
(0,0,0)
(-557245.836723085,163419.677309306,5715.58930433471)
(-563132.689339079,158335.432926311,4532.21262961178)
(-575137.067831102,146855.479175728,-16362.0426692627)
(-592411.59954342,125359.584383016,-89074.7997409313)
(-604666.03005565,86403.1963130473,-312330.71410288)
(-544869.34874074,22342.8114020716,-1067999.99277043)
(-8.81176368232457e-05,-2.39544393180782e-05,5.85182058283766e-05)