/*--------------------------------*- C++ -*----------------------------------*\
| =========                 |                                                 |
| \\      /  F ield         | foam-extend: Open Source CFD                    |
|  \\    /   O peration     | Version:     4.0                                |
|   \\  /    A nd           | Web:         http://www.foam-extend.org         |
|    \\/     M anipulation  |                                                 |
\*---------------------------------------------------------------------------*/
FoamFile
{
    version 2.0;
    format ascii;
    class volVectorField;
    location "1846";
    object      E;
}
// * * * * * * * * * * * * * * * * * * * * * * * * * * * * * * * * * * * * * //

dimensions      [0 1 -1 0 0 0 0];

internalField   nonuniform List<vector>
4096
(
(0,0,0)
(0,0,0)
(0,0,0)
(0,0,0)
(0,0,0)
(0,0,0)
(0,0,0)
(0,0,0)
(0,0,0)
(0,0,0)
(0,0,0)
(0,0,0)
(0,0,0)
(0,0,0)
(0,0,0)
(0,0,0)
(0,0,0)
(0,0,0)
(0,0,0)
(0,0,0)
(0,0,0)
(0,0,0)
(0,0,0)
(0,0,0)
(0,0,0)
(0,0,0)
(0,0,0)
(0,0,0)
(0,0,0)
(0,0,0)
(0,0,0)
(0,0,0)
(0,0,0)
(0,0,0)
(0,0,0)
(0,0,0)
(0,0,0)
(0,0,0)
(0,0,0)
(0,0,0)
(0,0,0)
(0,0,0)
(0,0,0)
(0,0,0)
(0,0,0)
(0,0,0)
(0,0,0)
(0,0,0)
(0,0,0)
(0,0,0)
(0,0,0)
(0,0,0)
(0,0,0)
(0,0,0)
(0,0,0)
(0,0,0)
(0,0,0)
(0,0,0)
(0,0,0)
(0,0,0)
(0,0,0)
(0,0,0)
(0,0,0)
(0,0,0)
(0,0,0)
(0,0,0)
(0,0,0)
(0,0,0)
(0,0,0)
(0,0,0)
(0,0,0)
(0,0,0)
(0,0,0)
(0,0,0)
(0,0,0)
(0,0,0)
(0,0,0)
(0,0,0)
(0,0,0)
(0,0,0)
(0,0,0)
(0,0,0)
(0,0,0)
(0,0,0)
(0,0,0)
(0,0,0)
(0,0,0)
(0,0,0)
(0,0,0)
(0,0,0)
(0,0,0)
(0,0,0)
(0,0,0)
(0,0,0)
(0,0,0)
(0,0,0)
(0,0,0)
(0,0,0)
(0,0,0)
(0,0,0)
(0,0,0)
(0,0,0)
(0,0,0)
(0,0,0)
(0,0,0)
(0,0,0)
(0,0,0)
(0,0,0)
(0,0,0)
(0,0,0)
(0,0,0)
(0,0,0)
(0,0,0)
(0,0,0)
(0,0,0)
(0,0,0)
(0,0,0)
(0,0,0)
(0,0,0)
(0,0,0)
(0,0,0)
(0,0,0)
(0,0,0)
(0,0,0)
(0,0,0)
(0,0,0)
(0,0,0)
(0,0,0)
(0,0,0)
(0,0,0)
(0,0,0)
(0,0,0)
(0,0,0)
(0,0,0)
(0,0,0)
(0,0,0)
(0,0,0)
(0,0,0)
(0,0,0)
(0,0,0)
(0,0,0)
(0,0,0)
(0,0,0)
(0,0,0)
(0,0,0)
(0,0,0)
(0,0,0)
(0,0,0)
(0,0,0)
(0,0,0)
(0,0,0)
(0,0,0)
(0,0,0)
(0,0,0)
(0,0,0)
(0,0,0)
(0,0,0)
(0,0,0)
(0,0,0)
(0,0,0)
(0,0,0)
(0,0,0)
(0,0,0)
(0,0,0)
(0,0,0)
(0,0,0)
(0,0,0)
(0,0,0)
(0,0,0)
(0,0,0)
(0,0,0)
(0,0,0)
(0,0,0)
(0,0,0)
(0,0,0)
(0,0,0)
(0,0,0)
(0,0,0)
(0,0,0)
(0,0,0)
(0,0,0)
(0,0,0)
(0,0,0)
(0,0,0)
(0,0,0)
(0,0,0)
(0,0,0)
(0,0,0)
(0,0,0)
(0,0,0)
(0,0,0)
(0,0,0)
(0,0,0)
(0,0,0)
(0,0,0)
(0,0,0)
(0,0,0)
(0,0,0)
(0,0,0)
(0,0,0)
(0,0,0)
(0,0,0)
(0,0,0)
(0,0,0)
(0,0,0)
(0,0,0)
(0,0,0)
(0,0,0)
(0,0,0)
(0,0,0)
(0,0,0)
(0,0,0)
(0,0,0)
(0,0,0)
(0,0,0)
(0,0,0)
(0,0,0)
(0,0,0)
(0,0,0)
(0,0,0)
(0,0,0)
(0,0,0)
(0,0,0)
(0,0,0)
(0,0,0)
(0,0,0)
(0,0,0)
(0,0,0)
(0,0,0)
(0,0,0)
(0,0,0)
(0,0,0)
(0,0,0)
(0,0,0)
(0,0,0)
(0,0,0)
(0,0,0)
(0,0,0)
(0,0,0)
(0,0,0)
(0,0,0)
(0,0,0)
(0,0,0)
(0,0,0)
(0,0,0)
(0,0,0)
(0,0,0)
(0,0,0)
(0,0,0)
(0,0,0)
(0,0,0)
(0,0,0)
(0,0,0)
(0,0,0)
(0,0,0)
(0,0,0)
(0,0,0)
(0,0,0)
(0,0,0)
(0,0,0)
(0,0,0)
(0,0,0)
(0,0,0)
(0,0,0)
(0,0,0)
(0,0,0)
(0,0,0)
(0,0,0)
(0,0,0)
(0,0,0)
(0,0,0)
(0,0,0)
(0,0,0)
(0,0,0)
(0,0,0)
(0,0,0)
(0,0,0)
(0,0,0)
(0,0,0)
(0,0,0)
(0,0,0)
(0,0,0)
(0,0,0)
(0,0,0)
(0,0,0)
(0,0,0)
(0,0,0)
(0,0,0)
(0,0,0)
(0,0,0)
(0,0,0)
(0,0,0)
(0,0,0)
(0,0,0)
(0,0,0)
(0,0,0)
(0,0,0)
(0,0,0)
(0,0,0)
(0,0,0)
(0,0,0)
(0,0,0)
(0,0,0)
(0,0,0)
(0,0,0)
(0,0,0)
(0,0,0)
(0,0,0)
(0,0,0)
(0,0,0)
(0,0,0)
(0,0,0)
(0,0,0)
(0,0,0)
(0,0,0)
(0,0,0)
(0,0,0)
(0,0,0)
(0,0,0)
(0,0,0)
(0,0,0)
(0,0,0)
(0,0,0)
(0,0,0)
(0,0,0)
(0,0,0)
(0,0,0)
(0,0,0)
(0,0,0)
(0,0,0)
(0,0,0)
(0,0,0)
(0,0,0)
(0,0,0)
(0,0,0)
(0,0,0)
(0,0,0)
(0,0,0)
(0,0,0)
(0,0,0)
(0,0,0)
(0,0,0)
(0,0,0)
(0,0,0)
(0,0,0)
(0,0,0)
(0,0,0)
(0,0,0)
(0,0,0)
(0,0,0)
(0,0,0)
(0,0,0)
(0,0,0)
(0,0,0)
(0,0,0)
(0,0,0)
(0,0,0)
(0,0,0)
(0,0,0)
(0,0,0)
(0,0,0)
(0,0,0)
(0,0,0)
(0,0,0)
(0,0,0)
(0,0,0)
(0,0,0)
(0,0,0)
(0,0,0)
(0,0,0)
(0,0,0)
(0,0,0)
(0,0,0)
(0,0,0)
(0,0,0)
(0,0,0)
(0,0,0)
(0,0,0)
(0,0,0)
(0,0,0)
(0,0,0)
(0,0,0)
(0,0,0)
(0,0,0)
(0,0,0)
(0,0,0)
(0,0,0)
(0,0,0)
(0,0,0)
(0,0,0)
(0,0,0)
(0,0,0)
(0,0,0)
(0,0,0)
(0,0,0)
(0,0,0)
(0,0,0)
(0,0,0)
(0,0,0)
(0,0,0)
(0,0,0)
(0,0,0)
(0,0,0)
(0,0,0)
(0,0,0)
(0,0,0)
(0,0,0)
(0,0,0)
(0,0,0)
(0,0,0)
(0,0,0)
(0,0,0)
(0,0,0)
(0,0,0)
(0,0,0)
(0,0,0)
(0,0,0)
(0,0,0)
(0,0,0)
(0,0,0)
(0,0,0)
(0,0,0)
(0,0,0)
(0,0,0)
(0,0,0)
(0,0,0)
(0,0,0)
(0,0,0)
(0,0,0)
(0,0,0)
(0,0,0)
(0,0,0)
(0,0,0)
(0,0,0)
(0,0,0)
(0,0,0)
(0,0,0)
(0,0,0)
(0,0,0)
(0,0,0)
(0,0,0)
(0,0,0)
(0,0,0)
(0,0,0)
(0,0,0)
(0,0,0)
(0,0,0)
(0,0,0)
(0,0,0)
(0,0,0)
(0,0,0)
(0,0,0)
(0,0,0)
(0,0,0)
(0,0,0)
(0,0,0)
(0,0,0)
(0,0,0)
(0,0,0)
(0,0,0)
(0,0,0)
(0,0,0)
(0,0,0)
(0,0,0)
(0,0,0)
(0,0,0)
(0,0,0)
(0,0,0)
(0,0,0)
(0,0,0)
(0,0,0)
(0,0,0)
(0,0,0)
(0,0,0)
(0,0,0)
(0,0,0)
(0,0,0)
(0,0,0)
(0,0,0)
(0,0,0)
(0,0,0)
(0,0,0)
(0,0,0)
(0,0,0)
(0,0,0)
(0,0,0)
(0,0,0)
(0,0,0)
(0,0,0)
(0,0,0)
(0,0,0)
(0,0,0)
(0,0,0)
(0,0,0)
(0,0,0)
(0,0,0)
(0,0,0)
(0,0,0)
(0,0,0)
(0,0,0)
(0,0,0)
(0,0,0)
(0,0,0)
(0,0,0)
(0,0,0)
(0,0,0)
(0,0,0)
(0,0,0)
(0,0,0)
(0,0,0)
(0,0,0)
(0,0,0)
(0,0,0)
(0,0,0)
(0,0,0)
(0,0,0)
(0,0,0)
(0,0,0)
(0,0,0)
(0,0,0)
(0,0,0)
(0,0,0)
(0,0,0)
(0,0,0)
(0,0,0)
(0,0,0)
(0,0,0)
(0,0,0)
(0,0,0)
(0,0,0)
(0,0,0)
(0,0,0)
(0,0,0)
(0,0,0)
(0,0,0)
(0,0,0)
(0,0,0)
(0,0,0)
(0,0,0)
(0,0,0)
(0,0,0)
(0,0,0)
(0,0,0)
(0,0,0)
(0,0,0)
(0,0,0)
(0,0,0)
(0,0,0)
(0,0,0)
(0,0,0)
(0,0,0)
(0,0,0)
(0,0,0)
(0,0,0)
(0,0,0)
(0,0,0)
(0,0,0)
(0,0,0)
(0,0,0)
(0,0,0)
(0,0,0)
(0,0,0)
(0,0,0)
(0,0,0)
(0,0,0)
(0,0,0)
(0,0,0)
(0,0,0)
(0,0,0)
(0,0,0)
(0,0,0)
(0,0,0)
(0,0,0)
(0,0,0)
(0,0,0)
(0,0,0)
(0,0,0)
(0,0,0)
(0,0,0)
(0,0,0)
(0,0,0)
(0,0,0)
(0,0,0)
(0,0,0)
(0,0,0)
(0,0,0)
(0,0,0)
(0,0,0)
(0,0,0)
(0,0,0)
(0,0,0)
(0,0,0)
(0,0,0)
(0,0,0)
(0,0,0)
(0,0,0)
(0,0,0)
(0,0,0)
(0,0,0)
(0,0,0)
(0,0,0)
(0,0,0)
(0,0,0)
(0,0,0)
(0,0,0)
(0,0,0)
(0,0,0)
(0,0,0)
(0,0,0)
(0,0,0)
(0,0,0)
(0,0,0)
(0,0,0)
(0,0,0)
(0,0,0)
(0,0,0)
(0,0,0)
(0,0,0)
(0,0,0)
(0,0,0)
(0,0,0)
(0,0,0)
(0,0,0)
(0,0,0)
(0,0,0)
(0,0,0)
(0,0,0)
(0,0,0)
(0,0,0)
(0,0,0)
(0,0,0)
(0,0,0)
(0,0,0)
(0,0,0)
(0,0,0)
(0,0,0)
(0,0,0)
(0,0,0)
(0,0,0)
(0,0,0)
(0,0,0)
(0,0,0)
(0,0,0)
(0,0,0)
(0,0,0)
(0,0,0)
(0,0,0)
(0,0,0)
(0,0,0)
(0,0,0)
(0,0,0)
(0,0,0)
(0,0,0)
(0,0,0)
(0,0,0)
(0,0,0)
(0,0,0)
(0,0,0)
(0,0,0)
(0,0,0)
(0,0,0)
(0,0,0)
(0,0,0)
(0,0,0)
(0,0,0)
(0,0,0)
(0,0,0)
(0,0,0)
(0,0,0)
(0,0,0)
(0,0,0)
(0,0,0)
(0,0,0)
(0,0,0)
(0,0,0)
(0,0,0)
(0,0,0)
(0,0,0)
(0,0,0)
(0,0,0)
(0,0,0)
(0,0,0)
(0,0,0)
(0,0,0)
(0,0,0)
(0,0,0)
(0,0,0)
(0,0,0)
(0,0,0)
(0,0,0)
(0,0,0)
(0,0,0)
(0,0,0)
(0,0,0)
(0,0,0)
(0,0,0)
(0,0,0)
(0,0,0)
(0,0,0)
(0,0,0)
(0,0,0)
(0,0,0)
(0,0,0)
(0,0,0)
(0,0,0)
(0,0,0)
(0,0,0)
(0,0,0)
(0,0,0)
(0,0,0)
(0,0,0)
(0,0,0)
(0,0,0)
(0,0,0)
(0,0,0)
(0,0,0)
(0,0,0)
(0,0,0)
(0,0,0)
(0,0,0)
(0,0,0)
(0,0,0)
(0,0,0)
(0,0,0)
(0,0,0)
(0,0,0)
(0,0,0)
(0,0,0)
(0,0,0)
(0,0,0)
(0,0,0)
(0,0,0)
(0,0,0)
(0,0,0)
(0,0,0)
(0,0,0)
(0,0,0)
(0,0,0)
(0,0,0)
(0,0,0)
(0,0,0)
(0,0,0)
(0,0,0)
(0,0,0)
(0,0,0)
(0,0,0)
(0,0,0)
(0,0,0)
(0,0,0)
(0,0,0)
(0,0,0)
(0,0,0)
(0,0,0)
(0,0,0)
(0,0,0)
(0,0,0)
(0,0,0)
(0,0,0)
(0,0,0)
(0,0,0)
(0,0,0)
(0,0,0)
(0,0,0)
(0,0,0)
(0,0,0)
(0,0,0)
(0,0,0)
(0,0,0)
(0,0,0)
(0,0,0)
(0,0,0)
(0,0,0)
(0,0,0)
(0,0,0)
(0,0,0)
(0,0,0)
(0,0,0)
(0,0,0)
(0,0,0)
(0,0,0)
(0,0,0)
(0,0,0)
(0,0,0)
(0,0,0)
(0,0,0)
(0,0,0)
(0,0,0)
(0,0,0)
(0,0,0)
(0,0,0)
(0,0,0)
(0,0,0)
(0,0,0)
(0,0,0)
(0,0,0)
(0,0,0)
(0,0,0)
(0,0,0)
(0,0,0)
(0,0,0)
(0,0,0)
(0,0,0)
(0,0,0)
(0,0,0)
(0,0,0)
(0,0,0)
(0,0,0)
(0,0,0)
(0,0,0)
(0,0,0)
(0,0,0)
(0,0,0)
(0,0,0)
(0,0,0)
(0,0,0)
(0,0,0)
(0,0,0)
(0,0,0)
(0,0,0)
(-90908.2111472811,48346.4546126395,42561.7565346398)
(-96159.1453455783,46334.558278432,92386.343601786)
(-108285.832539049,42147.7409007418,158524.435240094)
(-131243.683173252,35569.1034462212,254199.014967131)
(-172632.618334747,26732.8425549339,400098.790746953)
(-246905.712837592,16594.1541230232,630410.349461514)
(-381400.634565493,7408.2904436909,1004402.69358334)
(-624453.03403084,1795.63983496287,1627060.08777926)
(-1030033.37920429,-43.0578741101671,2657136.52485762)
(-1435236.29651462,-148.640188786407,4092521.46156105)
(0,0,0)
(0,0,0)
(0,0,0)
(0,0,0)
(0,0,0)
(0,0,0)
(-96227.1413806853,103979.06298734,40594.533005983)
(-101516.115206514,100203.710671031,88241.4958199039)
(-113831.638811066,92229.4279814869,151991.447550221)
(-137317.961894705,79510.2978661216,245368.215025032)
(-179850.052088498,62009.840781401,389941.268887052)
(-255902.776700874,41277.775450469,621160.424260478)
(-391867.341658144,21719.2432544749,998716.813107839)
(-633977.717543644,9361.24664870549,1625128.92383766)
(-1036385.34641754,4544.77098137968,2656926.44139976)
(-1438213.55806393,2340.9326350271,4092650.42663981)
(0,0,0)
(0,0,0)
(0,0,0)
(0,0,0)
(0,0,0)
(0,0,0)
(-108248.134933537,175418.432789651,36808.7651312257)
(-113620.890912118,170334.700410516,80298.6663038618)
(-126329.451873479,159502.548749008,139354.997409825)
(-150982.438126415,141951.433788438,227896.299613926)
(-196237.795014931,116985.105530837,369158.829879408)
(-277002.205135453,85943.7167775947,601495.093687735)
(-417636.603567956,54634.4209515037,986216.519558679)
(-657701.294076714,33164.7198931665,1620114.34039091)
(-1051673.61647108,21877.9126142979,2654454.81522909)
(-1445159.20683711,11885.3046982865,4090069.65000302)
(0,0,0)
(0,0,0)
(0,0,0)
(0,0,0)
(0,0,0)
(0,0,0)
(-130600.52792141,274290.745616377,31728.2150946853)
(-136054.830325645,268559.769807621,69557.9760232266)
(-149267.645025095,256392.445671132,121935.724126191)
(-175634.836045043,236459.653503812,203062.340455852)
(-225383.18175998,207339.535040726,338091.09270595)
(-315197.302738737,169248.037571692,569984.074650594)
(-466956.5817277,127075.18405961,964499.893270182)
(-703554.99988985,92674.9398930715,1608544.67316006)
(-1079639.61996685,65928.1745515765,2644134.03118959)
(-1457359.25703542,35508.4487709806,4077870.14415245)
(0,0,0)
(0,0,0)
(0,0,0)
(0,0,0)
(0,0,0)
(0,0,0)
(-170691.196536429,418842.306946928,26139.6352058739)
(-176133.136689555,413244.956549353,57587.5851536941)
(-189611.258369348,401402.095913577,102189.193280598)
(-217407.724364859,381976.854511842,174079.716637426)
(-271771.24412994,353280.255737063,299910.240071031)
(-372798.226491884,314421.595626868,527534.908507717)
(-542089.437148689,266931.757463701,929767.772252314)
(-773389.865236314,214466.843551918,1581365.73382979)
(-1120273.66964772,154255.983771194,2613311.59425798)
(-1474977.71818507,81797.5788963191,4042000.18231768)
(0,0,0)
(0,0,0)
(0,0,0)
(0,0,0)
(0,0,0)
(0,0,0)
(-243049.806894017,641165.385375641,20726.7284653073)
(-248236.988513541,636206.913297582,46001.7602306158)
(-261280.908338934,625676.238402178,83008.5260809491)
(-288819.329894172,608211.740783088,145592.969703872)
(-343751.251206003,581501.844987946,261122.631658997)
(-446695.366525443,542318.619967883,479920.973843443)
(-616491.821514392,486318.08069294,877026.47212861)
(-837282.493577118,407992.117942038,1520783.69131561)
(-1164303.16638629,298817.00406359,2540525.83740957)
(-1497159.91985317,159538.688786878,3959944.64737201)
(0,0,0)
(0,0,0)
(0,0,0)
(0,0,0)
(0,0,0)
(0,0,0)
(-376008.29763377,1001293.50955901,15880.1734503991)
(-380589.933114994,997006.918121691,35670.1017412934)
(-392301.852515099,987881.02844314,65767.1642154383)
(-417466.443930903,972323.390489789,119121.958439645)
(-468487.025850328,947049.471911932,222061.357365984)
(-565192.377333816,905683.397811349,423888.956856328)
(-724530.902560097,836173.53831939,798564.401789987)
(-925321.144130649,720466.893477987,1411410.77038469)
(-1230014.82713324,539114.28230309,2401128.31927837)
(-1533397.6336731,293757.601346446,3800307.04039202)
(0,0,0)
(0,0,0)
(0,0,0)
(0,0,0)
(0,0,0)
(0,0,0)
(-619215.226601008,1608822.39066366,11686.3454963539)
(-622881.009478838,1604951.29772007,26622.9753768162)
(-632331.479916111,1596503.40797897,50332.075757106)
(-652797.311424532,1581432.07839506,94020.6992763518)
(-694718.565266197,1555049.98679813,180738.749656347)
(-775080.632546197,1507166.50469583,354336.275318051)
(-908501.651513315,1416178.98938402,682832.475766719)
(-1071086.806894,1244351.81435722,1230034.36178151)
(-1349380.654517,962755.343873176,2155773.95472843)
(-1602765.22250376,545748.709339793,3506548.06923878)
(0,0,0)
(0,0,0)
(0,0,0)
(0,0,0)
(0,0,0)
(0,0,0)
(-1026479.2240347,2627455.34029045,7846.2744078831)
(-1028976.50745526,2623590.13492909,18183.9446541435)
(-1035397.94775309,2614811.46876362,35273.8316225399)
(-1049158.99199213,2598164.15833771,67700.7436720155)
(-1076854.36091486,2566705.08540161,132900.005983391)
(-1128858.02611776,2505545.56469317,263378.972103809)
(-1216197.4739683,2384740.80813981,511014.627316324)
(-1346035.51223989,2152958.44558226,948443.508331173)
(-1569461.77490799,1741849.42449187,1738811.20262039)
(-1723693.93635066,1047379.52659345,2960874.32171741)
(0,0,0)
(0,0,0)
(0,0,0)
(0,0,0)
(0,0,0)
(0,0,0)
(-1433624.91331534,4057079.75467229,4000.49893352361)
(-1434871.41100137,4053087.56235638,9374.48250759902)
(-1438069.40866272,4043762.85400138,18492.5059325891)
(-1444827.7389214,4025377.39702492,36107.0061668096)
(-1458246.92106838,3989387.84816733,71671.1644695039)
(-1483288.82480647,3917832.69680625,142672.857162884)
(-1526996.2916864,3775066.48863568,279343.468353406)
(-1600691.7952258,3495598.01285679,537395.69630463)
(-1723289.51507531,2958131.93309703,1044402.70277474)
(-1735584.34325163,1913727.64883573,1913638.92378411)
(0,0,0)
(0,0,0)
(0,0,0)
(0,0,0)
(0,0,0)
(0,0,0)
(0,0,0)
(0,0,0)
(0,0,0)
(0,0,0)
(0,0,0)
(0,0,0)
(0,0,0)
(0,0,0)
(0,0,0)
(0,0,0)
(0,0,0)
(0,0,0)
(0,0,0)
(0,0,0)
(0,0,0)
(0,0,0)
(0,0,0)
(0,0,0)
(0,0,0)
(0,0,0)
(0,0,0)
(0,0,0)
(0,0,0)
(0,0,0)
(0,0,0)
(0,0,0)
(0,0,0)
(0,0,0)
(0,0,0)
(0,0,0)
(0,0,0)
(0,0,0)
(0,0,0)
(0,0,0)
(0,0,0)
(0,0,0)
(0,0,0)
(0,0,0)
(0,0,0)
(0,0,0)
(0,0,0)
(0,0,0)
(0,0,0)
(0,0,0)
(0,0,0)
(0,0,0)
(0,0,0)
(0,0,0)
(0,0,0)
(0,0,0)
(0,0,0)
(0,0,0)
(0,0,0)
(0,0,0)
(0,0,0)
(0,0,0)
(0,0,0)
(0,0,0)
(0,0,0)
(0,0,0)
(0,0,0)
(0,0,0)
(0,0,0)
(0,0,0)
(0,0,0)
(0,0,0)
(0,0,0)
(0,0,0)
(0,0,0)
(0,0,0)
(0,0,0)
(0,0,0)
(0,0,0)
(0,0,0)
(0,0,0)
(0,0,0)
(0,0,0)
(0,0,0)
(0,0,0)
(0,0,0)
(0,0,0)
(0,0,0)
(0,0,0)
(0,0,0)
(0,0,0)
(0,0,0)
(0,0,0)
(0,0,0)
(0,0,0)
(0,0,0)
(0,0,0)
(0,0,0)
(0,0,0)
(0,0,0)
(0,0,0)
(0,0,0)
(13461585.0291815,43137.6948673741,37275.6609501097)
(13452776.8744244,41067.3767769833,80178.8605494562)
(13432629.1876047,36662.6905717405,135507.745980144)
(13394893.8726799,29534.3979813158,212742.388291884)
(13327680.2500419,19569.9992759741,325766.11678548)
(13208222.2146258,7643.04052119275,495901.744946991)
(12989083.5322428,-3029.49487672711,761353.669161638)
(12556008.5964037,-7709.83518004379,1221508.47005341)
(11578798.9958964,-6377.95478190339,2251960.64588086)
(8924884.58808264,-3117.11649117701,5527863.47392101)
(0,0,0)
(0,0,0)
(0,0,0)
(0,0,0)
(0,0,0)
(0,0,0)
(13452543.3733818,92001.3979450876,35272.3783061076)
(13443751.8902494,88112.7017773157,75865.6439961286)
(13423428.5514399,79714.077081784,128460.663381308)
(13384986.790684,65810.7584556172,202786.146474509)
(13315946.2191547,45625.0713579868,313841.399295527)
(13193136.160099,20188.2119365873,485163.88722654)
(12970640.3471396,-4042.79748211955,756576.097180466)
(12539381.632283,-14340.051538613,1222753.55985868)
(11568465.5300352,-10707.2497875367,2255138.57455759)
(8920347.56732209,-4577.62284824597,5530944.55167483)
(0,0,0)
(0,0,0)
(0,0,0)
(0,0,0)
(0,0,0)
(0,0,0)
(13432221.222409,153018.309917949,31420.3268308113)
(13423428.6632963,147831.958184533,67558.1123614778)
(13402687.6260565,136489.195631734,114672.512027884)
(13362555.035108,117234.269339468,182618.124055921)
(13288735.2264777,87823.044387562,288353.725679929)
(13155882.7446504,47750.538297386,460813.045679564)
(12920658.1648461,5273.76742911322,746108.308500585)
(12493512.3052719,-12730.5899684739,1226191.84372816)
(11541764.5739827,-6102.94977110339,2261055.94940418)
(8909236.68520254,-325.97847996152,5535315.00914254)
(0,0,0)
(0,0,0)
(0,0,0)
(0,0,0)
(0,0,0)
(0,0,0)
(13394961.4059156,234091.544459738,26271.4277674869)
(13386194.0715188,228398.167150055,56362.9131038465)
(13364918.0703223,215979.417631789,95593.5719026003)
(13322139.0512595,194633.725547795,153326.824536033)
(13239518.9775566,160917.421840034,248236.883913265)
(13083913.8153224,111633.15281287,418149.747482945)
(12809607.8085365,51901.5934062586,727864.127387912)
(12389168.6861141,22798.2584601199,1232518.18910164)
(11487920.8124051,25244.1432594096,2266517.25984533)
(8888557.48626092,17849.2266683828,5535331.90754702)
(0,0,0)
(0,0,0)
(0,0,0)
(0,0,0)
(0,0,0)
(0,0,0)
(13329294.5904907,346295.506180191,20716.8473986892)
(13320713.474041,341008.542698172,44166.4572662671)
(13299330.2625138,329640.035434469,74470.9147267915)
(13254330.3037287,310523.636737229,119749.571590009)
(13161649.604268,281275.491479212,198877.249699213)
(12971914.4457932,240518.898270454,358185.428102825)
(12609946.4760115,192516.927716921,698440.776778205)
(12195670.8722967,150533.311619238,1234551.58223237)
(11403516.7600209,110152.269740053,2258759.6222292)
(8857812.90213238,59560.6224782276,5517164.20224813)
(0,0,0)
(0,0,0)
(0,0,0)
(0,0,0)
(0,0,0)
(0,0,0)
(13212465.5546799,508124.813348552,15561.9274039383)
(13204438.93579,503794.758403873,33006.3835409404)
(13184073.0559304,494626.877467197,55572.1733850638)
(13139897.5119044,479568.746058508,90716.8184116284)
(13046151.8175154,456790.666616388,158205.170699323)
(12851012.7366899,423834.294196717,310088.267703933)
(12484526.7852461,378278.323815056,656214.860991543)
(12088555.6687304,319949.843401175,1193866.76304826)
(11331649.6357052,233088.860296684,2207883.96654643)
(8822560.50666489,123274.970820673,5457355.78783212)
(0,0,0)
(0,0,0)
(0,0,0)
(0,0,0)
(0,0,0)
(0,0,0)
(12995628.1354158,758119.643947843,11275.3324974493)
(12988637.3528111,754785.911537718,23963.4895837844)
(12970583.8377545,747935.258533873,40676.0143939258)
(12930478.6184104,737064.248894469,68142.0453629234)
(12843082.6463764,720907.938422553,125361.697476334)
(12656553.587001,695838.082742181,264518.540742274)
(12301178.7371778,652202.444437823,597791.376527852)
(11943760.6930714,574704.533978685,1106861.44489463)
(11225083.8588637,419790.813844402,2097967.40149602)
(8762329.20610394,224436.333287838,5333985.79539819)
(0,0,0)
(0,0,0)
(0,0,0)
(0,0,0)
(0,0,0)
(0,0,0)
(12562150.4515762,1201687.38992795,7973.17198899055)
(12556616.9130576,1198996.78155291,17170.9755836614)
(12542207.0243654,1193563.34537963,29910.9806026697)
(12509814.0805018,1185156.87985431,52113.5538627492)
(12437838.6278343,1173006.12713742,100364.768193499)
(12279665.3506414,1153461.67037153,220901.793522888)
(11968685.2928069,1108535.89163141,520287.998155273)
(11735484.1967963,969431.140048877,951896.984540942)
(11009963.6160337,742677.680819048,1902572.44316176)
(8622795.8805963,424823.814828282,5109530.45466753)
(0,0,0)
(0,0,0)
(0,0,0)
(0,0,0)
(0,0,0)
(0,0,0)
(11582333.4428169,2220476.47549818,5304.84372449465)
(11578611.3335877,2217867.22811716,11753.152263621)
(11568975.7101522,2212310.31705086,21539.1188333814)
(11547788.9219989,2202632.48441607,40022.1964267642)
(11502753.1445084,2185423.94930356,80903.464983587)
(11411165.6246758,2151192.58545758,176055.495250228)
(11246064.8773637,2074036.20874991,381199.422946064)
(11013921.6431221,1898447.82936369,725132.174415573)
(10358401.128225,1588121.92845509,1584731.61979279)
(8198504.39833907,1035525.4810463,4684738.21503124)
(0,0,0)
(0,0,0)
(0,0,0)
(0,0,0)
(0,0,0)
(0,0,0)
(8926132.32458665,5490910.06010991,2715.77363244486)
(8924290.04689783,5488159.46722054,6168.67277603448)
(8919555.37209751,5482001.69607233,11759.1091406103)
(8909387.81582426,5470359.15605624,22723.4789011402)
(8888440.0609535,5447735.10020617,46631.9421229811)
(8847276.87545293,5401202.73409312,98962.6893743506)
(8771062.82254008,5302194.60216697,205651.777877089)
(8624990.31460816,5096477.01561107,414847.077942084)
(8198848.10278516,4681547.47315265,1032190.51153033)
(6666360.63175299,3649351.20868211,3649326.40503603)
(0,0,0)
(0,0,0)
(0,0,0)
(0,0,0)
(0,0,0)
(0,0,0)
(0,0,0)
(0,0,0)
(0,0,0)
(0,0,0)
(0,0,0)
(0,0,0)
(0,0,0)
(0,0,0)
(0,0,0)
(0,0,0)
(0,0,0)
(0,0,0)
(0,0,0)
(0,0,0)
(0,0,0)
(0,0,0)
(0,0,0)
(0,0,0)
(0,0,0)
(0,0,0)
(0,0,0)
(0,0,0)
(0,0,0)
(0,0,0)
(0,0,0)
(0,0,0)
(0,0,0)
(0,0,0)
(0,0,0)
(0,0,0)
(0,0,0)
(0,0,0)
(0,0,0)
(0,0,0)
(0,0,0)
(0,0,0)
(0,0,0)
(0,0,0)
(0,0,0)
(0,0,0)
(0,0,0)
(0,0,0)
(0,0,0)
(0,0,0)
(0,0,0)
(0,0,0)
(0,0,0)
(0,0,0)
(0,0,0)
(0,0,0)
(0,0,0)
(0,0,0)
(0,0,0)
(0,0,0)
(0,0,0)
(0,0,0)
(0,0,0)
(0,0,0)
(0,0,0)
(0,0,0)
(0,0,0)
(0,0,0)
(0,0,0)
(0,0,0)
(0,0,0)
(0,0,0)
(0,0,0)
(0,0,0)
(0,0,0)
(0,0,0)
(0,0,0)
(0,0,0)
(0,0,0)
(0,0,0)
(0,0,0)
(0,0,0)
(0,0,0)
(0,0,0)
(0,0,0)
(0,0,0)
(0,0,0)
(0,0,0)
(0,0,0)
(0,0,0)
(0,0,0)
(0,0,0)
(0,0,0)
(0,0,0)
(0,0,0)
(0,0,0)
(0,0,0)
(0,0,0)
(0,0,0)
(0,0,0)
(0,0,0)
(0,0,0)
(-234014.403467155,34199.2218178627,28493.6146845284)
(-243721.868149445,32097.1463240784,59988.6147879826)
(-265573.515919395,27502.4265397181,97782.2956261819)
(-305471.512632555,19671.5512847076,145569.533507721)
(-373779.587942183,7871.81763307462,206250.957712518)
(-487700.322367726,-7403.86832721199,276670.76688715)
(-673946.682772826,-21425.8816815014,328220.26743803)
(-968642.939562712,-24318.7069322345,244283.91419042)
(-1391204.78881623,-16712.2896807277,-401906.607562485)
(-1705529.71063032,-7656.18428651518,-3396742.72070909)
(0,0,0)
(0,0,0)
(0,0,0)
(0,0,0)
(0,0,0)
(0,0,0)
(-244342.574723128,71717.3804616686,26461.1933148156)
(-253853.970932335,67770.7319578308,55486.872716528)
(-275491.895449509,58971.0005756617,90032.1494238025)
(-315410.842592773,43406.8242346548,133787.91360442)
(-384737.158561557,18448.1608983319,190988.351909198)
(-501747.717272904,-17040.6500162831,262602.414823894)
(-692362.316862494,-53994.2713779378,325266.872376167)
(-984210.484149993,-60193.5607189504,251827.246449571)
(-1399026.78749039,-37372.1348186672,-392927.187032941)
(-1708315.86743517,-15661.1942921039,-3389165.33841627)
(0,0,0)
(0,0,0)
(0,0,0)
(0,0,0)
(0,0,0)
(0,0,0)
(-267235.475827383,115684.758563416,22582.7239884274)
(-276398.912446993,110493.594181472,46780.8413617753)
(-297687.22967978,98655.5001248246,74564.6014025511)
(-338016.784867445,76793.5898269779,108843.059639376)
(-410927.843872537,38615.0926989832,155432.60204274)
(-539953.861857735,-24188.7194454462,225510.681833747)
(-753864.787707111,-105776.951978997,318909.718841714)
(-1038019.46457335,-117119.42278821,274460.754609872)
(-1422671.3348501,-59989.142660239,-371392.924861957)
(-1715938.43814445,-21037.8236945868,-3373747.76825876)
(0,0,0)
(0,0,0)
(0,0,0)
(0,0,0)
(0,0,0)
(0,0,0)
(-308068.482985122,168335.547526522,17472.5037913285)
(-316726.158398007,162862.444660496,35117.287082788)
(-337448.907821608,150358.934162367,52874.2350429516)
(-378629.693882364,126786.560676214,70743.4131892726)
(-459651.543994893,83060.1736964388,92562.2575970321)
(-624040.231875902,-314.004009144282,143734.993212744)
(-944933.489358568,-147753.274929499,307346.017912007)
(-1214073.21824466,-170734.635080702,331296.538417015)
(-1481738.58429948,-59226.4780641023,-332713.325620744)
(-1732128.83084291,-12950.9540815686,-3353020.47427628)
(0,0,0)
(0,0,0)
(0,0,0)
(0,0,0)
(0,0,0)
(0,0,0)
(-376701.224463987,229314.044302749,12110.7220321817)
(-384664.097361203,224629.616650332,22814.5252982934)
(-404229.832950296,214306.599339687,29520.3594387115)
(-445410.104577891,196036.829019291,27103.9032560129)
(-536031.491136381,165797.830063198,9140.74614731798)
(-767938.004355894,119646.152378948,-3873.55623795534)
(-1525784.01003797,67105.0633952722,284091.995340481)
(-1809716.99330431,43383.4218473128,442455.20786722)
(-1597630.03358243,38218.1944580419,-286749.267197721)
(-1758676.80087549,24250.2351116856,-3340367.34952922)
(0,0,0)
(0,0,0)
(0,0,0)
(0,0,0)
(0,0,0)
(0,0,0)
(-489871.1693835,291223.88017123,7520.29204870773)
(-496875.337376594,287923.721777583,12633.863941815)
(-514410.7096281,281097.642185413,11419.9905084005)
(-552702.82541649,270147.115404841,-2996.5547026724)
(-640819.295803059,253789.300716332,-36923.5081836158)
(-872111.229264878,229410.285161153,-56470.2711572549)
(-1592900.21122956,194941.436611752,260213.75595567)
(-1852980.48293011,175141.843100056,437084.890217207)
(-1651503.3716303,126499.329591635,-300949.833727205)
(-1785185.46742091,63009.4098961283,-3364869.63057198)
(0,0,0)
(0,0,0)
(0,0,0)
(0,0,0)
(0,0,0)
(0,0,0)
(-675011.765795615,324694.862251853,4262.32298446841)
(-680792.251420557,322818.654049444,5890.39879799486)
(-695553.40576197,319630.61730042,588.071053022631)
(-728935.419797169,316469.403218795,-19226.7746996229)
(-809832.718282441,315761.691980775,-61190.3974515166)
(-1036243.88795072,319026.692441867,-90915.9259267153)
(-1787901.76214181,319771.509939763,240427.903918664)
(-2028411.02042991,366468.33877334,388366.525600379)
(-1733157.96419576,204722.009548365,-364520.927442945)
(-1829052.51722687,84946.0442811128,-3427982.43464353)
(0,0,0)
(0,0,0)
(0,0,0)
(0,0,0)
(0,0,0)
(0,0,0)
(-970552.352945012,222053.117821682,2437.95280507992)
(-974949.486021002,221140.372282354,2776.037504464)
(-986269.638464375,220455.914982311,-2479.19349392895)
(-1012445.37589159,223216.029857464,-19872.9598854615)
(-1079352.17398829,238015.445741236,-57842.507969453)
(-1287008.74296507,285077.189029755,-90125.5070971831)
(-2107737.51251979,386044.91976574,287117.292257352)
(-1718312.96558368,247935.924506597,226540.272757842)
(-1798442.72046781,91121.7376716267,-484359.715010017)
(-1897079.02754713,527.795567827787,-3512973.15429951)
(0,0,0)
(0,0,0)
(0,0,0)
(0,0,0)
(0,0,0)
(0,0,0)
(-1394595.87793738,-435506.292165723,1582.13459536431)
(-1397450.82782634,-436258.887306962,2136.95945239409)
(-1404728.8145073,-436948.905000105,339.707948043652)
(-1420842.32964432,-435663.121576769,-5056.48512067961)
(-1457697.25360929,-428770.184898081,-10727.0525098875)
(-1545739.02020699,-412567.865674923,10916.0509313048)
(-1738107.57679034,-400806.589841496,149033.418546253)
(-1801405.36984408,-490319.606921138,69709.3667938455)
(-1967370.14927477,-571324.521248597,-574979.692932397)
(-1998702.01054334,-496594.455736011,-3513557.6288924)
(0,0,0)
(0,0,0)
(0,0,0)
(0,0,0)
(0,0,0)
(0,0,0)
(-1708225.65879673,-3434908.30072212,853.395793568696)
(-1709606.96037566,-3435845.87531522,1430.7949290254)
(-1713099.85518261,-3437333.48066211,1564.00172493274)
(-1720545.32142164,-3438825.73367043,1753.1549181183)
(-1736398.10839741,-3440519.51432595,5434.05755064502)
(-1769570.39444975,-3445912.32688046,22719.1925125746)
(-1830815.90748028,-3468673.50631835,59558.2428635723)
(-1899110.08900599,-3528308.6876018,-11258.8689879858)
(-1999294.91975185,-3517139.77286378,-500207.190982081)
(-1929487.96698875,-3016945.37148541,-3016914.27263715)
(0,0,0)
(0,0,0)
(0,0,0)
(0,0,0)
(0,0,0)
(0,0,0)
(0,0,0)
(0,0,0)
(0,0,0)
(0,0,0)
(0,0,0)
(0,0,0)
(0,0,0)
(0,0,0)
(0,0,0)
(0,0,0)
(0,0,0)
(0,0,0)
(0,0,0)
(0,0,0)
(0,0,0)
(0,0,0)
(0,0,0)
(0,0,0)
(0,0,0)
(0,0,0)
(0,0,0)
(0,0,0)
(0,0,0)
(0,0,0)
(0,0,0)
(0,0,0)
(0,0,0)
(0,0,0)
(0,0,0)
(0,0,0)
(0,0,0)
(0,0,0)
(0,0,0)
(0,0,0)
(0,0,0)
(0,0,0)
(0,0,0)
(0,0,0)
(0,0,0)
(0,0,0)
(0,0,0)
(0,0,0)
(0,0,0)
(0,0,0)
(0,0,0)
(0,0,0)
(0,0,0)
(0,0,0)
(0,0,0)
(0,0,0)
(0,0,0)
(0,0,0)
(0,0,0)
(0,0,0)
(0,0,0)
(0,0,0)
(0,0,0)
(0,0,0)
(0,0,0)
(0,0,0)
(0,0,0)
(0,0,0)
(0,0,0)
(0,0,0)
(0,0,0)
(0,0,0)
(0,0,0)
(0,0,0)
(0,0,0)
(0,0,0)
(0,0,0)
(0,0,0)
(0,0,0)
(0,0,0)
(0,0,0)
(0,0,0)
(0,0,0)
(0,0,0)
(0,0,0)
(0,0,0)
(0,0,0)
(0,0,0)
(0,0,0)
(0,0,0)
(0,0,0)
(0,0,0)
(0,0,0)
(0,0,0)
(0,0,0)
(0,0,0)
(0,0,0)
(0,0,0)
(0,0,0)
(0,0,0)
(0,0,0)
(0,0,0)
(-276754.427464583,23932.713982608,18807.3100148207)
(-284941.631837171,21990.9077134184,38036.1659891323)
(-302988.700193691,17624.4970182951,57826.8532451356)
(-334641.825731566,9758.82659783246,77238.3397463099)
(-385761.681713713,-3065.04997339537,92285.4834912371)
(-464354.041507941,-21400.3108075423,90339.5134389978)
(-577212.964310455,-39776.5027111195,33382.297687747)
(-717045.545249848,-39825.3964234458,-178389.700201678)
(-828860.871566065,-24481.5181694252,-716252.099282394)
(-720299.15507339,-10393.1373809888,-1691089.51745832)
(0,0,0)
(0,0,0)
(0,0,0)
(0,0,0)
(0,0,0)
(0,0,0)
(-286116.969929767,48772.1761510889,16934.9330381561)
(-293830.254450465,45124.0732732742,33778.0509964313)
(-310897.869696276,36733.7122429617,50074.8100185347)
(-340857.600795175,20831.6829016202,64448.7119171451)
(-389628.013145564,-7663.67577593039,73938.1923036902)
(-465943.311166463,-55179.9116647745,71913.3870544894)
(-578068.625038656,-115452.218013565,33295.4105331042)
(-713680.715153123,-113963.018707047,-163096.736180163)
(-823413.563718081,-60944.2931170414,-702247.185004853)
(-716958.742905171,-23209.6305855456,-1680787.81633035)
(0,0,0)
(0,0,0)
(0,0,0)
(0,0,0)
(0,0,0)
(0,0,0)
(-306502.244329232,74667.4829716365,13371.4616813051)
(-313332.633120852,69938.1543327897,25491.1012956441)
(-328452.979289957,58734.9744835896,34255.5886651926)
(-354981.260481973,36121.6355055843,35930.1116757603)
(-398893.988237047,-10100.9514629508,26333.5317272897)
(-472066.331509258,-108248.892905772,11514.9826197975)
(-595609.768236951,-296826.696825801,34634.4419618748)
(-713914.740810805,-293184.045305331,-110249.255202393)
(-810114.558160071,-119089.910727371,-664660.414282077)
(-708753.247792118,-37254.9961069672,-1657800.23911299)
(0,0,0)
(0,0,0)
(0,0,0)
(0,0,0)
(0,0,0)
(0,0,0)
(-341635.635481967,99476.2921163028,8758.34335218644)
(-347211.784195051,94724.4038058662,14457.7196761593)
(-359421.374074391,83406.1837814305,11758.9766311037)
(-380365.008536355,59897.3632666813,-10281.4364760028)
(-414816.394946696,6666.94109696579,-71884.4780841128)
(-482776.246085365,-144163.31281556,-177234.043964863)
(-728482.959676514,-728572.497370154,38061.22689743)
(-766396.884956455,-766400.938699429,63601.7870033263)
(-779025.491390376,-175168.246429994,-583032.970203158)
(-692053.203305442,-39555.587519606,-1620808.006328)
(0,0,0)
(0,0,0)
(0,0,0)
(0,0,0)
(0,0,0)
(0,0,0)
(-397227.555593595,115896.836333331,4105.78691257839)
(-401367.466153663,112234.351317252,3299.20819365149)
(-409908.400134396,103980.938953378,-11596.9797941955)
(-422268.165194492,88639.1818557466,-63480.7377666566)
(-431097.110576182,60999.4210569523,-222747.598286844)
(-388569.86673121,15506.702160784,-761785.750887879)
(8.91374963630441e-05,2.31437930621682e-05,-5.8660698632982e-05)