/*--------------------------------*- C++ -*----------------------------------*\
| =========                 |                                                 |
| \\      /  F ield         | foam-extend: Open Source CFD                    |
|  \\    /   O peration     | Version:     4.0                                |
|   \\  /    A nd           | Web:         http://www.foam-extend.org         |
|    \\/     M anipulation  |                                                 |
\*---------------------------------------------------------------------------*/
FoamFile
{
    version 2.0;
    format ascii;
    class volVectorField;
    location "3495";
    object      E;
}
// * * * * * * * * * * * * * * * * * * * * * * * * * * * * * * * * * * * * * //

dimensions      [0 1 -1 0 0 0 0];

internalField   nonuniform List<vector>
4096
(
(0,0,0)
(0,0,0)
(0,0,0)
(0,0,0)
(0,0,0)
(0,0,0)
(0,0,0)
(0,0,0)
(0,0,0)
(0,0,0)
(0,0,0)
(0,0,0)
(0,0,0)
(0,0,0)
(0,0,0)
(0,0,0)
(0,0,0)
(0,0,0)
(0,0,0)
(0,0,0)
(0,0,0)
(0,0,0)
(0,0,0)
(0,0,0)
(0,0,0)
(0,0,0)
(0,0,0)
(0,0,0)
(0,0,0)
(0,0,0)
(0,0,0)
(0,0,0)
(0,0,0)
(0,0,0)
(0,0,0)
(0,0,0)
(0,0,0)
(0,0,0)
(0,0,0)
(0,0,0)
(0,0,0)
(0,0,0)
(0,0,0)
(0,0,0)
(0,0,0)
(0,0,0)
(0,0,0)
(0,0,0)
(0,0,0)
(0,0,0)
(0,0,0)
(0,0,0)
(0,0,0)
(0,0,0)
(0,0,0)
(0,0,0)
(0,0,0)
(0,0,0)
(0,0,0)
(0,0,0)
(0,0,0)
(0,0,0)
(0,0,0)
(0,0,0)
(0,0,0)
(0,0,0)
(0,0,0)
(0,0,0)
(0,0,0)
(0,0,0)
(0,0,0)
(0,0,0)
(0,0,0)
(0,0,0)
(0,0,0)
(0,0,0)
(0,0,0)
(0,0,0)
(0,0,0)
(0,0,0)
(0,0,0)
(0,0,0)
(0,0,0)
(0,0,0)
(0,0,0)
(0,0,0)
(0,0,0)
(0,0,0)
(0,0,0)
(0,0,0)
(0,0,0)
(0,0,0)
(0,0,0)
(0,0,0)
(0,0,0)
(0,0,0)
(0,0,0)
(0,0,0)
(0,0,0)
(0,0,0)
(0,0,0)
(0,0,0)
(0,0,0)
(0,0,0)
(0,0,0)
(0,0,0)
(0,0,0)
(0,0,0)
(0,0,0)
(0,0,0)
(0,0,0)
(0,0,0)
(0,0,0)
(0,0,0)
(0,0,0)
(0,0,0)
(0,0,0)
(0,0,0)
(0,0,0)
(0,0,0)
(0,0,0)
(0,0,0)
(0,0,0)
(0,0,0)
(0,0,0)
(0,0,0)
(0,0,0)
(0,0,0)
(0,0,0)
(0,0,0)
(0,0,0)
(0,0,0)
(0,0,0)
(0,0,0)
(0,0,0)
(0,0,0)
(0,0,0)
(0,0,0)
(0,0,0)
(0,0,0)
(0,0,0)
(0,0,0)
(0,0,0)
(0,0,0)
(0,0,0)
(0,0,0)
(0,0,0)
(0,0,0)
(0,0,0)
(0,0,0)
(0,0,0)
(0,0,0)
(0,0,0)
(0,0,0)
(0,0,0)
(0,0,0)
(0,0,0)
(0,0,0)
(0,0,0)
(0,0,0)
(0,0,0)
(0,0,0)
(0,0,0)
(0,0,0)
(0,0,0)
(0,0,0)
(0,0,0)
(0,0,0)
(0,0,0)
(0,0,0)
(0,0,0)
(0,0,0)
(0,0,0)
(0,0,0)
(0,0,0)
(0,0,0)
(0,0,0)
(0,0,0)
(0,0,0)
(0,0,0)
(0,0,0)
(0,0,0)
(0,0,0)
(0,0,0)
(0,0,0)
(0,0,0)
(0,0,0)
(0,0,0)
(0,0,0)
(0,0,0)
(0,0,0)
(0,0,0)
(0,0,0)
(0,0,0)
(0,0,0)
(0,0,0)
(0,0,0)
(0,0,0)
(0,0,0)
(0,0,0)
(0,0,0)
(0,0,0)
(0,0,0)
(0,0,0)
(0,0,0)
(0,0,0)
(0,0,0)
(0,0,0)
(0,0,0)
(0,0,0)
(0,0,0)
(0,0,0)
(0,0,0)
(0,0,0)
(0,0,0)
(0,0,0)
(0,0,0)
(0,0,0)
(0,0,0)
(0,0,0)
(0,0,0)
(0,0,0)
(0,0,0)
(0,0,0)
(0,0,0)
(0,0,0)
(0,0,0)
(0,0,0)
(0,0,0)
(0,0,0)
(0,0,0)
(0,0,0)
(0,0,0)
(0,0,0)
(0,0,0)
(0,0,0)
(0,0,0)
(0,0,0)
(0,0,0)
(0,0,0)
(0,0,0)
(0,0,0)
(0,0,0)
(0,0,0)
(0,0,0)
(0,0,0)
(0,0,0)
(0,0,0)
(0,0,0)
(0,0,0)
(0,0,0)
(0,0,0)
(0,0,0)
(0,0,0)
(0,0,0)
(0,0,0)
(0,0,0)
(0,0,0)
(0,0,0)
(0,0,0)
(0,0,0)
(0,0,0)
(0,0,0)
(0,0,0)
(0,0,0)
(0,0,0)
(0,0,0)
(0,0,0)
(0,0,0)
(0,0,0)
(0,0,0)
(0,0,0)
(0,0,0)
(0,0,0)
(0,0,0)
(0,0,0)
(0,0,0)
(0,0,0)
(0,0,0)
(0,0,0)
(0,0,0)
(0,0,0)
(0,0,0)
(0,0,0)
(0,0,0)
(0,0,0)
(0,0,0)
(0,0,0)
(0,0,0)
(0,0,0)
(0,0,0)
(0,0,0)
(0,0,0)
(0,0,0)
(0,0,0)
(0,0,0)
(0,0,0)
(0,0,0)
(0,0,0)
(0,0,0)
(0,0,0)
(0,0,0)
(0,0,0)
(0,0,0)
(0,0,0)
(0,0,0)
(0,0,0)
(0,0,0)
(0,0,0)
(0,0,0)
(0,0,0)
(0,0,0)
(0,0,0)
(0,0,0)
(0,0,0)
(0,0,0)
(0,0,0)
(0,0,0)
(0,0,0)
(0,0,0)
(0,0,0)
(0,0,0)
(0,0,0)
(0,0,0)
(0,0,0)
(0,0,0)
(0,0,0)
(0,0,0)
(0,0,0)
(0,0,0)
(0,0,0)
(0,0,0)
(0,0,0)
(0,0,0)
(0,0,0)
(0,0,0)
(0,0,0)
(0,0,0)
(0,0,0)
(0,0,0)
(0,0,0)
(0,0,0)
(0,0,0)
(0,0,0)
(0,0,0)
(0,0,0)
(0,0,0)
(0,0,0)
(0,0,0)
(0,0,0)
(0,0,0)
(0,0,0)
(0,0,0)
(0,0,0)
(0,0,0)
(0,0,0)
(0,0,0)
(0,0,0)
(0,0,0)
(0,0,0)
(0,0,0)
(0,0,0)
(0,0,0)
(0,0,0)
(0,0,0)
(0,0,0)
(0,0,0)
(0,0,0)
(0,0,0)
(0,0,0)
(0,0,0)
(0,0,0)
(0,0,0)
(0,0,0)
(0,0,0)
(0,0,0)
(0,0,0)
(0,0,0)
(0,0,0)
(0,0,0)
(0,0,0)
(0,0,0)
(0,0,0)
(0,0,0)
(0,0,0)
(0,0,0)
(0,0,0)
(0,0,0)
(0,0,0)
(0,0,0)
(0,0,0)
(0,0,0)
(0,0,0)
(0,0,0)
(0,0,0)
(0,0,0)
(0,0,0)
(0,0,0)
(0,0,0)
(0,0,0)
(0,0,0)
(0,0,0)
(0,0,0)
(0,0,0)
(0,0,0)
(0,0,0)
(0,0,0)
(0,0,0)
(0,0,0)
(0,0,0)
(0,0,0)
(0,0,0)
(0,0,0)
(0,0,0)
(0,0,0)
(0,0,0)
(0,0,0)
(0,0,0)
(0,0,0)
(0,0,0)
(0,0,0)
(0,0,0)
(0,0,0)
(0,0,0)
(0,0,0)
(0,0,0)
(0,0,0)
(0,0,0)
(0,0,0)
(0,0,0)
(0,0,0)
(0,0,0)
(0,0,0)
(0,0,0)
(0,0,0)
(0,0,0)
(0,0,0)
(0,0,0)
(0,0,0)
(0,0,0)
(0,0,0)
(0,0,0)
(0,0,0)
(0,0,0)
(0,0,0)
(0,0,0)
(0,0,0)
(0,0,0)
(0,0,0)
(0,0,0)
(0,0,0)
(0,0,0)
(0,0,0)
(0,0,0)
(0,0,0)
(0,0,0)
(0,0,0)
(0,0,0)
(0,0,0)
(0,0,0)
(0,0,0)
(0,0,0)
(0,0,0)
(0,0,0)
(0,0,0)
(0,0,0)
(0,0,0)
(0,0,0)
(0,0,0)
(0,0,0)
(0,0,0)
(0,0,0)
(0,0,0)
(0,0,0)
(0,0,0)
(0,0,0)
(0,0,0)
(0,0,0)
(0,0,0)
(0,0,0)
(0,0,0)
(0,0,0)
(0,0,0)
(0,0,0)
(0,0,0)
(0,0,0)
(0,0,0)
(0,0,0)
(0,0,0)
(0,0,0)
(0,0,0)
(0,0,0)
(0,0,0)
(0,0,0)
(0,0,0)
(0,0,0)
(0,0,0)
(0,0,0)
(0,0,0)
(0,0,0)
(0,0,0)
(0,0,0)
(0,0,0)
(0,0,0)
(0,0,0)
(0,0,0)
(0,0,0)
(0,0,0)
(0,0,0)
(0,0,0)
(0,0,0)
(0,0,0)
(0,0,0)
(0,0,0)
(0,0,0)
(0,0,0)
(0,0,0)
(0,0,0)
(0,0,0)
(0,0,0)
(0,0,0)
(0,0,0)
(0,0,0)
(0,0,0)
(0,0,0)
(0,0,0)
(0,0,0)
(0,0,0)
(0,0,0)
(0,0,0)
(0,0,0)
(0,0,0)
(0,0,0)
(0,0,0)
(0,0,0)
(0,0,0)
(0,0,0)
(0,0,0)
(0,0,0)
(0,0,0)
(0,0,0)
(0,0,0)
(0,0,0)
(0,0,0)
(0,0,0)
(0,0,0)
(0,0,0)
(0,0,0)
(0,0,0)
(0,0,0)
(0,0,0)
(0,0,0)
(0,0,0)
(0,0,0)
(0,0,0)
(0,0,0)
(0,0,0)
(0,0,0)
(0,0,0)
(0,0,0)
(0,0,0)
(0,0,0)
(0,0,0)
(0,0,0)
(0,0,0)
(0,0,0)
(0,0,0)
(0,0,0)
(0,0,0)
(0,0,0)
(0,0,0)
(0,0,0)
(0,0,0)
(0,0,0)
(0,0,0)
(0,0,0)
(0,0,0)
(0,0,0)
(0,0,0)
(0,0,0)
(0,0,0)
(0,0,0)
(0,0,0)
(0,0,0)
(0,0,0)
(0,0,0)
(0,0,0)
(0,0,0)
(0,0,0)
(0,0,0)
(0,0,0)
(0,0,0)
(0,0,0)
(0,0,0)
(0,0,0)
(0,0,0)
(0,0,0)
(0,0,0)
(0,0,0)
(0,0,0)
(0,0,0)
(0,0,0)
(0,0,0)
(0,0,0)
(0,0,0)
(0,0,0)
(0,0,0)
(0,0,0)
(0,0,0)
(0,0,0)
(0,0,0)
(0,0,0)
(0,0,0)
(0,0,0)
(0,0,0)
(0,0,0)
(0,0,0)
(0,0,0)
(0,0,0)
(0,0,0)
(0,0,0)
(0,0,0)
(0,0,0)
(0,0,0)
(0,0,0)
(0,0,0)
(0,0,0)
(0,0,0)
(0,0,0)
(0,0,0)
(0,0,0)
(0,0,0)
(0,0,0)
(0,0,0)
(0,0,0)
(0,0,0)
(0,0,0)
(0,0,0)
(0,0,0)
(0,0,0)
(0,0,0)
(0,0,0)
(0,0,0)
(0,0,0)
(0,0,0)
(0,0,0)
(0,0,0)
(0,0,0)
(0,0,0)
(0,0,0)
(0,0,0)
(0,0,0)
(0,0,0)
(0,0,0)
(0,0,0)
(0,0,0)
(0,0,0)
(0,0,0)
(0,0,0)
(0,0,0)
(0,0,0)
(0,0,0)
(0,0,0)
(0,0,0)
(0,0,0)
(0,0,0)
(0,0,0)
(0,0,0)
(0,0,0)
(0,0,0)
(0,0,0)
(0,0,0)
(0,0,0)
(0,0,0)
(0,0,0)
(0,0,0)
(0,0,0)
(0,0,0)
(0,0,0)
(0,0,0)
(0,0,0)
(0,0,0)
(0,0,0)
(0,0,0)
(0,0,0)
(0,0,0)
(0,0,0)
(0,0,0)
(0,0,0)
(0,0,0)
(0,0,0)
(0,0,0)
(0,0,0)
(0,0,0)
(0,0,0)
(0,0,0)
(0,0,0)
(0,0,0)
(0,0,0)
(0,0,0)
(0,0,0)
(0,0,0)
(0,0,0)
(0,0,0)
(0,0,0)
(0,0,0)
(0,0,0)
(0,0,0)
(0,0,0)
(0,0,0)
(0,0,0)
(0,0,0)
(0,0,0)
(0,0,0)
(0,0,0)
(0,0,0)
(0,0,0)
(0,0,0)
(0,0,0)
(0,0,0)
(0,0,0)
(0,0,0)
(0,0,0)
(0,0,0)
(0,0,0)
(0,0,0)
(0,0,0)
(0,0,0)
(0,0,0)
(0,0,0)
(0,0,0)
(0,0,0)
(0,0,0)
(0,0,0)
(0,0,0)
(0,0,0)
(0,0,0)
(0,0,0)
(0,0,0)
(0,0,0)
(0,0,0)
(0,0,0)
(0,0,0)
(0,0,0)
(0,0,0)
(0,0,0)
(0,0,0)
(0,0,0)
(0,0,0)
(0,0,0)
(0,0,0)
(0,0,0)
(0,0,0)
(0,0,0)
(0,0,0)
(0,0,0)
(0,0,0)
(0,0,0)
(0,0,0)
(0,0,0)
(0,0,0)
(0,0,0)
(0,0,0)
(0,0,0)
(0,0,0)
(0,0,0)
(0,0,0)
(0,0,0)
(0,0,0)
(0,0,0)
(0,0,0)
(0,0,0)
(0,0,0)
(0,0,0)
(0,0,0)
(0,0,0)
(0,0,0)
(0,0,0)
(0,0,0)
(0,0,0)
(0,0,0)
(0,0,0)
(0,0,0)
(0,0,0)
(0,0,0)
(0,0,0)
(0,0,0)
(0,0,0)
(0,0,0)
(0,0,0)
(0,0,0)
(0,0,0)
(0,0,0)
(0,0,0)
(0,0,0)
(0,0,0)
(0,0,0)
(0,0,0)
(0,0,0)
(0,0,0)
(0,0,0)
(0,0,0)
(0,0,0)
(0,0,0)
(0,0,0)
(0,0,0)
(0,0,0)
(0,0,0)
(0,0,0)
(0,0,0)
(0,0,0)
(0,0,0)
(0,0,0)
(0,0,0)
(0,0,0)
(0,0,0)
(0,0,0)
(0,0,0)
(0,0,0)
(-183931.178500996,97645.0182157539,86286.1602852413)
(-194567.109309628,93643.7958598075,187209.473735061)
(-219092.858865668,85274.7942235892,321027.538377136)
(-265433.272176456,72112.3636510321,514348.446902571)
(-348977.091775524,54342.7611229302,808982.777555164)
(-498944.420241285,33881.0482219098,1274046.14957455)
(-770492.694158088,15289.7818869047,2029249.06184574)
(-1261241.80795609,3876.93686786846,3286613.93293398)
(-2080137.43124783,60.6248797100874,5366690.73930206)
(-2898238.84358786,-282.063920708903,8265211.64681072)
(0,0,0)
(0,0,0)
(0,0,0)
(0,0,0)
(0,0,0)
(0,0,0)
(-194600.885800158,209964.291276618,82281.6127392924)
(-205331.574577934,202410.349673674,178846.633503361)
(-230241.131681277,186475.016396549,307887.543011675)
(-277630.974617997,161047.823335811,496583.057944892)
(-363469.400582243,125892.061411699,788503.158238363)
(-517041.232238347,84035.431650347,1255390.00704826)
(-791582.839747939,44428.0408320376,2017834.58785106)
(-1280472.97119652,19337.9545870815,3282846.54132833)
(-2092965.86338262,9449.91540065189,5366423.11419006)
(-2904239.99992885,4817.52175451141,8265563.52844359)
(0,0,0)
(0,0,0)
(0,0,0)
(0,0,0)
(0,0,0)
(0,0,0)
(-218910.761823321,354182.150320936,74692.9027790028)
(-229807.872632922,344017.882943276,162893.242142327)
(-255495.085312527,322405.215507012,282458.128344396)
(-305228.66512894,287316.311271642,461418.305537505)
(-396544.977562823,237204.912922882,746650.431589132)
(-559641.093252821,174541.365233141,1215785.59125916)
(-843639.171362563,111063.240905345,1992789.56254843)
(-1328401.59812974,67470.997410783,3273058.11785441)
(-2123829.35309278,44453.4541282024,5361883.9322197)
(-2918228.95307993,24092.9477732017,8260837.45928098)
(0,0,0)
(0,0,0)
(0,0,0)
(0,0,0)
(0,0,0)
(0,0,0)
(-264114.480894411,553831.206235392,64465.4249799557)
(-275187.050670626,542474.606523736,141195.752070124)
(-301876.386653385,518251.392698631,247225.961531881)
(-355048.322016044,478394.717021502,411195.877798057)
(-455441.531290942,419910.13125382,683932.190758076)
(-636826.314016883,342984.685975202,1152315.18403289)
(-943383.486973418,257521.939863206,1949239.97204844)
(-1421180.55454372,187752.387356364,3250139.13664656)
(-2180436.54592243,133392.486963815,5341636.64973331)
(-2942930.6389268,71772.9351787552,8236887.30125477)
(0,0,0)
(0,0,0)
(0,0,0)
(0,0,0)
(0,0,0)
(0,0,0)
(-345146.851253481,845920.129743807,53057.9277450592)
(-356172.674081759,834846.100821747,116859.107528804)
(-383375.445390242,811302.902727561,207183.042890116)
(-439419.074428713,772429.630814687,352567.203525643)
(-549174.306463503,714758.948213637,606892.693029328)
(-753223.532773255,636300.490119828,1066800.42165794)
(-1095269.61836316,540132.014252066,1879459.96563225)
(-1562438.96658845,433826.551667417,3195824.76790968)
(-2262692.46391055,311837.187358671,5280072.53142548)
(-2978609.10566802,165283.371950658,8165171.2003216)
(0,0,0)
(0,0,0)
(0,0,0)
(0,0,0)
(0,0,0)
(0,0,0)
(-491397.892286119,1295352.19786814,41965.8241617935)
(-501879.955427,1285483.34989938,93208.5305111539)
(-528187.153075318,1264497.1889429,168201.397371135)
(-583674.147323563,1229493.43011139,294811.745397981)
(-694592.10309924,1175765.15732389,528397.639386982)
(-902531.329790299,1096590.08534474,970639.373952374)
(-1245611.65620603,983241.869526938,1773141.17488353)
(-1691591.00915363,824732.026924378,3073826.70878022)
(-2351725.23791568,603866.845575463,5133522.28847915)
(-3023461.00546634,322371.367325884,7999895.29857023)
(0,0,0)
(0,0,0)
(0,0,0)
(0,0,0)
(0,0,0)
(0,0,0)
(-759894.104944579,2023129.15541616,32117.1473965509)
(-769163.075361016,2014606.24274913,72157.3299078219)
(-792762.994962234,1996295.81080308,133121.703009877)
(-843444.671559249,1964987.16671853,241072.637961987)
(-946465.28174465,1914048.58170388,449254.495326644)
(-1141833.59000147,1830391.32442133,857286.846251537)
(-1463804.14295698,1689767.6285352,1614565.23020027)
(-1869351.77159326,1455831.09882288,2852817.92989503)
(-2484386.35247884,1089231.70974106,4851839.41820822)
(-3096647.66612573,593487.353254918,7677371.09840501)
(0,0,0)
(0,0,0)
(0,0,0)
(0,0,0)
(0,0,0)
(0,0,0)
(-1250864.0344471,3250391.06272664,23602.1271366137)
(-1258279.09309377,3242661.93590158,53825.52707794)
(-1277295.72914183,3225615.78890668,101801.27811619)
(-1318517.90445736,3195124.47120994,190181.878082125)
(-1403176.63166282,3141801.39703737,365605.694411462)
(-1565575.92464826,3044972.38642949,716600.557051545)
(-1835226.58850682,2861100.4342989,1380494.33979462)
(-2163568.55483075,2513866.64705517,2486027.34639311)
(-2725264.33663917,1944777.99494092,4355745.3978324)
(-3236618.7175679,1102358.34813147,7083493.12052371)
(0,0,0)
(0,0,0)
(0,0,0)
(0,0,0)
(0,0,0)
(0,0,0)
(-2073013.85446846,5307549.23948695,15855.6777081554)
(-2078087.56606454,5299830.10823725,36775.0714370088)
(-2091036.79053842,5282115.01384742,71312.6370346408)
(-2118775.13812515,5248341.6075276,136870.638842122)
(-2174685.90356655,5184607.92519324,268750.014252809)
(-2279773.47892926,5060875.16935599,532620.710255591)
(-2456280.34907481,4816914.26417755,1033087.22945175)
(-2718541.24763033,4348689.12555986,1916805.99857742)
(-3169541.45009488,3518092.13635037,3513033.30726274)
(-3480730.30937805,2115329.93028281,5980792.03448946)
(0,0,0)
(0,0,0)
(0,0,0)
(0,0,0)
(0,0,0)
(0,0,0)
(-2894950.72723805,8194391.85384618,8108.11287880458)
(-2897488.42625386,8186434.04945689,18992.5979130102)
(-2903943.64216165,8167609.55755821,37441.6963638711)
(-2917575.36359755,8130322.4489106,73036.2185784657)
(-2944634.71836763,8057383.89330854,144894.968830796)
(-2995259.44759737,7912578.00740441,288451.578379692)
(-3083596.26273404,7624296.89140249,564665.213888762)
(-3232442.62047287,7059811.72256243,1085985.23735904)
(-3479924.16140505,5974128.11976656,2109873.41534782)
(-3504618.80228808,3864717.92143482,3865104.22648395)
(0,0,0)
(0,0,0)
(0,0,0)
(0,0,0)
(0,0,0)
(0,0,0)
(0,0,0)
(0,0,0)
(0,0,0)
(0,0,0)
(0,0,0)
(0,0,0)
(0,0,0)
(0,0,0)
(0,0,0)
(0,0,0)
(0,0,0)
(0,0,0)
(0,0,0)
(0,0,0)
(0,0,0)
(0,0,0)
(0,0,0)
(0,0,0)
(0,0,0)
(0,0,0)
(0,0,0)
(0,0,0)
(0,0,0)
(0,0,0)
(0,0,0)
(0,0,0)
(0,0,0)
(0,0,0)
(0,0,0)
(0,0,0)
(0,0,0)
(0,0,0)
(0,0,0)
(0,0,0)
(0,0,0)
(0,0,0)
(0,0,0)
(0,0,0)
(0,0,0)
(0,0,0)
(0,0,0)
(0,0,0)
(0,0,0)
(0,0,0)
(0,0,0)
(0,0,0)
(0,0,0)
(0,0,0)
(0,0,0)
(0,0,0)
(0,0,0)
(0,0,0)
(0,0,0)
(0,0,0)
(0,0,0)
(0,0,0)
(0,0,0)
(0,0,0)
(0,0,0)
(0,0,0)
(0,0,0)
(0,0,0)
(0,0,0)
(0,0,0)
(0,0,0)
(0,0,0)
(0,0,0)
(0,0,0)
(0,0,0)
(0,0,0)
(0,0,0)
(0,0,0)
(0,0,0)
(0,0,0)
(0,0,0)
(0,0,0)
(0,0,0)
(0,0,0)
(0,0,0)
(0,0,0)
(0,0,0)
(0,0,0)
(0,0,0)
(0,0,0)
(0,0,0)
(0,0,0)
(0,0,0)
(0,0,0)
(0,0,0)
(0,0,0)
(0,0,0)
(0,0,0)
(0,0,0)
(0,0,0)
(0,0,0)
(0,0,0)
(27180154.8465665,87048.9650519253,75694.2321180833)
(27162346.5210878,82938.9480422378,162670.87591599)
(27121546.9494992,74189.7981617662,274670.491626731)
(27045344.4017036,59935.419692248,430786.620291796)
(26909796.2855196,39856.5991696205,658985.866064442)
(26668666.4801053,15788.6065057803,1002415.58144942)
(26226207.7615928,-5820.19666462541,1538364.54460048)
(25351774.86878,-15373.7122957945,2467550.80239766)
(23378646.4335463,-12767.0029792088,4548363.16282021)
(18020089.1582153,-6271.87928769749,11163136.2625422)
(0,0,0)
(0,0,0)
(0,0,0)
(0,0,0)
(0,0,0)
(0,0,0)
(27161961.189377,185750.445562311,71565.6665499005)
(27144138.9122047,177973.808082527,153889.541964482)
(27102997.8999503,161258.855773176,260410.674959019)
(27025420.8574994,133468.002944198,410655.481827144)
(26886164.9486491,92835.2180232014,634871.735979713)
(26638236.9961681,41451.1144047188,980760.221911803)
(26189000.3929668,-7616.42449206905,1528802.43926214)
(25318201.7008878,-28596.5700599694,2470179.84717944)
(23357782.0791161,-21424.3563226304,4554918.48026147)
(18010943.9219085,-9171.81840232083,11169463.719776)
(0,0,0)
(0,0,0)
(0,0,0)
(0,0,0)
(0,0,0)
(0,0,0)
(27120894.9784226,308981.535534911,63792.3920188628)
(27103040.5040258,298607.393745334,137139.651934756)
(27061114.1258905,276021.687542394,232596.831200081)
(26980183.9593816,237501.33074616,369980.101125166)
(26831273.7738604,178353.749696707,583472.040265887)
(26563011.7798906,97410.7522857045,931688.751478982)
(26088019.6950632,11383.7183121033,1507858.96448653)
(25225510.1192512,-25265.4065383803,2477445.3058216)
(23303884.1742494,-12124.1853485416,4567260.8297426)
(17988573.7557977,-597.423259401934,11178712.9479596)
(0,0,0)
(0,0,0)
(0,0,0)
(0,0,0)
(0,0,0)
(0,0,0)
(27045511.5356887,472806.522777479,53378.2184116921)
(27027704.4277732,461477.987730616,114445.368220075)
(26984760.0304343,436732.695682441,193927.165229788)
(26898531.198532,393979.809071001,310698.388594423)
(26731816.3358756,326167.62525164,502455.868110486)
(26417580.2631444,226621.284236539,845667.981235891)
(25863524.562359,105696.536220139,1471276.33623298)
(25014434.2108752,46533.4801778056,2490691.90633549)
(23194891.4347829,51161.9173143101,4578907.04520462)
(17946701.8258908,36077.9421090378,11179428.4372563)
(0,0,0)
(0,0,0)
(0,0,0)
(0,0,0)
(0,0,0)
(0,0,0)
(26912796.8524842,699670.311538355,42021.7297388488)
(26895426.9672511,689133.530155191,89595.7682188547)
(26852297.0212242,666460.388424417,151024.831100087)
(26761559.9758242,628115.739462148,242739.072693387)
(26574477.049332,569308.527095778,402776.037291306)
(26191291.3755319,487012.530977312,724699.104482956)
(25459979.2925509,389802.633776953,1412173.31824961)
(24623075.0125935,304631.628605065,2495390.41287789)
(23024049.0278397,222754.109616507,4563885.95106279)
(17884452.0163612,120374.292850198,11143357.7005298)
(0,0,0)
(0,0,0)
(0,0,0)
(0,0,0)
(0,0,0)
(0,0,0)
(26676738.1218607,1026866.06712757,31497.4525012749)
(26660550.3356304,1018186.83294459,66843.0808918574)
(26619476.3311369,999865.161897211,112604.045444403)
(26530404.5760725,969629.509227622,183840.774520494)
(26341151.494951,923825.12206719,320409.803736295)
(25946984.903245,857247.903809378,627487.420106301)
(25206453.0191886,764999.31409942,1327055.28662675)
(24406487.8213627,646905.897446184,2413531.40950678)
(22878717.511552,471153.936146331,4461518.05574675)
(17813166.9844692,249156.844649879,11022936.7362489)
(0,0,0)
(0,0,0)
(0,0,0)
(0,0,0)
(0,0,0)
(0,0,0)
(26238867.9101795,1532091.48284404,22841.7913968966)
(26224776.0551072,1525431.13535674,48487.5807540211)
(26188392.5571761,1511686.10175384,82340.310996575)
(26107570.8393376,1489795.22489248,137988.306672254)
(25931141.1708677,1457232.22270705,253803.975657506)
(25554255.705541,1406552.52344133,535239.282720466)
(24836077.0933443,1318250.33877151,1208936.2439845)
(24114133.8718678,1161547.75246013,2237637.96774699)
(22663566.2203027,848332.690901578,4239335.86244755)
(17691534.3317004,453515.906234257,10773624.0252746)
(0,0,0)
(0,0,0)
(0,0,0)
(0,0,0)
(0,0,0)
(0,0,0)
(25363754.7153497,2428122.89897238,16179.0563123761)
(25352640.4452928,2422769.86896677,34750.006553215)
(25323657.290386,2411817.1870653,60495.1239514209)
(25258371.283516,2394779.13110455,105451.252003422)
(25113012.4429319,2370194.83552877,203128.786824325)
(24793335.3406938,2330677.3886531,446921.878508095)
(24164747.4360635,2239905.81856052,1052121.59638622)
(23693970.4509251,1958751.15383833,1924208.41148946)
(22229502.6478884,1500420.9043386,3844182.43576227)
(17409961.4060222,858195.025729071,10319752.4149148)
(0,0,0)
(0,0,0)
(0,0,0)
(0,0,0)
(0,0,0)
(0,0,0)
(23385644.7467309,4485497.84340186,10795.6766087131)
(23378158.5841374,4480331.488444,23817.129167072)
(23358785.4824807,4469117.94192894,43523.3235217115)
(23316056.0341682,4449417.843091,80882.6614793479)
(23225085.9459383,4414535.12414133,163599.745599378)
(23039978.4550107,4345277.26538746,356077.157162677)
(22706270.2682946,4189459.82060137,770801.759989951)
(22237500.9575677,3834638.98311927,1465700.94774848)
(20914147.7061725,3207603.61176171,3201658.30629545)
(16553379.4298956,2091354.63016866,9461218.18481963)
(0,0,0)
(0,0,0)
(0,0,0)
(0,0,0)
(0,0,0)
(0,0,0)
(18022633.7592724,11089165.9485597,5576.63056905086)
(18018928.3074474,11083759.8146819,12560.7928672223)
(18009420.7162165,11071346.7403802,23796.8582754151)
(17988879.2996821,11047653.0320684,45936.2282560266)
(17946599.2808981,11001800.7940056,94265.781363546)
(17863407.0496364,10907593.6143227,200112.157432147)
(17709383.4852053,10707606.557937,415814.89439471)
(17414415.9983292,10291979.3350137,838445.145935782)
(16554060.8235818,9453829.58289685,2085063.41205137)
(13459935.5780455,7369159.3684116,7369533.51571226)
(0,0,0)
(0,0,0)
(0,0,0)
(0,0,0)
(0,0,0)
(0,0,0)
(0,0,0)
(0,0,0)
(0,0,0)
(0,0,0)
(0,0,0)
(0,0,0)
(0,0,0)
(0,0,0)
(0,0,0)
(0,0,0)
(0,0,0)
(0,0,0)
(0,0,0)
(0,0,0)
(0,0,0)
(0,0,0)
(0,0,0)
(0,0,0)
(0,0,0)
(0,0,0)
(0,0,0)
(0,0,0)
(0,0,0)
(0,0,0)
(0,0,0)
(0,0,0)
(0,0,0)
(0,0,0)
(0,0,0)
(0,0,0)
(0,0,0)
(0,0,0)
(0,0,0)
(0,0,0)
(0,0,0)
(0,0,0)
(0,0,0)
(0,0,0)
(0,0,0)
(0,0,0)
(0,0,0)
(0,0,0)
(0,0,0)
(0,0,0)
(0,0,0)
(0,0,0)
(0,0,0)
(0,0,0)
(0,0,0)
(0,0,0)
(0,0,0)
(0,0,0)
(0,0,0)
(0,0,0)
(0,0,0)
(0,0,0)
(0,0,0)
(0,0,0)
(0,0,0)
(0,0,0)
(0,0,0)
(0,0,0)
(0,0,0)
(0,0,0)
(0,0,0)
(0,0,0)
(0,0,0)
(0,0,0)
(0,0,0)
(0,0,0)
(0,0,0)
(0,0,0)
(0,0,0)
(0,0,0)
(0,0,0)
(0,0,0)
(0,0,0)
(0,0,0)
(0,0,0)
(0,0,0)
(0,0,0)
(0,0,0)
(0,0,0)
(0,0,0)
(0,0,0)
(0,0,0)
(0,0,0)
(0,0,0)
(0,0,0)
(0,0,0)
(0,0,0)
(0,0,0)
(0,0,0)
(0,0,0)
(0,0,0)
(0,0,0)
(-473598.719948837,68951.6147582015,57972.7295196313)
(-493234.023317075,64803.8445442984,121920.207142632)
(-537536.175330105,55697.1254392796,198476.984295285)
(-618110.530413735,40006.333186454,295096.360988791)
(-755810.833737703,16213.736283398,417660.521725315)
(-985611.357796801,-14623.4250086862,559732.562398752)
(-1361542.47576197,-43016.5708836535,663670.148399816)
(-1956543.23705955,-48927.3372462909,494086.369248176)
(-2809746.57546206,-33628.5153218773,-810721.328659033)
(-3444226.91830227,-15397.4080103972,-6857837.06636845)
(0,0,0)
(0,0,0)
(0,0,0)
(0,0,0)
(0,0,0)
(0,0,0)
(-494424.126516254,144718.039700894,53789.6687131148)
(-513699.054445013,136867.065585158,112735.192084462)
(-557496.029649475,119353.286384553,182743.73850144)
(-638076.952994973,88189.4004725642,271229.259472234)
(-777893.925182942,37912.4448000069,386760.202550189)
(-1013960.63013778,-33790.5388734529,531295.720483352)
(-1398707.34294571,-108580.602820763,657738.266095362)
(-1987963.01123,-121272.268111346,509418.686840742)
(-2825492.25379146,-75340.403119047,-792424.314691825)
(-3449797.90794662,-31537.2122027352,-6842371.90288171)
(0,0,0)
(0,0,0)
(0,0,0)
(0,0,0)
(0,0,0)
(0,0,0)
(-540736.511499693,233574.313343379,45945.9940424251)
(-559346.06402191,223214.397000207,95156.0084376601)
(-602317.178229684,199615.946085763,151495.430619062)
(-683613.280331978,155798.295561643,220854.553005984)
(-830674.958850386,78878.7267837171,315007.781495602)
(-1091086.24403001,-47996.7918150447,456482.836120302)
(-1522951.19976537,-213027.590553021,645071.496443649)
(-2096736.3749586,-236264.785866369,555481.286170877)
(-2873221.52477694,-121081.254605637,-748501.385553454)
(-3465112.63233199,-42450.9137865768,-6810730.51807745)
(0,0,0)
(0,0,0)
(0,0,0)
(0,0,0)
(0,0,0)
(0,0,0)
(-623352.726435597,340070.006884621,35539.346345678)
(-640969.785307302,329159.820588064,71438.9136008325)
(-682711.468580741,304184.916992052,107512.219472134)
(-765648.992306321,256891.244440346,143770.239194231)
(-929097.170415243,168726.347852682,188006.902178579)
(-1260955.64586813,304.645436837866,291412.151701728)
(-1909010.41510955,-297794.034464272,621884.350843979)
(-2452840.04423111,-344725.622044345,670790.219890663)
(-2992897.22510377,-119602.232722509,-669729.364343128)
(-3497988.55968137,-26162.235617968,-6768156.87917718)
(0,0,0)
(0,0,0)
(0,0,0)
(0,0,0)
(0,0,0)
(0,0,0)
(-762083.175786996,463532.665027513,24588.1478908965)
(-778234.403516381,454187.957197184,46392.1598118151)
(-817632.89603048,433549.164301849,60128.6075190411)
(-900585.761092927,396835.076965007,55501.2896741488)
(-1083419.86673447,335853.012415053,19442.3189406948)
(-1551689.1447458,242640.008729686,-6741.74631201819)
(-3082633.47385566,136220.615836378,575027.147556331)
(-3657460.65249817,88027.8375348859,895980.130831313)
(-3227645.21841264,77446.6655053719,-576203.743381588)
(-3551854.95025907,49080.9180893895,-6741969.15270612)
(0,0,0)
(0,0,0)
(0,0,0)
(0,0,0)
(0,0,0)
(0,0,0)
(-990727.073806491,588923.421400065,15245.2170573343)
(-1004865.6837717,582333.111267483,25686.8601517571)
(-1040166.97308171,568667.282680381,23382.8237542751)
(-1117319.15000539,546630.602320323,-5518.19776077039)
(-1295104.84705635,513635.669261788,-73873.7348376034)
(-1762248.56611493,464369.092093876,-113198.571079233)
(-3218682.4542634,394491.706774071,526836.589197502)
(-3745332.52676445,354497.575448005,885357.977173983)
(-3336739.74909787,256012.522442253,-604579.841350584)
(-3605560.23854718,127533.581894267,-6791134.50437642)
(0,0,0)
(0,0,0)
(0,0,0)
(0,0,0)
(0,0,0)
(0,0,0)
(-1364503.86863646,656789.728469097,8676.24950946348)
(-1376163.22125087,653105.504165065,12013.9107324673)
(-1405859.15758851,646743.263613143,1360.42232677669)
(-1473077.1690302,640369.419661914,-38559.6088843957)
(-1636298.72937703,638897.38894024,-123210.650555574)
(-2093774.05452925,645444.586601613,-183085.607230429)
(-3612888.59079998,646779.647837307,486762.91361321)
(-4099449.59058295,741317.287509924,786697.441764596)
(-3501571.72422895,414266.748612617,-733248.062111429)
(-3694130.7485134,171963.741989669,-6918842.36423063)
(0,0,0)
(0,0,0)
(0,0,0)
(0,0,0)
(0,0,0)
(0,0,0)
(-1961078.36270004,449795.114603549,4998.4696777781)
(-1969862.83925452,448079.056011689,5698.9801410356)
(-1992552.30076355,446740.834589824,-4918.22192359837)
(-2045270.99547311,452277.081607565,-40012.8271175811)
(-2180363.8194216,482083.83149033,-116652.229551511)
(-2600098.20014917,577132.506809533,-181735.83115404)
(-4259430.12405958,781217.100286771,581175.054282138)
(-3471898.58872229,502093.304713289,459438.854488786)
(-3632785.40204711,184970.306866856,-975805.876067252)
(-3831224.98595994,1562.27115969057,-7091047.23549255)
(0,0,0)
(0,0,0)
(0,0,0)
(0,0,0)
(0,0,0)
(0,0,0)
(-2816893.73104658,-877751.90853333,3256.27867680495)
(-2822589.76407548,-879140.21550632,4394.67617019803)
(-2837130.98957698,-880487.416094901,710.176675208949)
(-2869588.19797052,-878006.805614069,-10190.9262018764)
(-2944025.84362592,-864232.436624236,-21592.0907605282)
(-3122026.00456302,-831596.714536563,22312.3679216385)
(-3511171.85845114,-807767.755116685,301910.127833344)
(-3638712.86451308,-988759.584862793,142147.617252699)
(-3973427.08125372,-1152707.07495916,-1159429.43573247)
(-4036220.8324645,-1002246.79781081,-7092849.32663932)
(0,0,0)
(0,0,0)
(0,0,0)
(0,0,0)
(0,0,0)
(0,0,0)
(-3449697.66059763,-6934063.46911856,1813.75821782218)
(-3452460.76169553,-6935772.32504941,3005.71466637197)
(-3459413.62332183,-6938689.77757521,3213.19344753749)
(-3474443.71651887,-6941895.27735505,3595.45915191598)
(-3506424.80217694,-6945491.30480951,11049.1881747778)
(-3573484.796581,-6956541.10590737,46056.2035254047)
(-3697390.07562531,-7002539.32656137,120772.11356317)
(-3835250.29167091,-7123133.02670085,-22017.3768362686)
(-4037407.24663885,-7100835.11670528,-1009250.48710708)
(-3896235.48944233,-6091260.54915343,-6090894.89051414)
(0,0,0)
(0,0,0)
(0,0,0)
(0,0,0)
(0,0,0)
(0,0,0)
(0,0,0)
(0,0,0)
(0,0,0)
(0,0,0)
(0,0,0)
(0,0,0)
(0,0,0)
(0,0,0)
(0,0,0)
(0,0,0)
(0,0,0)
(0,0,0)
(0,0,0)
(0,0,0)
(0,0,0)
(0,0,0)
(0,0,0)
(0,0,0)
(0,0,0)
(0,0,0)
(0,0,0)
(0,0,0)
(0,0,0)
(0,0,0)
(0,0,0)
(0,0,0)
(0,0,0)
(0,0,0)
(0,0,0)
(0,0,0)
(0,0,0)
(0,0,0)
(0,0,0)
(0,0,0)
(0,0,0)
(0,0,0)
(0,0,0)
(0,0,0)
(0,0,0)
(0,0,0)
(0,0,0)
(0,0,0)
(0,0,0)
(0,0,0)
(0,0,0)
(0,0,0)
(0,0,0)
(0,0,0)
(0,0,0)
(0,0,0)
(0,0,0)
(0,0,0)
(0,0,0)
(0,0,0)
(0,0,0)
(0,0,0)
(0,0,0)
(0,0,0)
(0,0,0)
(0,0,0)
(0,0,0)
(0,0,0)
(0,0,0)
(0,0,0)
(0,0,0)
(0,0,0)
(0,0,0)
(0,0,0)
(0,0,0)
(0,0,0)
(0,0,0)
(0,0,0)
(0,0,0)
(0,0,0)
(0,0,0)
(0,0,0)
(0,0,0)
(0,0,0)
(0,0,0)
(0,0,0)
(0,0,0)
(0,0,0)
(0,0,0)
(0,0,0)
(0,0,0)
(0,0,0)
(0,0,0)
(0,0,0)
(0,0,0)
(0,0,0)
(0,0,0)
(0,0,0)
(0,0,0)
(0,0,0)
(0,0,0)
(0,0,0)
(-560263.511964803,48283.2423311793,38381.5496847873)
(-576926.999422142,44449.7773382454,77624.748451613)
(-613559.377677825,35788.215407144,117859.735392191)
(-677421.240064794,20021.2374458423,157149.207597406)
(-780346.096273751,-5867.75799173245,187552.228125187)
(-938643.64063245,-42927.2723990613,183511.783359894)
(-1166240.67995517,-80124.0807584881,68334.068311586)
(-1448453.84804459,-80293.8586266178,-359461.462076749)
(-1674160.65654426,-49380.0113069165,-1445667.3696876)
(-1454732.01782609,-20967.7658989064,-3414194.50426485)
(0,0,0)
(0,0,0)
(0,0,0)
(0,0,0)
(0,0,0)
(0,0,0)
(-579183.578088042,98511.5226610306,34531.1712419346)
(-594907.591072155,91303.1963278749,68886.2888794503)
(-629462.343057386,74591.7692820001,102049.048412509)
(-689862.003276219,42660.960573059,131194.375566533)
(-788102.977886189,-14866.3271743612,150401.997452404)
(-941844.388524501,-110894.232491234,146252.715931305)
(-1167970.90584003,-232768.259353951,68160.4574210897)
(-1441623.45333428,-230002.656524381,-328470.302576869)
(-1663082.4703505,-123081.220882096,-1417178.87644263)
(-1447930.3235692,-46846.166114229,-3393168.06060482)
(0,0,0)
(0,0,0)
(0,0,0)
(0,0,0)
(0,0,0)
(0,0,0)
(-620513.830248789,150957.409947434,27331.4314626965)
(-634402.135472302,141592.125419218,52098.5738217448)
(-664883.847894618,119236.739620896,70020.27314778)
(-718265.745012691,73769.2826968916,73564.4157046594)
(-806690.880619601,-19568.940095783,54282.9503952948)
(-954121.372550099,-217893.239155778,24317.0855799068)
(-1203294.42896727,-599044.685727457,70936.741155316)
(-1442100.5211833,-592296.291424694,-221405.477719685)
(-1636166.20266174,-240703.866971143,-1340838.15374584)
(-1431289.03337172,-75281.2480950691,-3346226.67072529)
(0,0,0)
(0,0,0)
(0,0,0)
(0,0,0)
(0,0,0)
(0,0,0)
(-691600.849874691,201292.54334615,17912.9900403867)
(-702923.741817603,191851.913264356,29607.1587055547)
(-727462.702932498,169224.027596705,24371.1050815066)
(-769519.081605928,121929.847726557,-19919.3706485507)
(-838790.814759706,14352.5268732593,-144147.193273127)
(-975630.057218136,-290480.074978583,-356885.946100324)
(-1471246.65068806,-1471407.10656329,77712.7103140106)
(-1548476.38646624,-1549258.11115438,130310.872278809)
(-1573750.76456917,-354256.223991376,-1175283.23123556)
(-1397753.97705677,-79977.9406170258,-3270821.12133827)
(0,0,0)
(0,0,0)
(0,0,0)
(0,0,0)
(0,0,0)
(0,0,0)
(-803967.959716852,234787.696845997,8389.63043000833)
(-812307.45624941,227454.371233225,6860.22519417038)
(-829444.725279451,210928.066820372,-23031.9847805156)
(-854179.782515193,180032.614318791,-127540.729950482)
(-871668.976096415,124091.512869036,-449030.606584322)
(-785355.459007452,31982.0765110879,-1537826.44381235)
(-6.66319265496443e-05,-1.81885336326385e-05,4.32105191690735e-05)