/*--------------------------------*- C++ -*----------------------------------*\
| =========                 |                                                 |
| \\      /  F ield         | foam-extend: Open Source CFD                    |
|  \\    /   O peration     | Version:     4.0                                |
|   \\  /    A nd           | Web:         http://www.foam-extend.org         |
|    \\/     M anipulation  |                                                 |
\*---------------------------------------------------------------------------*/
FoamFile
{
    version 2.0;
    format ascii;
    class volVectorField;
    location "Data/1799";
    object      E;
}
// * * * * * * * * * * * * * * * * * * * * * * * * * * * * * * * * * * * * * //

dimensions      [0 1 -1 0 0 0 0];

internalField   nonuniform List<vector>
4096
(
(0,0,0)
(0,0,0)
(0,0,0)
(0,0,0)
(0,0,0)
(0,0,0)
(0,0,0)
(0,0,0)
(0,0,0)
(0,0,0)
(0,0,0)
(0,0,0)
(0,0,0)
(0,0,0)
(0,0,0)
(0,0,0)
(0,0,0)
(0,0,0)
(0,0,0)
(0,0,0)
(0,0,0)
(0,0,0)
(0,0,0)
(0,0,0)
(0,0,0)
(0,0,0)
(0,0,0)
(0,0,0)
(0,0,0)
(0,0,0)
(0,0,0)
(0,0,0)
(0,0,0)
(0,0,0)
(0,0,0)
(0,0,0)
(0,0,0)
(0,0,0)
(0,0,0)
(0,0,0)
(0,0,0)
(0,0,0)
(0,0,0)
(0,0,0)
(0,0,0)
(0,0,0)
(0,0,0)
(0,0,0)
(0,0,0)
(0,0,0)
(0,0,0)
(0,0,0)
(0,0,0)
(0,0,0)
(0,0,0)
(0,0,0)
(0,0,0)
(0,0,0)
(0,0,0)
(0,0,0)
(0,0,0)
(0,0,0)
(0,0,0)
(0,0,0)
(0,0,0)
(0,0,0)
(0,0,0)
(0,0,0)
(0,0,0)
(0,0,0)
(0,0,0)
(0,0,0)
(0,0,0)
(0,0,0)
(0,0,0)
(0,0,0)
(0,0,0)
(0,0,0)
(0,0,0)
(0,0,0)
(0,0,0)
(0,0,0)
(0,0,0)
(0,0,0)
(0,0,0)
(0,0,0)
(0,0,0)
(0,0,0)
(0,0,0)
(0,0,0)
(0,0,0)
(0,0,0)
(0,0,0)
(0,0,0)
(0,0,0)
(0,0,0)
(0,0,0)
(0,0,0)
(0,0,0)
(0,0,0)
(0,0,0)
(0,0,0)
(0,0,0)
(0,0,0)
(0,0,0)
(0,0,0)
(0,0,0)
(0,0,0)
(0,0,0)
(0,0,0)
(0,0,0)
(0,0,0)
(0,0,0)
(0,0,0)
(0,0,0)
(0,0,0)
(0,0,0)
(0,0,0)
(0,0,0)
(0,0,0)
(0,0,0)
(0,0,0)
(0,0,0)
(0,0,0)
(0,0,0)
(0,0,0)
(0,0,0)
(0,0,0)
(0,0,0)
(0,0,0)
(0,0,0)
(0,0,0)
(0,0,0)
(0,0,0)
(0,0,0)
(0,0,0)
(0,0,0)
(0,0,0)
(0,0,0)
(0,0,0)
(0,0,0)
(0,0,0)
(0,0,0)
(0,0,0)
(0,0,0)
(0,0,0)
(0,0,0)
(0,0,0)
(0,0,0)
(0,0,0)
(0,0,0)
(0,0,0)
(0,0,0)
(0,0,0)
(0,0,0)
(0,0,0)
(0,0,0)
(0,0,0)
(0,0,0)
(0,0,0)
(0,0,0)
(0,0,0)
(0,0,0)
(0,0,0)
(0,0,0)
(0,0,0)
(0,0,0)
(0,0,0)
(0,0,0)
(0,0,0)
(0,0,0)
(0,0,0)
(0,0,0)
(0,0,0)
(0,0,0)
(0,0,0)
(0,0,0)
(0,0,0)
(0,0,0)
(0,0,0)
(0,0,0)
(0,0,0)
(0,0,0)
(0,0,0)
(0,0,0)
(0,0,0)
(0,0,0)
(0,0,0)
(0,0,0)
(0,0,0)
(0,0,0)
(0,0,0)
(0,0,0)
(0,0,0)
(0,0,0)
(0,0,0)
(0,0,0)
(0,0,0)
(0,0,0)
(0,0,0)
(0,0,0)
(0,0,0)
(0,0,0)
(0,0,0)
(0,0,0)
(0,0,0)
(0,0,0)
(0,0,0)
(0,0,0)
(0,0,0)
(0,0,0)
(0,0,0)
(0,0,0)
(0,0,0)
(0,0,0)
(0,0,0)
(0,0,0)
(0,0,0)
(0,0,0)
(0,0,0)
(0,0,0)
(0,0,0)
(0,0,0)
(0,0,0)
(0,0,0)
(0,0,0)
(0,0,0)
(0,0,0)
(0,0,0)
(0,0,0)
(0,0,0)
(0,0,0)
(0,0,0)
(0,0,0)
(0,0,0)
(0,0,0)
(0,0,0)
(0,0,0)
(0,0,0)
(0,0,0)
(0,0,0)
(0,0,0)
(0,0,0)
(0,0,0)
(0,0,0)
(0,0,0)
(0,0,0)
(0,0,0)
(0,0,0)
(0,0,0)
(0,0,0)
(0,0,0)
(0,0,0)
(0,0,0)
(0,0,0)
(0,0,0)
(0,0,0)
(0,0,0)
(0,0,0)
(0,0,0)
(0,0,0)
(0,0,0)
(0,0,0)
(0,0,0)
(0,0,0)
(0,0,0)
(0,0,0)
(0,0,0)
(0,0,0)
(0,0,0)
(0,0,0)
(0,0,0)
(0,0,0)
(0,0,0)
(0,0,0)
(0,0,0)
(0,0,0)
(0,0,0)
(0,0,0)
(0,0,0)
(0,0,0)
(0,0,0)
(0,0,0)
(0,0,0)
(0,0,0)
(0,0,0)
(0,0,0)
(0,0,0)
(0,0,0)
(0,0,0)
(0,0,0)
(0,0,0)
(0,0,0)
(0,0,0)
(0,0,0)
(0,0,0)
(0,0,0)
(0,0,0)
(0,0,0)
(0,0,0)
(0,0,0)
(0,0,0)
(0,0,0)
(0,0,0)
(0,0,0)
(0,0,0)
(0,0,0)
(0,0,0)
(0,0,0)
(0,0,0)
(0,0,0)
(0,0,0)
(0,0,0)
(0,0,0)
(0,0,0)
(0,0,0)
(0,0,0)
(0,0,0)
(0,0,0)
(0,0,0)
(0,0,0)
(0,0,0)
(0,0,0)
(0,0,0)
(0,0,0)
(0,0,0)
(0,0,0)
(0,0,0)
(0,0,0)
(0,0,0)
(0,0,0)
(0,0,0)
(0,0,0)
(0,0,0)
(0,0,0)
(0,0,0)
(0,0,0)
(0,0,0)
(0,0,0)
(0,0,0)
(0,0,0)
(0,0,0)
(0,0,0)
(0,0,0)
(0,0,0)
(0,0,0)
(0,0,0)
(0,0,0)
(0,0,0)
(0,0,0)
(0,0,0)
(0,0,0)
(0,0,0)
(0,0,0)
(0,0,0)
(0,0,0)
(0,0,0)
(0,0,0)
(0,0,0)
(0,0,0)
(0,0,0)
(0,0,0)
(0,0,0)
(0,0,0)
(0,0,0)
(0,0,0)
(0,0,0)
(0,0,0)
(0,0,0)
(0,0,0)
(0,0,0)
(0,0,0)
(0,0,0)
(0,0,0)
(0,0,0)
(0,0,0)
(0,0,0)
(0,0,0)
(0,0,0)
(0,0,0)
(0,0,0)
(0,0,0)
(0,0,0)
(0,0,0)
(0,0,0)
(0,0,0)
(0,0,0)
(0,0,0)
(0,0,0)
(0,0,0)
(0,0,0)
(0,0,0)
(0,0,0)
(0,0,0)
(0,0,0)
(0,0,0)
(0,0,0)
(0,0,0)
(0,0,0)
(0,0,0)
(0,0,0)
(0,0,0)
(0,0,0)
(0,0,0)
(0,0,0)
(0,0,0)
(0,0,0)
(0,0,0)
(0,0,0)
(0,0,0)
(0,0,0)
(0,0,0)
(0,0,0)
(0,0,0)
(0,0,0)
(0,0,0)
(0,0,0)
(0,0,0)
(0,0,0)
(0,0,0)
(0,0,0)
(0,0,0)
(0,0,0)
(0,0,0)
(0,0,0)
(0,0,0)
(0,0,0)
(0,0,0)
(0,0,0)
(0,0,0)
(0,0,0)
(0,0,0)
(0,0,0)
(0,0,0)
(0,0,0)
(0,0,0)
(0,0,0)
(0,0,0)
(0,0,0)
(0,0,0)
(0,0,0)
(0,0,0)
(0,0,0)
(0,0,0)
(0,0,0)
(0,0,0)
(0,0,0)
(0,0,0)
(0,0,0)
(0,0,0)
(0,0,0)
(0,0,0)
(0,0,0)
(0,0,0)
(0,0,0)
(0,0,0)
(0,0,0)
(0,0,0)
(0,0,0)
(0,0,0)
(0,0,0)
(0,0,0)
(0,0,0)
(0,0,0)
(0,0,0)
(0,0,0)
(0,0,0)
(0,0,0)
(0,0,0)
(0,0,0)
(0,0,0)
(0,0,0)
(0,0,0)
(0,0,0)
(0,0,0)
(0,0,0)
(0,0,0)
(0,0,0)
(0,0,0)
(0,0,0)
(0,0,0)
(0,0,0)
(0,0,0)
(0,0,0)
(0,0,0)
(0,0,0)
(0,0,0)
(0,0,0)
(0,0,0)
(0,0,0)
(0,0,0)
(0,0,0)
(0,0,0)
(0,0,0)
(0,0,0)
(0,0,0)
(0,0,0)
(0,0,0)
(0,0,0)
(0,0,0)
(0,0,0)
(0,0,0)
(0,0,0)
(0,0,0)
(0,0,0)
(0,0,0)
(0,0,0)
(0,0,0)
(0,0,0)
(0,0,0)
(0,0,0)
(0,0,0)
(0,0,0)
(0,0,0)
(0,0,0)
(0,0,0)
(0,0,0)
(0,0,0)
(0,0,0)
(0,0,0)
(0,0,0)
(0,0,0)
(0,0,0)
(0,0,0)
(0,0,0)
(0,0,0)
(0,0,0)
(0,0,0)
(0,0,0)
(0,0,0)
(0,0,0)
(0,0,0)
(0,0,0)
(0,0,0)
(0,0,0)
(0,0,0)
(0,0,0)
(0,0,0)
(0,0,0)
(0,0,0)
(0,0,0)
(0,0,0)
(0,0,0)
(0,0,0)
(0,0,0)
(0,0,0)
(0,0,0)
(0,0,0)
(0,0,0)
(0,0,0)
(0,0,0)
(0,0,0)
(0,0,0)
(0,0,0)
(0,0,0)
(0,0,0)
(0,0,0)
(0,0,0)
(0,0,0)
(0,0,0)
(0,0,0)
(0,0,0)
(0,0,0)
(0,0,0)
(0,0,0)
(0,0,0)
(0,0,0)
(0,0,0)
(0,0,0)
(0,0,0)
(0,0,0)
(0,0,0)
(0,0,0)
(0,0,0)
(0,0,0)
(0,0,0)
(0,0,0)
(0,0,0)
(0,0,0)
(0,0,0)
(0,0,0)
(0,0,0)
(0,0,0)
(0,0,0)
(0,0,0)
(0,0,0)
(0,0,0)
(0,0,0)
(0,0,0)
(0,0,0)
(0,0,0)
(0,0,0)
(0,0,0)
(0,0,0)
(0,0,0)
(0,0,0)
(0,0,0)
(0,0,0)
(0,0,0)
(0,0,0)
(0,0,0)
(0,0,0)
(0,0,0)
(0,0,0)
(0,0,0)
(0,0,0)
(0,0,0)
(0,0,0)
(0,0,0)
(0,0,0)
(0,0,0)
(0,0,0)
(0,0,0)
(0,0,0)
(0,0,0)
(0,0,0)
(0,0,0)
(0,0,0)
(0,0,0)
(0,0,0)
(0,0,0)
(0,0,0)
(0,0,0)
(0,0,0)
(0,0,0)
(0,0,0)
(0,0,0)
(0,0,0)
(0,0,0)
(0,0,0)
(0,0,0)
(0,0,0)
(0,0,0)
(0,0,0)
(0,0,0)
(0,0,0)
(0,0,0)
(0,0,0)
(0,0,0)
(0,0,0)
(0,0,0)
(0,0,0)
(0,0,0)
(0,0,0)
(0,0,0)
(0,0,0)
(0,0,0)
(0,0,0)
(0,0,0)
(0,0,0)
(0,0,0)
(0,0,0)
(0,0,0)
(0,0,0)
(0,0,0)
(0,0,0)
(0,0,0)
(0,0,0)
(0,0,0)
(0,0,0)
(0,0,0)
(0,0,0)
(0,0,0)
(0,0,0)
(0,0,0)
(0,0,0)
(0,0,0)
(0,0,0)
(0,0,0)
(0,0,0)
(0,0,0)
(0,0,0)
(0,0,0)
(0,0,0)
(0,0,0)
(0,0,0)
(0,0,0)
(0,0,0)
(0,0,0)
(0,0,0)
(0,0,0)
(0,0,0)
(0,0,0)
(0,0,0)
(0,0,0)
(0,0,0)
(0,0,0)
(0,0,0)
(0,0,0)
(0,0,0)
(0,0,0)
(0,0,0)
(0,0,0)
(0,0,0)
(0,0,0)
(0,0,0)
(0,0,0)
(0,0,0)
(0,0,0)
(0,0,0)
(0,0,0)
(0,0,0)
(0,0,0)
(0,0,0)
(0,0,0)
(0,0,0)
(0,0,0)
(0,0,0)
(0,0,0)
(0,0,0)
(0,0,0)
(0,0,0)
(0,0,0)
(0,0,0)
(0,0,0)
(0,0,0)
(0,0,0)
(0,0,0)
(0,0,0)
(0,0,0)
(0,0,0)
(0,0,0)
(0,0,0)
(0,0,0)
(0,0,0)
(0,0,0)
(0,0,0)
(0,0,0)
(0,0,0)
(0,0,0)
(0,0,0)
(0,0,0)
(0,0,0)
(0,0,0)
(0,0,0)
(0,0,0)
(0,0,0)
(0,0,0)
(0,0,0)
(0,0,0)
(0,0,0)
(0,0,0)
(0,0,0)
(0,0,0)
(0,0,0)
(0,0,0)
(0,0,0)
(0,0,0)
(0,0,0)
(0,0,0)
(0,0,0)
(0,0,0)
(0,0,0)
(0,0,0)
(0,0,0)
(0,0,0)
(0,0,0)
(0,0,0)
(0,0,0)
(0,0,0)
(0,0,0)
(0,0,0)
(0,0,0)
(0,0,0)
(0,0,0)
(0,0,0)
(0,0,0)
(0,0,0)
(0,0,0)
(0,0,0)
(0,0,0)
(0,0,0)
(0,0,0)
(0,0,0)
(0,0,0)
(0,0,0)
(0,0,0)
(0,0,0)
(0,0,0)
(0,0,0)
(0,0,0)
(0,0,0)
(0,0,0)
(0,0,0)
(0,0,0)
(0,0,0)
(0,0,0)
(0,0,0)
(0,0,0)
(0,0,0)
(0,0,0)
(0,0,0)
(0,0,0)
(0,0,0)
(0,0,0)
(0,0,0)
(0,0,0)
(0,0,0)
(0,0,0)
(0,0,0)
(0,0,0)
(0,0,0)
(0,0,0)
(0,0,0)
(0,0,0)
(0,0,0)
(0,0,0)
(0,0,0)
(0,0,0)
(0,0,0)
(0,0,0)
(0,0,0)
(0,0,0)
(0,0,0)
(0,0,0)
(0,0,0)
(0,0,0)
(0,0,0)
(0,0,0)
(-122315.479732576,65010.3739897215,57305.1057428529)
(-129349.855805299,62377.7683582368,124277.193189915)
(-145666.56333488,56791.8579860524,213151.898538743)
(-176475.453604625,48014.0838118242,341613.26833155)
(-232042.793775535,36133.3304891641,537522.731617929)
(-331805.991390294,22510.4767728488,846818.246235366)
(-512414.667628414,10095.8981610809,1349137.01570272)
(-838881.217074686,2535.67914239854,2185482.55363505)
(-1383776.81847194,36.512235402499,3569222.85987156)
(-1928172.17325688,-163.824876704273,5497558.85800518)
(0,0,0)
(0,0,0)
(0,0,0)
(0,0,0)
(0,0,0)
(0,0,0)
(-129396.464252116,139761.338975075,54645.4992667603)
(-136484.635630727,134773.835143211,118734.068112519)
(-153045.986568826,124128.464502321,204443.448165071)
(-184563.293003027,107175.461595306,329845.363384623)
(-241659.335641857,83699.1807866827,523938.84872895)
(-343809.128174352,55803.6885771695,834454.76509898)
(-526430.839323484,29422.0550509424,1341559.4475326)
(-851681.585897667,12807.5696936222,2182969.14287897)
(-1392292.28070739,6280.97309613029,3569016.96272568)
(-1932138.92935606,3235.635879403,5497756.43132558)
(0,0,0)
(0,0,0)
(0,0,0)
(0,0,0)
(0,0,0)
(0,0,0)
(-145511.585104869,235679.903866883,49593.0202130615)
(-152690.37907528,228958.990048866,108098.24438269)
(-169774.086377478,214532.639758216,187468.155504278)
(-202882.387472916,191110.925571917,306415.079000585)
(-263644.849247849,157675.385819401,496083.723215703)
(-372130.27968113,115929.590182186,808088.101291815)
(-561030.802225937,73719.3703108174,1324821.5882579)
(-883544.649261651,44795.0532539898,2176378.75395915)
(-1412794.76497193,29510.4652554783,3565944.02677176)
(-1941414.34928144,16013.6641559247,5494580.34777675)
(0,0,0)
(0,0,0)
(0,0,0)
(0,0,0)
(0,0,0)
(0,0,0)
(-175564.727244574,368457.029404951,42787.6017065069)
(-182863.620039869,360904.064902137,93706.1468931065)
(-200607.751399914,344736.875908814,164109.662142416)
(-236011.057769105,318135.17049443,273096.474988998)
(-302790.896324575,279155.943679345,454406.813453636)
(-423448.216164473,227929.602105173,765855.017695126)
(-627338.15394668,171102.618749418,1295809.9232032)
(-945214.371596856,124739.915547735,2161079.43250625)
(-1450425.99031792,88618.9121062986,3552396.97597331)
(-1957844.60886353,47687.6678232254,5478567.58116967)
(0,0,0)
(0,0,0)
(0,0,0)
(0,0,0)
(0,0,0)
(0,0,0)
(-229474.451701761,562664.77951607,35266.7015906387)
(-236763.769134114,555314.992596927,77619.5430299594)
(-254841.935641557,539582.196897866,137616.157682466)
(-292153.656627259,513643.83054929,234261.154254863)
(-365147.983797974,475259.191120442,403305.890611744)
(-500872.63609275,423057.341256132,709050.787553511)
(-728355.80246873,359104.050703619,1249405.15806804)
(-1039150.37921982,288408.115403574,2124887.33743203)
(-1505126.46883032,207297.851389922,3511334.8669788)
(-1981596.89074311,109881.336236529,5430738.08930859)
(0,0,0)
(0,0,0)
(0,0,0)
(0,0,0)
(0,0,0)
(0,0,0)
(-326752.674273844,861505.897807181,27911.5559827367)
(-333692.673105411,854959.576161268,61959.6455238017)
(-351171.702564758,840926.519982095,111787.025004331)
(-388105.191458586,817583.492954424,195952.55405778)
(-461873.039675938,781890.407840386,351194.377013778)
(-600179.630436978,729290.154418334,645141.194288574)
(-828359.772093013,653925.539004047,1178679.47808117)
(-1125070.67126218,548491.36499602,2043666.8997509)
(-1564357.71589487,401581.382870226,3413741.08416554)
(-2011448.84866585,214398.621659605,5320672.64740814)
(0,0,0)
(0,0,0)
(0,0,0)
(0,0,0)
(0,0,0)
(0,0,0)
(-505294.286835611,1345450.04729453,21350.1373482596)
(-511475.459584362,1339774.57367127,48010.5994226307)
(-527190.14543224,1327588.38845749,88538.8763794838)
(-560935.991951564,1306800.19782676,160258.163458714)
(-629466.122728371,1273044.68172554,298570.01230193)
(-759414.794274949,1217502.74421378,569772.216781421)
(-973562.742923865,1124010.72995049,1073249.76875886)
(-1243377.59269589,968404.624538681,1896714.10191209)
(-1652646.08319173,724537.28399084,3226404.28398315)
(-2060133.59920161,394800.517338428,5106135.98750605)
(0,0,0)
(0,0,0)
(0,0,0)
(0,0,0)
(0,0,0)
(0,0,0)
(-831916.16657193,2161664.08567986,15702.128186596)
(-836888.837945607,2156534.30740945,35831.2323940321)
(-849567.416825859,2145278.78524453,67708.2524328655)
(-877027.587071421,2125152.89758145,126383.139749586)
(-933368.801639958,2089869.28871397,242927.334401103)
(-1041407.39162265,2025598.47607564,476238.994161881)
(-1220758.98042442,1903348.90633963,917659.798197142)
(-1439185.14473508,1672336.85808181,1652912.70938911)
(-1812931.84392422,1293739.0700382,2896642.76726597)
(-2153241.57691729,733352.703577497,4711332.15794412)
(0,0,0)
(0,0,0)
(0,0,0)
(0,0,0)
(0,0,0)
(0,0,0)
(-1378995.54316279,3530093.19069114,10566.4381514748)
(-1382408.50676551,3525007.19479422,24502.0575322281)
(-1391025.0586039,3513368.71816346,47437.1832171559)
(-1409502.11028349,3491139.27241212,90952.9186699605)
(-1446718.23616616,3448979.97532764,178560.468222448)
(-1516622.08680434,3366809.5482187,353971.482883734)
(-1634036.6356085,3204589.0879839,686767.936847975)
(-1808497.7730866,2893078.8980781,1274523.6699383)
(-2108576.51359651,2340479.60599433,2336359.6475786)
(-2315679.51347525,1407248.87255493,3978142.99207643)
(0,0,0)
(0,0,0)
(0,0,0)
(0,0,0)
(0,0,0)
(0,0,0)
(-1925953.68811835,5450648.99754074,5397.88126878161)
(-1927677.93042835,5445433.03564032,12649.9708510346)
(-1931956.63737175,5433079.22129596,24896.105090313)
(-1941041.11054142,5408531.59963213,48544.8884117664)
(-1959058.03026595,5360298.00832735,96284.8856780544)
(-1992704.60687126,5264096.32861177,191702.712156239)
(-2051460.3030368,5072393.49056427,375358.612612662)
(-2150487.04225647,4696828.29440142,722096.258545762)
(-2315158.44259518,3974474.55899911,1403259.74813612)
(-2331626.68103116,2571085.68001303,2571049.62170921)
(0,0,0)
(0,0,0)
(0,0,0)
(0,0,0)
(0,0,0)
(0,0,0)
(0,0,0)
(0,0,0)
(0,0,0)
(0,0,0)
(0,0,0)
(0,0,0)
(0,0,0)
(0,0,0)
(0,0,0)
(0,0,0)
(0,0,0)
(0,0,0)
(0,0,0)
(0,0,0)
(0,0,0)
(0,0,0)
(0,0,0)
(0,0,0)
(0,0,0)
(0,0,0)
(0,0,0)
(0,0,0)
(0,0,0)
(0,0,0)
(0,0,0)
(0,0,0)
(0,0,0)
(0,0,0)
(0,0,0)
(0,0,0)
(0,0,0)
(0,0,0)
(0,0,0)
(0,0,0)
(0,0,0)
(0,0,0)
(0,0,0)
(0,0,0)
(0,0,0)
(0,0,0)
(0,0,0)
(0,0,0)
(0,0,0)
(0,0,0)
(0,0,0)
(0,0,0)
(0,0,0)
(0,0,0)
(0,0,0)
(0,0,0)
(0,0,0)
(0,0,0)
(0,0,0)
(0,0,0)
(0,0,0)
(0,0,0)
(0,0,0)
(0,0,0)
(0,0,0)
(0,0,0)
(0,0,0)
(0,0,0)
(0,0,0)
(0,0,0)
(0,0,0)
(0,0,0)
(0,0,0)
(0,0,0)
(0,0,0)
(0,0,0)
(0,0,0)
(0,0,0)
(0,0,0)
(0,0,0)
(0,0,0)
(0,0,0)
(0,0,0)
(0,0,0)
(0,0,0)
(0,0,0)
(0,0,0)
(0,0,0)
(0,0,0)
(0,0,0)
(0,0,0)
(0,0,0)
(0,0,0)
(0,0,0)
(0,0,0)
(0,0,0)
(0,0,0)
(0,0,0)
(0,0,0)
(0,0,0)
(0,0,0)
(0,0,0)
(18083860.164164,57958.2008400652,50267.9369977406)
(18072060.2285313,55258.1210353755,108001.513360213)
(18044933.7266212,49419.0610006465,182383.944137778)
(17994314.8896697,39910.4190008837,286084.963596937)
(17904175.633039,26479.6241204172,437788.694396332)
(17743773.569613,10446.661535284,666164.253591958)
(17449452.2823214,-3926.77933389495,1022625.86471038)
(16867724.4013522,-10239.4893160274,1640661.51733387)
(15554877.2674935,-8486.670505736,3024895.88360856)
(11989537.0004542,-4149.08399851191,7425737.57563034)
(0,0,0)
(0,0,0)
(0,0,0)
(0,0,0)
(0,0,0)
(0,0,0)
(18071806.8646883,123632.757821427,47523.8958126267)
(18060013.9009871,118504.806558033,102180.455406569)
(18032677.8263582,107348.27463845,172929.210576088)
(17981108.9940083,88823.6825864263,272745.441713545)
(17888488.7836247,61700.5712414247,421778.157060412)
(17723575.160029,27473.0432107701,651769.268916061)
(17424709.3548178,-5156.02723850169,1016260.10441384)
(16845375.0823025,-19026.2772914348,1642392.00592346)
(15541019.432766,-14225.3686056357,3029220.77228414)
(11983475.1903436,-6054.22321068631,7429913.57353093)
(0,0,0)
(0,0,0)
(0,0,0)
(0,0,0)
(0,0,0)
(0,0,0)
(18044561.0651592,205621.214249971,42340.6750416758)
(18032783.4087894,198759.61450813,91013.8609612503)
(18004927.1142224,183677.166122527,154385.550611734)
(17951079.0778312,157978.370832942,245671.178795487)
(17852014.3916955,118525.033492124,387589.257335776)
(17673583.5784552,64631.6567992649,619118.56734538)
(17357607.5944187,7458.98445374548,1002266.94074296)
(16783776.1130594,-16822.1046028556,1647143.78746779)
(15505229.5048167,-8062.78575282848,3037358.71656065)
(11968642.4598783,-364.757547502549,7436014.22347212)
(0,0,0)
(0,0,0)
(0,0,0)
(0,0,0)
(0,0,0)
(0,0,0)
(17994486.8086192,314554.613308735,35416.8468118585)
(17982712.0155623,307052.11793274,75950.4895195041)
(17954168.7731458,290535.874154791,128717.038675961)
(17896774.6137511,262008.484009755,206303.035713314)
(17785895.5162097,216804.397292611,333739.041112969)
(17576880.3237819,150537.04914592,561906.89055441)
(17208366.1266724,70164.2196600684,977899.156463471)
(16643499.5280821,30898.8367609804,1655866.09715507)
(15432798.707581,34004.3118495904,3044976.08338794)
(11940809.2217261,24006.010640359,7436353.26634497)
(0,0,0)
(0,0,0)
(0,0,0)
(0,0,0)
(0,0,0)
(0,0,0)
(17906233.1240989,465364.499708896,27884.3195335524)
(17894699.6398237,458393.75794828,59481.0522945553)
(17866031.3932566,443249.440899016,100295.938386629)
(17805641.5627783,417670.417109314,161240.567615837)
(17681236.4487283,378498.506300785,267563.807815839)
(17426373.0655603,323724.343349957,481532.593693199)
(16940021.3793471,259100.369582205,938621.043689606)
(16383346.556048,202499.104216533,1658925.62270065)
(15319241.0132616,148081.225211955,3034883.00898059)
(11899402.0018401,80042.919961445,7412248.98881062)
(0,0,0)
(0,0,0)
(0,0,0)
(0,0,0)
(0,0,0)
(0,0,0)
(17749245.5777124,682875.667782988,20892.3616740266)
(17738471.9154266,677120.284586916,44403.0282377784)
(17711164.1538077,664889.965947245,74828.4285514598)
(17651882.2846214,644757.162029552,122155.989285686)
(17526026.1026097,614296.898248041,212860.236787143)
(17263846.4082694,570033.714799546,416926.608365565)
(16771337.6737918,508712.626048893,882018.687748485)
(16239239.8313213,430177.41014217,1604431.66097368)
(15222548.8342857,313300.406736847,2966707.71100262)
(11851958.9945341,165689.643297345,7332054.92620108)
(0,0,0)
(0,0,0)
(0,0,0)
(0,0,0)
(0,0,0)
(0,0,0)
(17458033.2729682,1018790.72128007,15159.1684335046)
(17448613.2840377,1014345.9098876,32246.5812452154)
(17424389.9878401,1005210.52958013,54747.6660744956)
(17370558.4517207,990730.481595591,91681.6845705302)
(17253173.2414824,969177.228229071,168563.772113184)
(17002469.1294228,935535.65298475,355579.691964554)
(16524789.5714051,876860.298553876,803481.486864913)
(16044562.5534429,772623.220129063,1487497.31247366)
(15079315.9791078,564266.091188573,2818971.34745657)
(11771020.3327213,301654.45118524,7166254.38938024)
(0,0,0)
(0,0,0)
(0,0,0)
(0,0,0)
(0,0,0)
(0,0,0)
(16875833.6694358,1614676.97862142,10765.6883853491)
(16868365.5841472,1611115.67640249,23143.2815120926)
(16849056.5611362,1603909.92959876,40221.6852658251)
(16805543.4930682,1592771.91873519,70010.9497210159)
(16708786.4615192,1576598.21439417,134836.482130972)
(16496120.4003593,1550401.74702062,296844.377847703)
(16078023.5071859,1490086.28820018,699237.682325389)
(15764844.9197535,1303045.21830514,1279187.40139501)
(14790419.8237339,998127.126611683,2556376.4800481)
(11583665.6516926,570906.260310177,6864619.22404768)
(0,0,0)
(0,0,0)
(0,0,0)
(0,0,0)
(0,0,0)
(0,0,0)
(15559611.6017913,2983254.66948058,7216.94592123262)
(15554562.0691981,2979858.97227809,15904.8558164977)
(15541667.2042565,2972555.43639053,28968.8678987241)
(15513196.2613033,2959718.44317641,53725.7536050126)
(15452640.4899087,2936731.69556692,108635.32809173)
(15329512.7843812,2890755.65914614,236548.326515086)
(15107540.6885891,2787153.43119599,512305.641056147)
(14795673.1002516,2551115.56848266,974466.199274907)
(13915172.727017,2133960.02455619,2129285.84245124)
(11013708.8686793,1391345.32246698,6293860.17987425)
(0,0,0)
(0,0,0)
(0,0,0)
(0,0,0)
(0,0,0)
(0,0,0)
(11991285.0622495,7376696.58335714,3721.11748984689)
(11988761.3944509,7373160.14045114,8382.40617179164)
(11982441.5381205,7365107.34056062,15834.1082438799)
(11968759.0725498,7349631.27899902,30522.8710645225)
(11940613.4145876,7319368.23695111,62616.666561229)
(11885303.3099427,7256812.04908881,132954.141539071)
(11782845.5907144,7123843.02088669,276360.439831638)
(11586590.724217,6847348.92709927,557451.096476055)
(11014165.3326348,6289701.19059309,1386787.93694359)
(8955485.73904563,4902769.24560698,4902653.37546105)
(0,0,0)
(0,0,0)
(0,0,0)
(0,0,0)
(0,0,0)
(0,0,0)
(0,0,0)
(0,0,0)
(0,0,0)
(0,0,0)
(0,0,0)
(0,0,0)
(0,0,0)
(0,0,0)
(0,0,0)
(0,0,0)
(0,0,0)
(0,0,0)
(0,0,0)
(0,0,0)
(0,0,0)
(0,0,0)
(0,0,0)
(0,0,0)
(0,0,0)
(0,0,0)
(0,0,0)
(0,0,0)
(0,0,0)
(0,0,0)
(0,0,0)
(0,0,0)
(0,0,0)
(0,0,0)
(0,0,0)
(0,0,0)
(0,0,0)
(0,0,0)
(0,0,0)
(0,0,0)
(0,0,0)
(0,0,0)
(0,0,0)
(0,0,0)
(0,0,0)
(0,0,0)
(0,0,0)
(0,0,0)
(0,0,0)
(0,0,0)
(0,0,0)
(0,0,0)
(0,0,0)
(0,0,0)
(0,0,0)
(0,0,0)
(0,0,0)
(0,0,0)
(0,0,0)
(0,0,0)
(0,0,0)
(0,0,0)
(0,0,0)
(0,0,0)
(0,0,0)
(0,0,0)
(0,0,0)
(0,0,0)
(0,0,0)
(0,0,0)
(0,0,0)
(0,0,0)
(0,0,0)
(0,0,0)
(0,0,0)
(0,0,0)
(0,0,0)
(0,0,0)
(0,0,0)
(0,0,0)
(0,0,0)
(0,0,0)
(0,0,0)
(0,0,0)
(0,0,0)
(0,0,0)
(0,0,0)
(0,0,0)
(0,0,0)
(0,0,0)
(0,0,0)
(0,0,0)
(0,0,0)
(0,0,0)
(0,0,0)
(0,0,0)
(0,0,0)
(0,0,0)
(0,0,0)
(0,0,0)
(0,0,0)
(0,0,0)
(-314896.257252947,45923.3689971578,38431.2706854087)
(-327909.830105158,43178.50660827,80821.0409791454)
(-357376.27342834,37090.5466865076,131638.712607887)
(-410917.80288281,26642.2994037907,195827.324022238)
(-502507.021489557,10781.9270860437,277326.26973041)
(-655346.949639861,-9737.50763159682,371782.514880652)
(-905397.091482806,-28602.8937983792,440833.000748864)
(-1301223.5310809,-32502.1684142026,327881.319861821)
(-1868958.49551878,-22323.2466281604,-540361.452232166)
(-2291257.17854169,-10209.770344977,-4563759.28462549)
(0,0,0)
(0,0,0)
(0,0,0)
(0,0,0)
(0,0,0)
(0,0,0)
(-328659.964202481,96340.0408236725,35648.3753298621)
(-341423.164658456,91136.101503608,74726.0643456517)
(-370562.446037894,79458.6066811166,121196.495012787)
(-424148.892704593,58705.9628382637,179988.936556877)
(-517143.812521251,25217.5704823385,256784.107572109)
(-674157.899540114,-22484.0044538445,352861.882228987)
(-930105.960622792,-72199.635893006,436872.15802977)
(-1322126.83080377,-80567.2443822663,338037.365369705)
(-1879412.08559589,-50004.884400839,-528251.260229925)
(-2294953.64224396,-20902.9257793464,-4553531.05394228)
(0,0,0)
(0,0,0)
(0,0,0)
(0,0,0)
(0,0,0)
(0,0,0)
(-359393.527199539,155461.455884666,30431.3955634583)
(-371683.520793752,148590.052469788,63042.5924460769)
(-400259.582936378,132862.375089689,100423.73946184)
(-454354.406932818,103669.829175418,146491.576154323)
(-552164.6693822,52435.1904417132,209051.235538306)
(-725361.107668539,-31973.2827702079,303083.418243975)
(-1012632.15194426,-141658.810572039,428380.557551513)
(-1394367.3136933,-156985.204449333,368540.162636809)
(-1911072.11811633,-80383.5978240833,-499181.282741185)
(-2305087.05248027,-28128.7766296855,-4532627.70126665)
(0,0,0)
(0,0,0)
(0,0,0)
(0,0,0)
(0,0,0)
(0,0,0)
(-414281.17702813,226284.767731482,23542.8920661153)
(-425944.531226481,219057.038553448,47330.6710368136)
(-453708.164898083,202422.054547278,71246.1478886737)
(-508906.557322364,170903.040731738,95292.3256714411)
(-617598.357574592,112177.173297031,124642.434866004)
(-838308.128486778,108.17841773543,193347.644212283)
(-1269258.81947915,-198047.367151722,412959.365209052)
(-1630921.47701311,-229087.117811893,445080.501932466)
(-1990495.85186717,-79405.0199445362,-447005.298233167)
(-2326890.61104662,-17311.4017897037,-4504524.62203493)
(0,0,0)
(0,0,0)
(0,0,0)
(0,0,0)
(0,0,0)
(0,0,0)
(-506509.744821049,308345.440705112,16280.4142119371)
(-517236.973378727,302150.659318512,30721.6249149386)
(-543436.732050548,288386.145039829,39823.8779950751)
(-598645.007255305,263914.120154966,36697.5868711262)
(-720235.729138857,223294.486634477,12650.6696663913)
(-1031667.13835296,161225.87302743,-4828.60276448877)
(-2049639.51027318,90478.1061082138,381905.031861457)
(-2431468.19120653,58485.6472570064,594745.232312722)
(-2146338.72081645,51476.8169861839,-384958.652274212)
(-2362650.09427167,32639.5684298728,-4487259.30811623)
(0,0,0)
(0,0,0)
(0,0,0)
(0,0,0)
(0,0,0)
(0,0,0)
(-658512.579296893,391612.494992253,10089.3209877956)
(-667940.808316515,387228.498009427,17022.4243056042)
(-691425.411809822,378121.026981421,15475.3262471635)
(-742785.652579983,363464.786390004,-3809.18452094111)
(-861045.906554517,341505.176415848,-49349.646872442)
(-1171778.82968295,308707.031872152,-75607.3494992016)
(-2140326.20572521,262245.951319838,349886.903071748)
(-2490063.37030533,235575.313633776,587698.656587244)
(-2218939.80650419,170129.699287619,-403867.366658728)
(-2398383.87129072,84738.6612540865,-4520025.37539237)
(0,0,0)
(0,0,0)
(0,0,0)
(0,0,0)
(0,0,0)
(0,0,0)
(-907097.423876163,436586.545565991,5754.86453621025)
(-914901.328619713,434113.10374706,7983.08972153318)
(-934678.433813248,429893.579814845,877.176806933061)
(-979481.573338328,425738.119747122,-25757.9132254924)
(-1088135.78557666,424840.556151954,-82186.0476369847)
(-1392496.43375413,429226.690500015,-122141.924822228)
(-2402915.87535548,430156.086850473,323251.604673427)
(-2726211.90555104,492954.886312019,522244.709254725)
(-2328834.06725196,275415.534432285,-489292.861264351)
(-2457375.45418615,114287.196101549,-4604847.39093886)
(0,0,0)
(0,0,0)
(0,0,0)
(0,0,0)
(0,0,0)
(0,0,0)
(-1304002.1544962,298680.00202307,3340.58574049238)
(-1309934.35123512,297533.631302777,3818.2118326642)
(-1325059.33900064,296708.543199582,-3282.63314965367)
(-1360229.29409215,300560.766693863,-26734.2746704518)
(-1450192.50112579,320534.178110057,-77850.7157177823)
(-1729444.03416756,383812.377862199,-121273.750287634)
(-2833167.68324367,519628.246158624,386043.499099478)
(-2309212.94388436,333899.866718701,304754.600596312)
(-2416395.29393203,122928.738505435,-650345.267545177)
(-2548676.22045325,968.076608726626,-4719086.05764084)
(0,0,0)
(0,0,0)
(0,0,0)
(0,0,0)
(0,0,0)
(0,0,0)
(-1873580.7448664,-584728.63386736,2199.2008136561)
(-1877457.0971218,-585619.408573324,2969.62527517881)
(-1887159.80627257,-586384.02405818,487.421327630702)
(-1908807.96169176,-584508.655855177,-6840.71486257571)
(-1958371.96189672,-575170.40646668,-14525.4602147381)
(-2076776.80681748,-553384.602302197,14559.3294138935)
(-2335582.65476421,-537495.11479376,200404.251985121)
(-2420449.03273658,-657920.789687916,93945.2596454243)
(-2643193.0480656,-766999.149368301,-772162.859132571)
(-2685137.94462446,-666855.836718471,-4719893.91423602)
(0,0,0)
(0,0,0)
(0,0,0)
(0,0,0)
(0,0,0)
(0,0,0)
(-2294862.83995847,-4614207.13718607,1224.62379237126)
(-2296760.30207853,-4615309.53100155,2034.66101565388)
(-2301401.07728785,-4617067.45025144,2158.92088287757)
(-2311406.26208157,-4618947.18121411,2360.99913868928)
(-2332689.78128507,-4621169.28972827,7261.29653857482)
(-2377277.7206649,-4628420.27003359,30476.2131431203)
(-2459688.25606008,-4658976.19231426,80089.3557037006)
(-2551424.57344468,-4739220.81503433,-14997.103022756)
(-2685919.51304107,-4724425.34804127,-671887.840408347)
(-2592088.89136773,-4052699.09151763,-4052871.73693016)
(0,0,0)
(0,0,0)
(0,0,0)
(0,0,0)
(0,0,0)
(0,0,0)
(0,0,0)
(0,0,0)
(0,0,0)
(0,0,0)
(0,0,0)
(0,0,0)
(0,0,0)
(0,0,0)
(0,0,0)
(0,0,0)
(0,0,0)
(0,0,0)
(0,0,0)
(0,0,0)
(0,0,0)
(0,0,0)
(0,0,0)
(0,0,0)
(0,0,0)
(0,0,0)
(0,0,0)
(0,0,0)
(0,0,0)
(0,0,0)
(0,0,0)
(0,0,0)
(0,0,0)
(0,0,0)
(0,0,0)
(0,0,0)
(0,0,0)
(0,0,0)
(0,0,0)
(0,0,0)
(0,0,0)
(0,0,0)
(0,0,0)
(0,0,0)
(0,0,0)
(0,0,0)
(0,0,0)
(0,0,0)
(0,0,0)
(0,0,0)
(0,0,0)
(0,0,0)
(0,0,0)
(0,0,0)
(0,0,0)
(0,0,0)
(0,0,0)
(0,0,0)
(0,0,0)
(0,0,0)
(0,0,0)
(0,0,0)
(0,0,0)
(0,0,0)
(0,0,0)
(0,0,0)
(0,0,0)
(0,0,0)
(0,0,0)
(0,0,0)
(0,0,0)
(0,0,0)
(0,0,0)
(0,0,0)
(0,0,0)
(0,0,0)
(0,0,0)
(0,0,0)
(0,0,0)
(0,0,0)
(0,0,0)
(0,0,0)
(0,0,0)
(0,0,0)
(0,0,0)
(0,0,0)
(0,0,0)
(0,0,0)
(0,0,0)
(0,0,0)
(0,0,0)
(0,0,0)
(0,0,0)
(0,0,0)
(0,0,0)
(0,0,0)
(0,0,0)
(0,0,0)
(0,0,0)
(0,0,0)
(0,0,0)
(0,0,0)
(-372445.813396804,32149.9765226099,25399.5796212482)
(-383491.587119824,29593.2142973408,51388.1223385776)
(-407881.817900985,23817.0881547076,78076.5786565165)
(-450357.188404165,13353.8157720154,104162.148405853)
(-518824.549017863,-3874.42970108322,124354.105635245)
(-624070.913765647,-28531.1380578594,121609.207818894)
(-775457.177312347,-53230.7300614634,44900.0237099013)
(-963189.991574028,-53296.7362322127,-239836.779564762)
(-1113423.2526131,-32740.5639128378,-962631.458557574)
(-967608.99116056,-13887.7785661737,-2272391.86737252)
(0,0,0)
(0,0,0)
(0,0,0)
(0,0,0)
(0,0,0)
(0,0,0)
(-384952.518598264,65618.2726829804,22824.2582354102)
(-395357.199645682,60797.4605959535,45554.0469240239)
(-418368.954024106,49652.4042086679,67525.2388562784)
(-458562.832334739,28413.957007581,86879.0372508558)
(-523916.160411621,-9867.06915393825,99644.0245940839)
(-626153.653711055,-73724.1482634415,96832.7889706151)
(-776571.99535952,-154691.549892007,44759.6435378925)
(-958628.62216366,-152736.782891499,-219298.51844293)
(-1106034.26531469,-81651.9086437443,-943764.993993222)
(-963067.071455513,-31048.5733096893,-2258490.77003821)
(0,0,0)
(0,0,0)
(0,0,0)
(0,0,0)
(0,0,0)
(0,0,0)
(-412388.306383793,100579.799890229,18033.2519770093)
(-421550.836889816,94311.5087288437,34386.5199401792)
(-441828.923515648,79387.3606412305,46220.9040868852)
(-477363.233371544,49100.3577320064,48543.3298011897)
(-536187.155797274,-13014.360337079,35713.1073994024)
(-634251.426970879,-144875.454639483,15754.733077771)
(-799988.281639727,-398164.723062946,46584.0359441802)
(-958847.422541152,-393415.64116083,-148256.99693865)
(-1088073.62043686,-159711.845514434,-893195.557747415)
(-951964.163464091,-49873.5073547924,-2227493.51271849)
(0,0,0)
(0,0,0)
(0,0,0)
(0,0,0)
(0,0,0)
(0,0,0)
(-459580.206792296,134088.080899437,11790.7487549663)
(-467080.469750313,127752.370575178,19485.8254324685)
(-483408.354595363,112625.914666601,15947.4611043815)
(-511417.364391731,81098.2601870915,-13539.6342813374)
(-557499.097225185,9512.18875927188,-96165.4437270921)
(-648528.134802212,-193181.668783511,-237639.223267631)
(-978045.21402682,-978240.670274724,51223.1184918147)
(-1029109.41131405,-1029416.3168192,85411.7284511275)
(-1046292.31014949,-235085.225516986,-783418.433264008)
(-929571.103831044,-52979.2679198188,-2177632.17991458)
(0,0,0)
(0,0,0)
(0,0,0)
(0,0,0)
(0,0,0)
(0,0,0)
(-534211.737360078,156295.549640466,5494.52379799869)
(-539776.263983462,151374.329427033,4411.85555087886)
(-551191.869616889,140297.220605967,-15504.3128221458)
(-567689.791130273,119676.793572182,-85038.0623322649)
(-579362.391305688,82449.5888435341,-298848.800249699)
(-522056.043836168,21184.133219684,-1022825.69676969)
(8.70785644863091e-05,2.27050755401208e-05,-5.68869119225918e-05)