/*--------------------------------*- C++ -*----------------------------------*\
| =========                 |                                                 |
| \\      /  F ield         | foam-extend: Open Source Cstd::filesystem::create_directory();FD                    |
|  \\    /   O peration     | Version:     4.0                                |
|   \\  /    A nd           | Web:         http://www.foam-extend.org         |
|    \\/     M anipulation  |                                                 |
\*---------------------------------------------------------------------------*/
FoamFile
{
    version 2.0;
    format ascii;
    class volVectorField;
    location "Data/3952";
    object      H;
}
// * * * * * * * * * * * * * * * * * * * * * * * * * * * * * * * * * * * * * //

dimensions      [0 1 -1 0 0 0 0];

internalField   nonuniform List<vector>
4096
(
(0,0,0)
(0,0,0)
(0,0,0)
(0,0,0)
(0,0,0)
(0,0,0)
(0,0,0)
(0,0,0)
(0,0,0)
(0,0,0)
(0,0,0)
(0,0,0)
(0,0,0)
(0,0,0)
(0,0,0)
(0,0,0)
(0,0,0)
(0,0,0)
(0,0,0)
(0,0,0)
(0,0,0)
(0,0,0)
(0,0,0)
(0,0,0)
(0,0,0)
(0,0,0)
(0,0,0)
(0,0,0)
(0,0,0)
(0,0,0)
(0,0,0)
(0,0,0)
(0,0,0)
(0,0,0)
(0,0,0)
(0,0,0)
(0,0,0)
(0,0,0)
(0,0,0)
(0,0,0)
(0,0,0)
(0,0,0)
(0,0,0)
(0,0,0)
(0,0,0)
(0,0,0)
(0,0,0)
(0,0,0)
(0,0,0)
(0,0,0)
(0,0,0)
(0,0,0)
(0,0,0)
(0,0,0)
(0,0,0)
(0,0,0)
(0,0,0)
(0,0,0)
(0,0,0)
(0,0,0)
(0,0,0)
(0,0,0)
(0,0,0)
(0,0,0)
(0,0,0)
(0,0,0)
(0,0,0)
(0,0,0)
(0,0,0)
(0,0,0)
(0,0,0)
(0,0,0)
(0,0,0)
(0,0,0)
(0,0,0)
(0,0,0)
(0,0,0)
(0,0,0)
(0,0,0)
(0,0,0)
(0,0,0)
(0,0,0)
(0,0,0)
(0,0,0)
(0,0,0)
(0,0,0)
(0,0,0)
(0,0,0)
(0,0,0)
(0,0,0)
(0,0,0)
(0,0,0)
(0,0,0)
(0,0,0)
(0,0,0)
(0,0,0)
(0,0,0)
(0,0,0)
(0,0,0)
(0,0,0)
(0,0,0)
(0,0,0)
(0,0,0)
(0,0,0)
(0,0,0)
(0,0,0)
(0,0,0)
(0,0,0)
(0,0,0)
(0,0,0)
(0,0,0)
(0,0,0)
(0,0,0)
(0,0,0)
(0,0,0)
(0,0,0)
(0,0,0)
(0,0,0)
(0,0,0)
(0,0,0)
(0,0,0)
(0,0,0)
(0,0,0)
(0,0,0)
(0,0,0)
(0,0,0)
(0,0,0)
(0,0,0)
(0,0,0)
(0,0,0)
(0,0,0)
(0,0,0)
(0,0,0)
(0,0,0)
(0,0,0)
(0,0,0)
(0,0,0)
(0,0,0)
(0,0,0)
(0,0,0)
(0,0,0)
(0,0,0)
(0,0,0)
(0,0,0)
(0,0,0)
(0,0,0)
(0,0,0)
(0,0,0)
(0,0,0)
(0,0,0)
(0,0,0)
(0,0,0)
(0,0,0)
(0,0,0)
(0,0,0)
(0,0,0)
(0,0,0)
(0,0,0)
(0,0,0)
(0,0,0)
(0,0,0)
(0,0,0)
(0,0,0)
(0,0,0)
(0,0,0)
(0,0,0)
(0,0,0)
(0,0,0)
(0,0,0)
(0,0,0)
(0,0,0)
(0,0,0)
(0,0,0)
(0,0,0)
(0,0,0)
(0,0,0)
(0,0,0)
(0,0,0)
(0,0,0)
(0,0,0)
(0,0,0)
(0,0,0)
(0,0,0)
(0,0,0)
(0,0,0)
(0,0,0)
(0,0,0)
(0,0,0)
(0,0,0)
(0,0,0)
(0,0,0)
(0,0,0)
(0,0,0)
(0,0,0)
(0,0,0)
(0,0,0)
(0,0,0)
(0,0,0)
(0,0,0)
(0,0,0)
(0,0,0)
(0,0,0)
(0,0,0)
(0,0,0)
(0,0,0)
(0,0,0)
(0,0,0)
(0,0,0)
(0,0,0)
(0,0,0)
(0,0,0)
(0,0,0)
(0,0,0)
(0,0,0)
(0,0,0)
(0,0,0)
(0,0,0)
(0,0,0)
(0,0,0)
(0,0,0)
(0,0,0)
(0,0,0)
(0,0,0)
(0,0,0)
(0,0,0)
(0,0,0)
(0,0,0)
(0,0,0)
(0,0,0)
(0,0,0)
(0,0,0)
(0,0,0)
(0,0,0)
(0,0,0)
(0,0,0)
(0,0,0)
(0,0,0)
(0,0,0)
(0,0,0)
(0,0,0)
(0,0,0)
(0,0,0)
(0,0,0)
(0,0,0)
(0,0,0)
(0,0,0)
(0,0,0)
(0,0,0)
(0,0,0)
(0,0,0)
(0,0,0)
(0,0,0)
(0,0,0)
(0,0,0)
(0,0,0)
(0,0,0)
(0,0,0)
(0,0,0)
(0,0,0)
(0,0,0)
(0,0,0)
(0,0,0)
(0,0,0)
(0,0,0)
(0,0,0)
(0,0,0)
(0,0,0)
(0,0,0)
(0,0,0)
(0,0,0)
(0,0,0)
(0,0,0)
(0,0,0)
(0,0,0)
(0,0,0)
(0,0,0)
(0,0,0)
(0,0,0)
(0,0,0)
(0,0,0)
(0,0,0)
(0,0,0)
(0,0,0)
(0,0,0)
(0,0,0)
(0,0,0)
(0,0,0)
(0,0,0)
(0,0,0)
(0,0,0)
(0,0,0)
(0,0,0)
(0,0,0)
(0,0,0)
(0,0,0)
(0,0,0)
(0,0,0)
(0,0,0)
(0,0,0)
(0,0,0)
(0,0,0)
(0,0,0)
(0,0,0)
(0,0,0)
(0,0,0)
(0,0,0)
(0,0,0)
(0,0,0)
(0,0,0)
(0,0,0)
(0,0,0)
(0,0,0)
(0,0,0)
(0,0,0)
(0,0,0)
(0,0,0)
(0,0,0)
(0,0,0)
(0,0,0)
(0,0,0)
(0,0,0)
(0,0,0)
(0,0,0)
(0,0,0)
(0,0,0)
(0,0,0)
(0,0,0)
(0,0,0)
(0,0,0)
(0,0,0)
(0,0,0)
(0,0,0)
(0,0,0)
(0,0,0)
(0,0,0)
(0,0,0)
(0,0,0)
(0,0,0)
(0,0,0)
(0,0,0)
(0,0,0)
(0,0,0)
(0,0,0)
(0,0,0)
(0,0,0)
(0,0,0)
(0,0,0)
(0,0,0)
(0,0,0)
(0,0,0)
(0,0,0)
(0,0,0)
(0,0,0)
(0,0,0)
(0,0,0)
(0,0,0)
(0,0,0)
(0,0,0)
(0,0,0)
(0,0,0)
(0,0,0)
(0,0,0)
(0,0,0)
(0,0,0)
(0,0,0)
(0,0,0)
(0,0,0)
(0,0,0)
(0,0,0)
(0,0,0)
(0,0,0)
(0,0,0)
(0,0,0)
(0,0,0)
(0,0,0)
(0,0,0)
(0,0,0)
(0,0,0)
(0,0,0)
(0,0,0)
(0,0,0)
(0,0,0)
(0,0,0)
(0,0,0)
(0,0,0)
(0,0,0)
(0,0,0)
(0,0,0)
(0,0,0)
(0,0,0)
(0,0,0)
(0,0,0)
(0,0,0)
(0,0,0)
(0,0,0)
(0,0,0)
(0,0,0)
(0,0,0)
(0,0,0)
(0,0,0)
(0,0,0)
(0,0,0)
(0,0,0)
(0,0,0)
(0,0,0)
(0,0,0)
(0,0,0)
(0,0,0)
(0,0,0)
(0,0,0)
(0,0,0)
(0,0,0)
(0,0,0)
(0,0,0)
(0,0,0)
(0,0,0)
(0,0,0)
(0,0,0)
(0,0,0)
(0,0,0)
(0,0,0)
(0,0,0)
(0,0,0)
(0,0,0)
(0,0,0)
(0,0,0)
(0,0,0)
(0,0,0)
(0,0,0)
(0,0,0)
(0,0,0)
(0,0,0)
(0,0,0)
(0,0,0)
(0,0,0)
(0,0,0)
(0,0,0)
(0,0,0)
(0,0,0)
(0,0,0)
(0,0,0)
(0,0,0)
(0,0,0)
(0,0,0)
(0,0,0)
(0,0,0)
(0,0,0)
(0,0,0)
(0,0,0)
(0,0,0)
(0,0,0)
(0,0,0)
(0,0,0)
(0,0,0)
(0,0,0)
(0,0,0)
(0,0,0)
(0,0,0)
(0,0,0)
(0,0,0)
(0,0,0)
(0,0,0)
(0,0,0)
(0,0,0)
(0,0,0)
(0,0,0)
(0,0,0)
(0,0,0)
(0,0,0)
(0,0,0)
(0,0,0)
(0,0,0)
(0,0,0)
(0,0,0)
(0,0,0)
(0,0,0)
(0,0,0)
(0,0,0)
(0,0,0)
(0,0,0)
(0,0,0)
(0,0,0)
(0,0,0)
(0,0,0)
(0,0,0)
(0,0,0)
(0,0,0)
(0,0,0)
(0,0,0)
(0,0,0)
(0,0,0)
(0,0,0)
(0,0,0)
(0,0,0)
(0,0,0)
(0,0,0)
(0,0,0)
(0,0,0)
(0,0,0)
(0,0,0)
(0,0,0)
(0,0,0)
(0,0,0)
(0,0,0)
(0,0,0)
(0,0,0)
(0,0,0)
(0,0,0)
(0,0,0)
(0,0,0)
(0,0,0)
(0,0,0)
(0,0,0)
(0,0,0)
(0,0,0)
(0,0,0)
(0,0,0)
(0,0,0)
(0,0,0)
(0,0,0)
(0,0,0)
(0,0,0)
(0,0,0)
(0,0,0)
(0,0,0)
(0,0,0)
(0,0,0)
(0,0,0)
(0,0,0)
(0,0,0)
(0,0,0)
(0,0,0)
(0,0,0)
(0,0,0)
(0,0,0)
(0,0,0)
(0,0,0)
(0,0,0)
(0,0,0)
(0,0,0)
(0,0,0)
(0,0,0)
(0,0,0)
(0,0,0)
(0,0,0)
(0,0,0)
(0,0,0)
(0,0,0)
(0,0,0)
(0,0,0)
(0,0,0)
(0,0,0)
(0,0,0)
(0,0,0)
(0,0,0)
(0,0,0)
(0,0,0)
(0,0,0)
(0,0,0)
(0,0,0)
(0,0,0)
(0,0,0)
(0,0,0)
(0,0,0)
(0,0,0)
(0,0,0)
(0,0,0)
(0,0,0)
(0,0,0)
(0,0,0)
(0,0,0)
(0,0,0)
(0,0,0)
(0,0,0)
(0,0,0)
(0,0,0)
(0,0,0)
(0,0,0)
(0,0,0)
(0,0,0)
(0,0,0)
(0,0,0)
(0,0,0)
(0,0,0)
(0,0,0)
(0,0,0)
(0,0,0)
(0,0,0)
(0,0,0)
(0,0,0)
(0,0,0)
(0,0,0)
(0,0,0)
(0,0,0)
(0,0,0)
(0,0,0)
(0,0,0)
(0,0,0)
(0,0,0)
(0,0,0)
(0,0,0)
(0,0,0)
(0,0,0)
(0,0,0)
(0,0,0)
(0,0,0)
(0,0,0)
(0,0,0)
(0,0,0)
(0,0,0)
(0,0,0)
(0,0,0)
(0,0,0)
(0,0,0)
(0,0,0)
(0,0,0)
(0,0,0)
(0,0,0)
(0,0,0)
(0,0,0)
(0,0,0)
(0,0,0)
(0,0,0)
(0,0,0)
(0,0,0)
(0,0,0)
(0,0,0)
(0,0,0)
(0,0,0)
(0,0,0)
(0,0,0)
(0,0,0)
(0,0,0)
(0,0,0)
(0,0,0)
(0,0,0)
(0,0,0)
(0,0,0)
(0,0,0)
(0,0,0)
(0,0,0)
(0,0,0)
(0,0,0)
(0,0,0)
(0,0,0)
(0,0,0)
(0,0,0)
(0,0,0)
(0,0,0)
(0,0,0)
(0,0,0)
(0,0,0)
(0,0,0)
(0,0,0)
(0,0,0)
(0,0,0)
(0,0,0)
(0,0,0)
(0,0,0)
(0,0,0)
(0,0,0)
(0,0,0)
(0,0,0)
(0,0,0)
(0,0,0)
(0,0,0)
(0,0,0)
(0,0,0)
(0,0,0)
(0,0,0)
(0,0,0)
(0,0,0)
(0,0,0)
(0,0,0)
(0,0,0)
(0,0,0)
(0,0,0)
(0,0,0)
(0,0,0)
(0,0,0)
(0,0,0)
(0,0,0)
(0,0,0)
(0,0,0)
(0,0,0)
(0,0,0)
(0,0,0)
(0,0,0)
(0,0,0)
(0,0,0)
(0,0,0)
(0,0,0)
(0,0,0)
(0,0,0)
(0,0,0)
(0,0,0)
(0,0,0)
(0,0,0)
(0,0,0)
(0,0,0)
(0,0,0)
(0,0,0)
(0,0,0)
(0,0,0)
(0,0,0)
(0,0,0)
(0,0,0)
(0,0,0)
(0,0,0)
(0,0,0)
(0,0,0)
(0,0,0)
(0,0,0)
(0,0,0)
(0,0,0)
(0,0,0)
(0,0,0)
(0,0,0)
(0,0,0)
(0,0,0)
(0,0,0)
(0,0,0)
(0,0,0)
(0,0,0)
(0,0,0)
(0,0,0)
(0,0,0)
(0,0,0)
(0,0,0)
(0,0,0)
(0,0,0)
(0,0,0)
(0,0,0)
(0,0,0)
(0,0,0)
(0,0,0)
(0,0,0)
(0,0,0)
(0,0,0)
(0,0,0)
(0,0,0)
(0,0,0)
(0,0,0)
(0,0,0)
(0,0,0)
(0,0,0)
(0,0,0)
(0,0,0)
(0,0,0)
(0,0,0)
(0,0,0)
(0,0,0)
(0,0,0)
(0,0,0)
(0,0,0)
(0,0,0)
(0,0,0)
(0,0,0)
(0,0,0)
(0,0,0)
(0,0,0)
(0,0,0)
(0,0,0)
(0,0,0)
(0,0,0)
(0,0,0)
(0,0,0)
(0,0,0)
(0,0,0)
(0,0,0)
(0,0,0)
(0,0,0)
(0,0,0)
(0,0,0)
(0,0,0)
(0,0,0)
(0,0,0)
(0,0,0)
(0,0,0)
(0,0,0)
(0,0,0)
(0,0,0)
(0,0,0)
(0,0,0)
(0,0,0)
(0,0,0)
(0,0,0)
(0,0,0)
(0,0,0)
(0,0,0)
(0,0,0)
(0,0,0)
(0,0,0)
(0,0,0)
(0,0,0)
(0,0,0)
(0,0,0)
(0,0,0)
(0,0,0)
(0,0,0)
(0,0,0)
(0,0,0)
(0,0,0)
(0,0,0)
(0,0,0)
(0,0,0)
(0,0,0)
(0,0,0)
(0,0,0)
(0,0,0)
(0,0,0)
(0,0,0)
(0,0,0)
(0,0,0)
(0,0,0)
(0,0,0)
(0,0,0)
(0,0,0)
(0,0,0)
(7.74130645314037e-13,-1.35639040742547e-11,1.48068038057013e-11)
(2.15087316843658e-12,-3.00175942541089e-11,1.44699822731624e-11)
(3.30505625480921e-12,-4.93809829839788e-11,1.3011795731587e-11)
(3.44237197622758e-12,-7.58603428102058e-11,1.07556345272889e-11)
(2.86533716012866e-12,-1.17147562561395e-10,8.3282102938988e-12)
(2.93051151538853e-12,-1.82082509647666e-10,5.32000334707973e-12)
(3.73813986386691e-12,-2.86423710557784e-10,2.78491800373866e-12)
(3.42178905923723e-12,-4.59592591407915e-10,1.12217730913592e-12)
(2.35916270489386e-12,-7.46702096837063e-10,2.04835662420635e-13)
(2.69446638912718e-13,-1.14834562613367e-09,-3.36194891685644e-14)
(0,0,0)
(0,0,0)
(0,0,0)
(0,0,0)
(0,0,0)
(0,0,0)
(9.11058564154503e-13,-1.32652473613251e-11,3.13924615878433e-11)
(2.63427512194353e-12,-2.85024458539141e-11,3.0115269114811e-11)
(3.97524194772645e-12,-4.7157669650853e-11,2.76081123196429e-11)
(4.23101724078696e-12,-7.35955612861338e-11,2.40060045688511e-11)
(4.34227024403789e-12,-1.14470661611901e-10,1.92583193302141e-11)
(5.58061942096275e-12,-1.79767311199511e-10,1.3696056607472e-11)
(6.56727700547153e-12,-2.85238180201356e-10,8.61191770360346e-12)
(6.67186204097878e-12,-4.59476011045623e-10,4.95739373760074e-12)
(5.95368668963449e-12,-7.47181087355779e-10,2.69206211364971e-12)
(3.6773577241118e-12,-1.14978972984469e-09,1.31570426855738e-12)
(0,0,0)
(0,0,0)
(0,0,0)
(0,0,0)
(0,0,0)
(0,0,0)
(1.14322176531793e-12,-1.21321418509841e-11,5.14014888497052e-11)
(2.17508839664538e-12,-2.57853054598239e-11,4.99066864280625e-11)
(3.16811730494847e-12,-4.33159499970218e-11,4.68316816474531e-11)
(3.48003050563738e-12,-6.89236279010282e-11,4.20559545832288e-11)
(3.5616442582258e-12,-1.09109952406222e-10,3.55150831808756e-11)
(5.61188277255198e-12,-1.74884619328539e-10,2.73403840940676e-11)
(7.88187552004421e-12,-2.82615398389195e-10,1.94609018796948e-11)
(1.03432446268253e-11,-4.59114980504831e-10,1.33715040863871e-11)
(1.13383217601188e-11,-7.47595912713441e-10,8.6781198828824e-12)
(1.06540293966165e-11,-1.15074756572301e-09,4.51249923533692e-12)
(0,0,0)
(0,0,0)
(0,0,0)
(0,0,0)
(0,0,0)
(0,0,0)
(8.72397103180035e-13,-1.02473616076289e-11,7.91161397149027e-11)
(6.0542701742546e-13,-2.19161292084683e-11,7.75870487329362e-11)
(9.24960329888965e-13,-3.76529685112242e-11,7.43461688842262e-11)
(8.96236353622158e-13,-6.16404101068883e-11,6.90386578576706e-11)
(1.00666009433694e-12,-1.00255344734647e-10,6.12327240738738e-11)
(3.97464139921044e-12,-1.65948683106935e-10,5.14747387420202e-11)
(9.07232392044933e-12,-2.76462309715645e-10,4.09155031428024e-11)
(1.42110128997572e-11,-4.56420819601457e-10,3.10395045986122e-11)
(1.77124824539616e-11,-7.45963703245015e-10,2.11851275490295e-11)
(1.94061392638198e-11,-1.14879513293509e-09,1.08835094794394e-11)
(0,0,0)
(0,0,0)
(0,0,0)
(0,0,0)
(0,0,0)
(0,0,0)
(1.15890043919886e-13,-8.20588455914267e-12,1.20251337716282e-10)
(-4.44544842294844e-13,-1.80383354243882e-11,1.19012146632635e-10)
(-7.19357378833947e-13,-3.15309394163688e-11,1.16120715975269e-10)
(-1.91715769330366e-12,-5.26193629390239e-11,1.11208840483415e-10)
(-1.56020057003226e-12,-8.82260082623567e-11,1.03269640523433e-10)
(2.24483949979754e-12,-1.52159588919125e-10,9.35424372224431e-11)
(1.04006325542047e-11,-2.64702687733028e-10,8.2014353933734e-11)
(1.65083604387778e-11,-4.48276554383814e-10,6.58085955951863e-11)
(2.08598612208956e-11,-7.38375492619609e-10,4.63419494153362e-11)
(2.342630737814e-11,-1.14008598049587e-09,2.40825330473205e-11)
(0,0,0)
(0,0,0)
(0,0,0)
(0,0,0)
(0,0,0)
(0,0,0)
(5.90550936393232e-13,-6.51254841607033e-12,1.8331835360882e-10)
(-6.82512359898081e-13,-1.4447524281666e-11,1.82192133454503e-10)
(-1.09652382260986e-12,-2.55581745922561e-11,1.79650219743889e-10)
(-2.27702916887604e-12,-4.33388528701032e-11,1.75614879059729e-10)
(-2.38113637359086e-12,-7.54083041318118e-11,1.68569217188069e-10)
(1.58008371729748e-12,-1.3681150973629e-10,1.58246925321115e-10)
(9.12832654997222e-12,-2.49910553437481e-10,1.43146442129179e-10)
(1.47091959307787e-11,-4.31572015461509e-10,1.19534058841613e-10)
(1.95809566818058e-11,-7.18602615863876e-10,8.6562738052755e-11)
(2.14641624374109e-11,-1.11764309630116e-09,4.56726849576458e-11)
(0,0,0)
(0,0,0)
(0,0,0)
(0,0,0)
(0,0,0)
(0,0,0)
(3.89723883591849e-13,-4.70778022170216e-12,2.8382197243669e-10)
(-8.02706686069637e-13,-1.0948959771071e-11,2.82980267014851e-10)
(-1.73723604665232e-12,-1.98046234956188e-11,2.81182408998183e-10)
(-2.64634642709491e-12,-3.44668333380823e-11,2.77881139047397e-10)
(-2.75386058666048e-12,-6.23530225633605e-11,2.7178711195163e-10)
(1.52837710814699e-13,-1.18831865282021e-10,2.60746030183045e-10)
(4.37520965831085e-12,-2.27188137815062e-10,2.39819898550164e-10)
(8.90463044766712e-12,-4.00895381867052e-10,2.06515207427122e-10)
(1.37996645849056e-11,-6.79656139383035e-10,1.53705629775119e-10)
(1.64801718260728e-11,-1.07307419006668e-09,8.3085659721753e-11)
(0,0,0)
(0,0,0)
(0,0,0)
(0,0,0)
(0,0,0)
(0,0,0)
(-7.4177248587903e-13,-3.18608389021734e-12,4.53709473064363e-10)
(-1.55687195866851e-12,-8.17367901123547e-12,4.53123503194885e-10)
(-2.97029436713736e-12,-1.48570856169429e-11,4.51768752823773e-10)
(-4.77292220586669e-12,-2.68565507683372e-11,4.48648939385783e-10)
(-5.53915384116888e-12,-5.09069990882182e-11,4.42176356792125e-10)
(-4.07857869676338e-12,-1.00417719545937e-10,4.29168540954824e-10)
(-1.48270973052289e-12,-1.94538657823592e-10,4.02997359466253e-10)
(2.51559011069966e-12,-3.49504066563153e-10,3.53868145079121e-10)
(7.46325371659097e-12,-6.1038356788457e-10,2.72846511625007e-10)
(9.40199447431974e-12,-9.90483025015133e-10,1.54267981321163e-10)
(0,0,0)
(0,0,0)
(0,0,0)
(0,0,0)
(0,0,0)
(0,0,0)
(-2.56718372955166e-12,-1.90227267180564e-12,7.39381515301219e-10)
(-3.85002327490597e-12,-5.34991611988895e-12,7.38882195599332e-10)
(-5.41077835691058e-12,-1.00083144653779e-11,7.37649355466216e-10)
(-6.85777775140546e-12,-1.88332969954235e-11,7.33935218131067e-10)
(-7.71714175767994e-12,-3.71593796227104e-11,7.25712958756927e-10)
(-7.28285851642376e-12,-7.48032608115464e-11,7.08746665490453e-10)
(-6.05789314960679e-12,-1.45606552835819e-10,6.74696888331958e-10)
(-2.0987449180882e-12,-2.69271032216077e-10,6.08838985246332e-10)
(2.20204560370782e-12,-4.91959897060583e-10,4.91734949401559e-10)
(2.83624376173388e-12,-8.35910511188597e-10,2.95480993526848e-10)
(0,0,0)
(0,0,0)
(0,0,0)
(0,0,0)
(0,0,0)
(0,0,0)
(-3.59651102279828e-12,-1.06127205037362e-12,1.14200666808181e-09)
(-5.92766824455826e-12,-2.83715653476877e-12,1.14129279742738e-09)
(-7.32162817106307e-12,-5.27342439566313e-12,1.13986018171526e-09)
(-9.10398967637159e-12,-9.79694855540974e-12,1.13533970015062e-09)
(-1.03382098396596e-11,-1.96247676187292e-11,1.12530658509356e-09)
(-9.21879700694187e-12,-4.04071599243601e-11,1.10533687384473e-09)
(-8.79758900748082e-12,-7.94706862957299e-11,1.06508333714598e-09)
(-4.47611752850535e-12,-1.52143611509017e-10,9.85608040714637e-10)
(-7.72051634642818e-13,-2.94881813851645e-10,8.33232415215562e-10)
(-3.76842815957144e-13,-5.39378100637467e-10,5.3875637501538e-10)
(0,0,0)
(0,0,0)
(0,0,0)
(0,0,0)
(0,0,0)
(0,0,0)
(0,0,0)
(0,0,0)
(0,0,0)
(0,0,0)
(0,0,0)
(0,0,0)
(0,0,0)
(0,0,0)
(0,0,0)
(0,0,0)
(0,0,0)
(0,0,0)
(0,0,0)
(0,0,0)
(0,0,0)
(0,0,0)
(0,0,0)
(0,0,0)
(0,0,0)
(0,0,0)
(0,0,0)
(0,0,0)
(0,0,0)
(0,0,0)
(0,0,0)
(0,0,0)
(0,0,0)
(0,0,0)
(0,0,0)
(0,0,0)
(0,0,0)
(0,0,0)
(0,0,0)
(0,0,0)
(0,0,0)
(0,0,0)
(0,0,0)
(0,0,0)
(0,0,0)
(0,0,0)
(0,0,0)
(0,0,0)
(0,0,0)
(0,0,0)
(0,0,0)
(0,0,0)
(0,0,0)
(0,0,0)
(0,0,0)
(0,0,0)
(0,0,0)
(0,0,0)
(0,0,0)
(0,0,0)
(0,0,0)
(0,0,0)
(0,0,0)
(0,0,0)
(0,0,0)
(0,0,0)
(0,0,0)
(0,0,0)
(0,0,0)
(0,0,0)
(0,0,0)
(0,0,0)
(0,0,0)
(0,0,0)
(0,0,0)
(0,0,0)
(0,0,0)
(0,0,0)
(0,0,0)
(0,0,0)
(0,0,0)
(0,0,0)
(0,0,0)
(0,0,0)
(0,0,0)
(0,0,0)
(0,0,0)
(0,0,0)
(0,0,0)
(0,0,0)
(0,0,0)
(0,0,0)
(0,0,0)
(0,0,0)
(0,0,0)
(0,0,0)
(0,0,0)
(0,0,0)
(0,0,0)
(0,0,0)
(0,0,0)
(0,0,0)
(8.12295464920648e-13,-2.60355087038324e-11,2.82277317436076e-11)
(2.09391130981313e-12,-5.54743286773336e-11,2.68907539431482e-11)
(3.33790412596442e-12,-9.1181953082146e-11,2.39413765724502e-11)
(3.60501468552975e-12,-1.40317896483736e-10,1.97075249391112e-11)
(3.19664315738956e-12,-2.13548470124948e-10,1.43365482308729e-11)
(3.15039841068974e-12,-3.25525217574836e-10,8.05115921779738e-12)
(4.21535020217464e-12,-5.03188767830281e-10,3.01224455184054e-12)
(4.22255034353007e-12,-8.04991842822604e-10,5.15684858604743e-13)
(3.07660837462031e-12,-1.38034330852303e-09,-2.98859931223062e-13)
(1.67993086053895e-12,-2.69981083692158e-09,-3.1784963374211e-13)
(0,0,0)
(0,0,0)
(0,0,0)
(0,0,0)
(0,0,0)
(0,0,0)
(1.05514552684465e-12,-2.47643685364669e-11,5.94423540655456e-11)
(2.42429152303734e-12,-5.24426614912398e-11,5.68897585710658e-11)
(3.7356300446689e-12,-8.70850683124275e-11,5.18509934772459e-11)
(4.30676909434352e-12,-1.35224363740519e-10,4.41566096011464e-11)
(4.54382376111702e-12,-2.07622657746507e-10,3.35163995487668e-11)
(5.78206645383302e-12,-3.20852303695256e-10,2.10216488692023e-11)
(7.59901915916213e-12,-5.01555624913839e-10,9.97644935151164e-12)
(8.57616312464039e-12,-8.05695736504762e-10,4.30443166670614e-12)
(7.7448698927307e-12,-1.38212559825939e-09,2.26239525438875e-12)
(5.95089787084676e-12,-2.70258525908397e-09,1.08153753622341e-12)
(0,0,0)
(0,0,0)
(0,0,0)
(0,0,0)
(0,0,0)
(0,0,0)
(7.53243943606005e-13,-2.24302007441334e-11,9.63112943220066e-11)
(1.38091692590164e-12,-4.73481020735574e-11,9.3371165802561e-11)
(2.28086288341189e-12,-7.9514715412348e-11,8.71134851403037e-11)
(2.73768411383148e-12,-1.24571025993961e-10,7.66025158911184e-11)
(2.88173567339216e-12,-1.95011939308862e-10,6.20555824800701e-11)
(4.55542876530693e-12,-3.0976571785919e-10,4.33922365429777e-11)
(7.81818463990136e-12,-4.97101234324609e-10,2.48208370834768e-11)
(1.23424679267603e-11,-8.06863801926143e-10,1.50065789866817e-11)
(1.38717329392027e-11,-1.38469456245965e-09,9.96173003251874e-12)
(1.32140958434763e-11,-2.70584866505613e-09,5.47346283413204e-12)
(0,0,0)
(0,0,0)
(0,0,0)
(0,0,0)
(0,0,0)
(0,0,0)
(3.60011036661452e-13,-1.92219323455607e-11,1.45726677845169e-10)
(-3.14869179451027e-14,-4.04627392739035e-11,1.42922669137744e-10)
(1.1044226157579e-13,-6.85995082970848e-11,1.3666994763602e-10)
(-3.18877030443591e-13,-1.09118185969053e-10,1.2546655429633e-10)
(-1.26469104609184e-12,-1.75043894282121e-10,1.09065308509421e-10)
(7.44782810619368e-13,-2.89207260200004e-10,8.67400765720764e-11)
(7.18870048200058e-12,-4.85930830121218e-10,6.17448261664822e-11)
(1.59211247316872e-11,-8.0616772727179e-10,4.55680881792636e-11)
(2.04258898989528e-11,-1.38573620837277e-09,3.209685181245e-11)
(2.15804963056608e-11,-2.70599201105921e-09,1.70652874507991e-11)
(0,0,0)
(0,0,0)
(0,0,0)
(0,0,0)
(0,0,0)
(0,0,0)
(-3.38255015506696e-13,-1.54011957413291e-11,2.16844872327973e-10)
(-1.14392532765425e-12,-3.27721483768388e-11,2.14920435911868e-10)
(-1.78024671109758e-12,-5.59760226716992e-11,2.09652752824263e-10)
(-3.2584678022404e-12,-9.01246358782699e-11,1.99827549500516e-10)
(-4.65070139958544e-12,-1.48237966646704e-10,1.8488447263257e-10)
(-1.57515639439448e-12,-2.56515187978387e-10,1.66137665988249e-10)
(1.1814256597298e-11,-4.60023565057003e-10,1.48442142878811e-10)
(1.9270467696554e-11,-7.97385893239597e-10,1.15107952716255e-10)
(2.33464008327239e-11,-1.37705955797191e-09,8.04211428070845e-11)
(2.50659562305373e-11,-2.69427711516756e-09,4.20516206480023e-11)
(0,0,0)
(0,0,0)
(0,0,0)
(0,0,0)
(0,0,0)
(0,0,0)
(-8.79971036559804e-14,-1.2069410769302e-11,3.25551124325433e-10)
(-1.63916315988237e-12,-2.54539251199244e-11,3.23905309765937e-10)
(-2.81473423509692e-12,-4.34772824388526e-11,3.19693853005025e-10)
(-4.1033868292351e-12,-7.05844652774192e-11,3.12152225826954e-10)
(-5.11412607507385e-12,-1.20534319937637e-10,3.00285789565335e-10)
(-1.2990775450299e-12,-2.24051943616602e-10,2.83247795586397e-10)
(1.00182942150299e-11,-4.37888317849429e-10,2.60253980741041e-10)
(1.7003883125072e-11,-7.72969636841141e-10,2.15987235068488e-10)
(2.15245332960248e-11,-1.34563543596802e-09,1.54643009274516e-10)
(2.25679411608769e-11,-2.65701807883681e-09,8.11627171748449e-11)
(0,0,0)
(0,0,0)
(0,0,0)
(0,0,0)
(0,0,0)
(0,0,0)
(-2.9026702605559e-13,-8.59781196551914e-12,4.96573168256996e-10)
(-1.78012942923464e-12,-1.85802650611804e-11,4.95790887810529e-10)
(-3.38350397453578e-12,-3.22877633001325e-11,4.93500795996959e-10)
(-4.16260190107891e-12,-5.32172540520555e-11,4.88477173657717e-10)
(-3.1588022931726e-12,-9.40796037995651e-11,4.80464386258581e-10)
(2.66482360760059e-12,-1.86615304976567e-10,4.65793262588507e-10)
(5.03042078991145e-12,-3.98303159407305e-10,4.26457410173276e-10)
(1.03228927955386e-11,-7.19440983527377e-10,3.72830046058651e-10)
(1.51470631402257e-11,-1.27742163396577e-09,2.74362077118596e-10)
(1.69746664972336e-11,-2.57910879198617e-09,1.47266744468843e-10)
(0,0,0)
(0,0,0)
(0,0,0)
(0,0,0)
(0,0,0)
(0,0,0)
(-1.4396138348111e-12,-5.69317089561073e-12,7.91771079519584e-10)
(-3.02588447890176e-12,-1.31159078890781e-11,7.91244232392258e-10)
(-4.69925208070664e-12,-2.32651676114473e-11,7.89679565893759e-10)
(-6.32359338512457e-12,-4.09252606095111e-11,7.85638501957484e-10)
(-6.2789574694005e-12,-7.87427066272601e-11,7.77722504405133e-10)
(-3.52185594250051e-12,-1.64923533077962e-10,7.61010097065285e-10)
(-1.28560033110065e-12,-3.44369528335289e-10,7.19465038796308e-10)
(3.30418921749147e-12,-6.23280216425751e-10,6.31004953672524e-10)
(7.61811319656107e-12,-1.15234672632767e-09,4.85068335226794e-10)
(9.0974619679709e-12,-2.43255546539079e-09,2.75615585348965e-10)
(0,0,0)
(0,0,0)
(0,0,0)
(0,0,0)
(0,0,0)
(0,0,0)
(-2.90886464909792e-12,-3.45523257013311e-12,1.36439305845654e-09)
(-5.12994272690885e-12,-8.64533237027095e-12,1.3637216162773e-09)
(-6.43153109147129e-12,-1.57810253146705e-11,1.36162159314211e-09)
(-7.67186681727502e-12,-2.94729530448151e-11,1.35646183995904e-09)
(-8.28546049517831e-12,-5.98766768050054e-11,1.34513103027492e-09)
(-7.6291822451566e-12,-1.26364388434959e-10,1.3199051030657e-09)
(-6.33585660404301e-12,-2.555596750752e-10,1.26353266062624e-09)
(-2.12212978035531e-12,-4.77447396257582e-10,1.1475983720495e-09)
(1.37791826941557e-12,-9.42586858068379e-10,9.42217547559399e-10)
(1.7848267374427e-12,-2.15648070225539e-09,5.88833835345252e-10)
(0,0,0)
(0,0,0)
(0,0,0)
(0,0,0)
(0,0,0)
(0,0,0)
(-3.9439124187399e-12,-1.79465246995807e-12,2.68521990380365e-09)
(-7.33220906720226e-12,-4.6433127197345e-12,2.68453365307234e-09)
(-8.07457100209296e-12,-8.51323659247442e-12,2.68164487999758e-09)
(-8.86782317472286e-12,-1.58144371809048e-11,2.67468240332811e-09)
(-9.99326620956417e-12,-3.2541670977174e-11,2.66003937212183e-09)
(-9.3724202325642e-12,-6.89778952799125e-11,2.6282437428012e-09)
(-8.79297887190022e-12,-1.38733386485301e-10,2.56017565194923e-09)
(-4.24410353841535e-12,-2.71141686643972e-10,2.42195822159334e-09)
(-1.17782528610772e-12,-5.87836198859421e-10,2.15186891405012e-09)
(-9.98568437928503e-13,-1.56670170150766e-09,1.56556628395657e-09)
(0,0,0)
(0,0,0)
(0,0,0)
(0,0,0)
(0,0,0)
(0,0,0)
(0,0,0)
(0,0,0)
(0,0,0)
(0,0,0)
(0,0,0)
(0,0,0)
(0,0,0)
(0,0,0)
(0,0,0)
(0,0,0)
(0,0,0)
(0,0,0)
(0,0,0)
(0,0,0)
(0,0,0)
(0,0,0)
(0,0,0)
(0,0,0)
(0,0,0)
(0,0,0)
(0,0,0)
(0,0,0)
(0,0,0)
(0,0,0)
(0,0,0)
(0,0,0)
(0,0,0)
(0,0,0)
(0,0,0)
(0,0,0)
(0,0,0)
(0,0,0)
(0,0,0)
(0,0,0)
(0,0,0)
(0,0,0)
(0,0,0)
(0,0,0)
(0,0,0)
(0,0,0)
(0,0,0)
(0,0,0)
(0,0,0)
(0,0,0)
(0,0,0)
(0,0,0)
(0,0,0)
(0,0,0)
(0,0,0)
(0,0,0)
(0,0,0)
(0,0,0)
(0,0,0)
(0,0,0)
(0,0,0)
(0,0,0)
(0,0,0)
(0,0,0)
(0,0,0)
(0,0,0)
(0,0,0)
(0,0,0)
(0,0,0)
(0,0,0)
(0,0,0)
(0,0,0)
(0,0,0)
(0,0,0)
(0,0,0)
(0,0,0)
(0,0,0)
(0,0,0)
(0,0,0)
(0,0,0)
(0,0,0)
(0,0,0)
(0,0,0)
(0,0,0)
(0,0,0)
(0,0,0)
(0,0,0)
(0,0,0)
(0,0,0)
(0,0,0)
(0,0,0)
(0,0,0)
(0,0,0)
(0,0,0)
(0,0,0)
(0,0,0)
(0,0,0)
(0,0,0)
(0,0,0)
(0,0,0)
(0,0,0)
(0,0,0)
(8.78133097458717e-13,-3.57776651592091e-11,3.86766811218621e-11)
(2.01162149465834e-12,-7.41766713729396e-11,3.67553404362582e-11)
(3.47487099041265e-12,-1.20732514617128e-10,3.25536624232736e-11)
(3.88245865082337e-12,-1.84523655696634e-10,2.64938677618191e-11)
(3.55621979129677e-12,-2.75024264245493e-10,1.75517395545713e-11)
(3.51639919765571e-12,-4.0623292559366e-10,7.03949947343258e-12)
(5.07876697812031e-12,-5.97512985191679e-10,-1.67146725536573e-12)
(5.74098881530086e-12,-8.74554422587344e-10,-4.57913403318223e-12)
(4.87788781419216e-12,-1.26728600177126e-09,-3.95907447117649e-12)
(4.1365033880871e-12,-1.74657098909551e-09,-1.98543841061117e-12)
(0,0,0)
(0,0,0)
(0,0,0)
(0,0,0)
(0,0,0)
(0,0,0)
(1.27357322897274e-12,-3.36057574678976e-11,8.13388830172895e-11)
(2.36849719818797e-12,-6.97825590960573e-11,7.77998101204366e-11)
(3.85966102017965e-12,-1.14532145832297e-10,7.0134076084563e-11)
(4.29364140032874e-12,-1.75806141651609e-10,5.81196231329443e-11)
(4.42785600343194e-12,-2.6514489406697e-10,4.02023401307266e-11)
(5.74068013498633e-12,-3.98778814203391e-10,1.77941702459882e-11)
(8.81664625395707e-12,-5.96522508520825e-10,-3.2133216618028e-12)
(1.1786264959112e-11,-8.78092348286818e-10,-8.85503133435778e-12)
(1.1494691811578e-11,-1.27246963412428e-09,-6.31947410230654e-12)
(1.02958413799818e-11,-1.75167740039994e-09,-2.86000792369051e-12)
(0,0,0)
(0,0,0)
(0,0,0)
(0,0,0)
(0,0,0)
(0,0,0)
(4.85104062103862e-13,-2.9646157998876e-11,1.30409127139329e-10)
(7.5323478973096e-13,-6.19290207597502e-11,1.26013598813967e-10)
(1.87662501750707e-12,-1.02633206270317e-10,1.16105193209186e-10)
(1.83177750003158e-12,-1.58435681249744e-10,9.95443783189772e-11)
(1.57703658342557e-12,-2.4373196691235e-10,7.42690755868641e-11)
(2.56837056533945e-12,-3.79760929715877e-10,3.83187540683717e-11)
(6.4620385335213e-12,-5.9412607809684e-10,-1.99402562946041e-12)
(1.66912422267724e-11,-8.86911270094479e-10,-8.30658614863702e-12)
(1.94016460511747e-11,-1.28209495170827e-09,-3.00344344911751e-12)
(1.8830904680652e-11,-1.75997697453985e-09,2.02507078273853e-13)
(0,0,0)
(0,0,0)
(0,0,0)
(0,0,0)
(0,0,0)
(0,0,0)
(-6.56716861303031e-13,-2.51882836717858e-11,1.94890808429113e-10)
(-1.46935631212357e-12,-5.25896657437179e-11,1.90284742405042e-10)
(-1.30965002438105e-12,-8.66545804780081e-11,1.79848214254758e-10)
(-2.91118133572605e-12,-1.33577153170985e-10,1.6166380961782e-10)
(-5.7453867450255e-12,-2.08166251172254e-10,1.32383627672489e-10)
(-6.95203900360688e-12,-3.39811621670605e-10,8.65152898242145e-11)
(-2.54182659483523e-12,-5.84731452268567e-10,2.40236325287404e-11)
(2.0610527066072e-11,-9.02652613467833e-10,2.02744950689413e-11)
(2.67808038606363e-11,-1.29515697901e-09,2.19900211511167e-11)
(2.6930887863132e-11,-1.76764335387659e-09,1.42992175825841e-11)
(0,0,0)
(0,0,0)
(0,0,0)
(0,0,0)
(0,0,0)
(0,0,0)
(-1.74560357098073e-12,-2.00716540974288e-11,2.81888703626033e-10)
(-3.19446549645825e-12,-4.17220128826839e-11,2.78215496764169e-10)
(-4.45378362193875e-12,-6.75614834039483e-11,2.69168082248445e-10)
(-7.85556153502572e-12,-1.02422367063573e-10,2.53426190120277e-10)
(-1.36075414625197e-11,-1.57891383456437e-10,2.28841151940601e-10)
(-1.63428776475685e-11,-2.63706344585352e-10,1.98652531624368e-10)
(2.30131995509478e-11,-5.16506247855331e-10,2.06912160282954e-10)
(2.95410212066919e-11,-9.18901041024332e-10,1.34945831050471e-10)
(3.02918009897915e-11,-1.30040694481318e-09,9.15228490184197e-11)
(2.98585405472627e-11,-1.76186704477442e-09,4.80224717141672e-11)
(0,0,0)
(0,0,0)
(0,0,0)
(0,0,0)
(0,0,0)
(0,0,0)
(-1.91378134810863e-12,-1.51580067722212e-11,4.07112572198263e-10)
(-4.30136645785867e-12,-3.05294166434665e-11,4.03874273062271e-10)
(-6.46262619594846e-12,-4.80239578917803e-11,3.97175734791847e-10)
(-9.60416179237114e-12,-7.05035657969019e-11,3.86658986968231e-10)
(-1.45308482343466e-11,-1.0896724987853e-10,3.71076714537693e-10)
(-1.57419013400082e-11,-2.04597804044736e-10,3.50070182632769e-10)
(1.46998814465043e-11,-5.20104474633081e-10,3.47424898211731e-10)
(2.48194556034915e-11,-9.05528030624789e-10,2.76846391405461e-10)
(2.67910233953306e-11,-1.27061889908845e-09,1.9176642620901e-10)
(2.58213714845661e-11,-1.72120384522169e-09,9.86125756554168e-11)
(0,0,0)
(0,0,0)
(0,0,0)
(0,0,0)
(0,0,0)
(0,0,0)
(-2.41262764782549e-12,-1.0158844985948e-11,5.87681189102476e-10)
(-4.95439479018219e-12,-2.04410053911679e-11,5.86292990737569e-10)
(-7.38247732345222e-12,-3.15900442824116e-11,5.83637208882845e-10)
(-8.44180794496039e-12,-4.39086780729142e-11,5.80127539618915e-10)
(-3.82457579469746e-12,-6.26879055709792e-11,5.79823492155849e-10)
(2.03089041241966e-11,-1.20013149236164e-10,5.85232412473829e-10)
(4.72415383225631e-12,-4.74328296906583e-10,5.04648608510769e-10)
(1.26300946334027e-11,-8.44222071661478e-10,4.88299749719528e-10)
(1.71674881525962e-11,-1.18805020040973e-09,3.38250556448816e-10)
(1.76880843702115e-11,-1.62793346174236e-09,1.73496376652226e-10)
(0,0,0)
(0,0,0)
(0,0,0)
(0,0,0)
(0,0,0)
(0,0,0)
(-3.15070503165012e-12,-6.5575667529929e-12,8.54056238529092e-10)
(-5.93179349945669e-12,-1.36441415614743e-11,8.53449200728216e-10)
(-8.14233044115145e-12,-2.17917552456474e-11,8.5246405540222e-10)
(-9.85990339743484e-12,-3.4191134579164e-11,8.51311780957795e-10)
(-8.4325799515766e-12,-6.36160398737203e-11,8.52288284379386e-10)
(-5.3594231650506e-13,-1.55042874020694e-10,8.56199154639538e-10)
(-1.63536846770394e-12,-4.31051906304593e-10,8.34182833943262e-10)
(3.40798749401948e-12,-6.97090396696114e-10,7.10482911297666e-10)
(7.31099481497896e-12,-1.02631445077546e-09,5.17316685793108e-10)
(8.63828418249195e-12,-1.45585928974812e-09,2.78728002164458e-10)
(0,0,0)
(0,0,0)
(0,0,0)
(0,0,0)
(0,0,0)
(0,0,0)
(-3.89800257055263e-12,-3.93729597795598e-12,1.24282717179668e-09)
(-7.03193924297646e-12,-8.88626218888086e-12,1.24191426247213e-09)
(-8.53956662964286e-12,-1.54191499719239e-11,1.23995659404827e-09)
(-9.99957299704612e-12,-2.77721755168937e-11,1.23679277852157e-09)
(-1.039453911334e-11,-5.83108130142735e-11,1.23035152907006e-09)
(-8.64323296064888e-12,-1.35717721389407e-10,1.21344389883901e-09)
(-7.22785661700607e-12,-3.02003733712072e-10,1.16014533037533e-09)
(-3.04701490584606e-12,-5.03108739453078e-10,1.01872735128536e-09)
(1.09712761483668e-14,-7.87445039670452e-10,7.88062572510925e-10)
(8.39661334662941e-13,-1.17641193270851e-09,4.52237847915998e-10)
(0,0,0)
(0,0,0)
(0,0,0)
(0,0,0)
(0,0,0)
(0,0,0)
(-5.05231415841846e-12,-1.68893298561847e-12,1.7211681279855e-09)
(-9.08674871235395e-12,-4.35919854159078e-12,1.72044132700028e-09)
(-9.62533092505726e-12,-8.44789630224402e-12,1.71746831400554e-09)
(-1.00392291498484e-11,-1.62351027728575e-11,1.71142165663477e-09)
(-1.07393078650884e-11,-3.47485528826877e-11,1.69870064766751e-09)
(-1.02822246615921e-11,-7.69989054164384e-11,1.66800740208608e-09)