/*--------------------------------*- C++ -*----------------------------------*\
| =========                 |                                                 |
| \\      /  F ield         | foam-extend: Open Source CFD                    |
|  \\    /   O peration     | Version:     4.0                                |
|   \\  /    A nd           | Web:         http://www.foam-extend.org         |
|    \\/     M anipulation  |                                                 |
\*---------------------------------------------------------------------------*/
FoamFile
{
    version 2.0;
    format ascii;
    class volVectorField;
    location "1814";
    object      H;
}
// * * * * * * * * * * * * * * * * * * * * * * * * * * * * * * * * * * * * * //

dimensions      [0 1 -1 0 0 0 0];

internalField   nonuniform List<vector>
4096
(
(0,0,0)
(0,0,0)
(0,0,0)
(0,0,0)
(0,0,0)
(0,0,0)
(0,0,0)
(0,0,0)
(0,0,0)
(0,0,0)
(0,0,0)
(0,0,0)
(0,0,0)
(0,0,0)
(0,0,0)
(0,0,0)
(0,0,0)
(0,0,0)
(0,0,0)
(0,0,0)
(0,0,0)
(0,0,0)
(0,0,0)
(0,0,0)
(0,0,0)
(0,0,0)
(0,0,0)
(0,0,0)
(0,0,0)
(0,0,0)
(0,0,0)
(0,0,0)
(0,0,0)
(0,0,0)
(0,0,0)
(0,0,0)
(0,0,0)
(0,0,0)
(0,0,0)
(0,0,0)
(0,0,0)
(0,0,0)
(0,0,0)
(0,0,0)
(0,0,0)
(0,0,0)
(0,0,0)
(0,0,0)
(0,0,0)
(0,0,0)
(0,0,0)
(0,0,0)
(0,0,0)
(0,0,0)
(0,0,0)
(0,0,0)
(0,0,0)
(0,0,0)
(0,0,0)
(0,0,0)
(0,0,0)
(0,0,0)
(0,0,0)
(0,0,0)
(0,0,0)
(0,0,0)
(0,0,0)
(0,0,0)
(0,0,0)
(0,0,0)
(0,0,0)
(0,0,0)
(0,0,0)
(0,0,0)
(0,0,0)
(0,0,0)
(0,0,0)
(0,0,0)
(0,0,0)
(0,0,0)
(0,0,0)
(0,0,0)
(0,0,0)
(0,0,0)
(0,0,0)
(0,0,0)
(0,0,0)
(0,0,0)
(0,0,0)
(0,0,0)
(0,0,0)
(0,0,0)
(0,0,0)
(0,0,0)
(0,0,0)
(0,0,0)
(0,0,0)
(0,0,0)
(0,0,0)
(0,0,0)
(0,0,0)
(0,0,0)
(0,0,0)
(0,0,0)
(0,0,0)
(0,0,0)
(0,0,0)
(0,0,0)
(0,0,0)
(0,0,0)
(0,0,0)
(0,0,0)
(0,0,0)
(0,0,0)
(0,0,0)
(0,0,0)
(0,0,0)
(0,0,0)
(0,0,0)
(0,0,0)
(0,0,0)
(0,0,0)
(0,0,0)
(0,0,0)
(0,0,0)
(0,0,0)
(0,0,0)
(0,0,0)
(0,0,0)
(0,0,0)
(0,0,0)
(0,0,0)
(0,0,0)
(0,0,0)
(0,0,0)
(0,0,0)
(0,0,0)
(0,0,0)
(0,0,0)
(0,0,0)
(0,0,0)
(0,0,0)
(0,0,0)
(0,0,0)
(0,0,0)
(0,0,0)
(0,0,0)
(0,0,0)
(0,0,0)
(0,0,0)
(0,0,0)
(0,0,0)
(0,0,0)
(0,0,0)
(0,0,0)
(0,0,0)
(0,0,0)
(0,0,0)
(0,0,0)
(0,0,0)
(0,0,0)
(0,0,0)
(0,0,0)
(0,0,0)
(0,0,0)
(0,0,0)
(0,0,0)
(0,0,0)
(0,0,0)
(0,0,0)
(0,0,0)
(0,0,0)
(0,0,0)
(0,0,0)
(0,0,0)
(0,0,0)
(0,0,0)
(0,0,0)
(0,0,0)
(0,0,0)
(0,0,0)
(0,0,0)
(0,0,0)
(0,0,0)
(0,0,0)
(0,0,0)
(0,0,0)
(0,0,0)
(0,0,0)
(0,0,0)
(0,0,0)
(0,0,0)
(0,0,0)
(0,0,0)
(0,0,0)
(0,0,0)
(0,0,0)
(0,0,0)
(0,0,0)
(0,0,0)
(0,0,0)
(0,0,0)
(0,0,0)
(0,0,0)
(0,0,0)
(0,0,0)
(0,0,0)
(0,0,0)
(0,0,0)
(0,0,0)
(0,0,0)
(0,0,0)
(0,0,0)
(0,0,0)
(0,0,0)
(0,0,0)
(0,0,0)
(0,0,0)
(0,0,0)
(0,0,0)
(0,0,0)
(0,0,0)
(0,0,0)
(0,0,0)
(0,0,0)
(0,0,0)
(0,0,0)
(0,0,0)
(0,0,0)
(0,0,0)
(0,0,0)
(0,0,0)
(0,0,0)
(0,0,0)
(0,0,0)
(0,0,0)
(0,0,0)
(0,0,0)
(0,0,0)
(0,0,0)
(0,0,0)
(0,0,0)
(0,0,0)
(0,0,0)
(0,0,0)
(0,0,0)
(0,0,0)
(0,0,0)
(0,0,0)
(0,0,0)
(0,0,0)
(0,0,0)
(0,0,0)
(0,0,0)
(0,0,0)
(0,0,0)
(0,0,0)
(0,0,0)
(0,0,0)
(0,0,0)
(0,0,0)
(0,0,0)
(0,0,0)
(0,0,0)
(0,0,0)
(0,0,0)
(0,0,0)
(0,0,0)
(0,0,0)
(0,0,0)
(0,0,0)
(0,0,0)
(0,0,0)
(0,0,0)
(0,0,0)
(0,0,0)
(0,0,0)
(0,0,0)
(0,0,0)
(0,0,0)
(0,0,0)
(0,0,0)
(0,0,0)
(0,0,0)
(0,0,0)
(0,0,0)
(0,0,0)
(0,0,0)
(0,0,0)
(0,0,0)
(0,0,0)
(0,0,0)
(0,0,0)
(0,0,0)
(0,0,0)
(0,0,0)
(0,0,0)
(0,0,0)
(0,0,0)
(0,0,0)
(0,0,0)
(0,0,0)
(0,0,0)
(0,0,0)
(0,0,0)
(0,0,0)
(0,0,0)
(0,0,0)
(0,0,0)
(0,0,0)
(0,0,0)
(0,0,0)
(0,0,0)
(0,0,0)
(0,0,0)
(0,0,0)
(0,0,0)
(0,0,0)
(0,0,0)
(0,0,0)
(0,0,0)
(0,0,0)
(0,0,0)
(0,0,0)
(0,0,0)
(0,0,0)
(0,0,0)
(0,0,0)
(0,0,0)
(0,0,0)
(0,0,0)
(0,0,0)
(0,0,0)
(0,0,0)
(0,0,0)
(0,0,0)
(0,0,0)
(0,0,0)
(0,0,0)
(0,0,0)
(0,0,0)
(0,0,0)
(0,0,0)
(0,0,0)
(0,0,0)
(0,0,0)
(0,0,0)
(0,0,0)
(0,0,0)
(0,0,0)
(0,0,0)
(0,0,0)
(0,0,0)
(0,0,0)
(0,0,0)
(0,0,0)
(0,0,0)
(0,0,0)
(0,0,0)
(0,0,0)
(0,0,0)
(0,0,0)
(0,0,0)
(0,0,0)
(0,0,0)
(0,0,0)
(0,0,0)
(0,0,0)
(0,0,0)
(0,0,0)
(0,0,0)
(0,0,0)
(0,0,0)
(0,0,0)
(0,0,0)
(0,0,0)
(0,0,0)
(0,0,0)
(0,0,0)
(0,0,0)
(0,0,0)
(0,0,0)
(0,0,0)
(0,0,0)
(0,0,0)
(0,0,0)
(0,0,0)
(0,0,0)
(0,0,0)
(0,0,0)
(0,0,0)
(0,0,0)
(0,0,0)
(0,0,0)
(0,0,0)
(0,0,0)
(0,0,0)
(0,0,0)
(0,0,0)
(0,0,0)
(0,0,0)
(0,0,0)
(0,0,0)
(0,0,0)
(0,0,0)
(0,0,0)
(0,0,0)
(0,0,0)
(0,0,0)
(0,0,0)
(0,0,0)
(0,0,0)
(0,0,0)
(0,0,0)
(0,0,0)
(0,0,0)
(0,0,0)
(0,0,0)
(0,0,0)
(0,0,0)
(0,0,0)
(0,0,0)
(0,0,0)
(0,0,0)
(0,0,0)
(0,0,0)
(0,0,0)
(0,0,0)
(0,0,0)
(0,0,0)
(0,0,0)
(0,0,0)
(0,0,0)
(0,0,0)
(0,0,0)
(0,0,0)
(0,0,0)
(0,0,0)
(0,0,0)
(0,0,0)
(0,0,0)
(0,0,0)
(0,0,0)
(0,0,0)
(0,0,0)
(0,0,0)
(0,0,0)
(0,0,0)
(0,0,0)
(0,0,0)
(0,0,0)
(0,0,0)
(0,0,0)
(0,0,0)
(0,0,0)
(0,0,0)
(0,0,0)
(0,0,0)
(0,0,0)
(0,0,0)
(0,0,0)
(0,0,0)
(0,0,0)
(0,0,0)
(0,0,0)
(0,0,0)
(0,0,0)
(0,0,0)
(0,0,0)
(0,0,0)
(0,0,0)
(0,0,0)
(0,0,0)
(0,0,0)
(0,0,0)
(0,0,0)
(0,0,0)
(0,0,0)
(0,0,0)
(0,0,0)
(0,0,0)
(0,0,0)
(0,0,0)
(0,0,0)
(0,0,0)
(0,0,0)
(0,0,0)
(0,0,0)
(0,0,0)
(0,0,0)
(0,0,0)
(0,0,0)
(0,0,0)
(0,0,0)
(0,0,0)
(0,0,0)
(0,0,0)
(0,0,0)
(0,0,0)
(0,0,0)
(0,0,0)
(0,0,0)
(0,0,0)
(0,0,0)
(0,0,0)
(0,0,0)
(0,0,0)
(0,0,0)
(0,0,0)
(0,0,0)
(0,0,0)
(0,0,0)
(0,0,0)
(0,0,0)
(0,0,0)
(0,0,0)
(0,0,0)
(0,0,0)
(0,0,0)
(0,0,0)
(0,0,0)
(0,0,0)
(0,0,0)
(0,0,0)
(0,0,0)
(0,0,0)
(0,0,0)
(0,0,0)
(0,0,0)
(0,0,0)
(0,0,0)
(0,0,0)
(0,0,0)
(0,0,0)
(0,0,0)
(0,0,0)
(0,0,0)
(0,0,0)
(0,0,0)
(0,0,0)
(0,0,0)
(0,0,0)
(0,0,0)
(0,0,0)
(0,0,0)
(0,0,0)
(0,0,0)
(0,0,0)
(0,0,0)
(0,0,0)
(0,0,0)
(0,0,0)
(0,0,0)
(0,0,0)
(0,0,0)
(0,0,0)
(0,0,0)
(0,0,0)
(0,0,0)
(0,0,0)
(0,0,0)
(0,0,0)
(0,0,0)
(0,0,0)
(0,0,0)
(0,0,0)
(0,0,0)
(0,0,0)
(0,0,0)
(0,0,0)
(0,0,0)
(0,0,0)
(0,0,0)
(0,0,0)
(0,0,0)
(0,0,0)
(0,0,0)
(0,0,0)
(0,0,0)
(0,0,0)
(0,0,0)
(0,0,0)
(0,0,0)
(0,0,0)
(0,0,0)
(0,0,0)
(0,0,0)
(0,0,0)
(0,0,0)
(0,0,0)
(0,0,0)
(0,0,0)
(0,0,0)
(0,0,0)
(0,0,0)
(0,0,0)
(0,0,0)
(0,0,0)
(0,0,0)
(0,0,0)
(0,0,0)
(0,0,0)
(0,0,0)
(0,0,0)
(0,0,0)
(0,0,0)
(0,0,0)
(0,0,0)
(0,0,0)
(0,0,0)
(0,0,0)
(0,0,0)
(0,0,0)
(0,0,0)
(0,0,0)
(0,0,0)
(0,0,0)
(0,0,0)
(0,0,0)
(0,0,0)
(0,0,0)
(0,0,0)
(0,0,0)
(0,0,0)
(0,0,0)
(0,0,0)
(0,0,0)
(0,0,0)
(0,0,0)
(0,0,0)
(0,0,0)
(0,0,0)
(0,0,0)
(0,0,0)
(0,0,0)
(0,0,0)
(0,0,0)
(0,0,0)
(0,0,0)
(0,0,0)
(0,0,0)
(0,0,0)
(0,0,0)
(0,0,0)
(0,0,0)
(0,0,0)
(0,0,0)
(0,0,0)
(0,0,0)
(0,0,0)
(0,0,0)
(0,0,0)
(0,0,0)
(0,0,0)
(0,0,0)
(0,0,0)
(0,0,0)
(0,0,0)
(0,0,0)
(0,0,0)
(0,0,0)
(0,0,0)
(0,0,0)
(0,0,0)
(0,0,0)
(0,0,0)
(0,0,0)
(0,0,0)
(0,0,0)
(0,0,0)
(0,0,0)
(0,0,0)
(0,0,0)
(0,0,0)
(0,0,0)
(0,0,0)
(0,0,0)
(0,0,0)
(0,0,0)
(0,0,0)
(0,0,0)
(0,0,0)
(0,0,0)
(0,0,0)
(0,0,0)
(0,0,0)
(0,0,0)
(0,0,0)
(0,0,0)
(0,0,0)
(0,0,0)
(0,0,0)
(0,0,0)
(0,0,0)
(0,0,0)
(0,0,0)
(0,0,0)
(0,0,0)
(0,0,0)
(0,0,0)
(0,0,0)
(0,0,0)
(0,0,0)
(0,0,0)
(0,0,0)
(0,0,0)
(0,0,0)
(0,0,0)
(0,0,0)
(0,0,0)
(0,0,0)
(0,0,0)
(0,0,0)
(0,0,0)
(0,0,0)
(0,0,0)
(0,0,0)
(0,0,0)
(0,0,0)
(0,0,0)
(0,0,0)
(0,0,0)
(0,0,0)
(0,0,0)
(0,0,0)
(0,0,0)
(0,0,0)
(0,0,0)
(0,0,0)
(0,0,0)
(0,0,0)
(0,0,0)
(0,0,0)
(0,0,0)
(0,0,0)
(0,0,0)
(0,0,0)
(0,0,0)
(0,0,0)
(0,0,0)
(0,0,0)
(0,0,0)
(0,0,0)
(0,0,0)
(0,0,0)
(0,0,0)
(0,0,0)
(0,0,0)
(0,0,0)
(0,0,0)
(0,0,0)
(0,0,0)
(0,0,0)
(0,0,0)
(0,0,0)
(0,0,0)
(0,0,0)
(0,0,0)
(0,0,0)
(0,0,0)
(0,0,0)
(0,0,0)
(0,0,0)
(0,0,0)
(0,0,0)
(0,0,0)
(0,0,0)
(0,0,0)
(0,0,0)
(0,0,0)
(0,0,0)
(0,0,0)
(0,0,0)
(0,0,0)
(0,0,0)
(0,0,0)
(0,0,0)
(0,0,0)
(0,0,0)
(0,0,0)
(0,0,0)
(0,0,0)
(0,0,0)
(0,0,0)
(0,0,0)
(0,0,0)
(0,0,0)
(0,0,0)
(0,0,0)
(0,0,0)
(0,0,0)
(0,0,0)
(0,0,0)
(0,0,0)
(0,0,0)
(0,0,0)
(0,0,0)
(0,0,0)
(0,0,0)
(0,0,0)
(0,0,0)
(0,0,0)
(0,0,0)
(0,0,0)
(0,0,0)
(0,0,0)
(0,0,0)
(0,0,0)
(0,0,0)
(0,0,0)
(0,0,0)
(0,0,0)
(0,0,0)
(0,0,0)
(0,0,0)
(0,0,0)
(0,0,0)
(0,0,0)
(0,0,0)
(7.1241240192993e-13,-1.17221608127936e-11,1.44334796388111e-11)
(1.51236576945954e-12,-2.55551451438021e-11,1.40750423934733e-11)
(2.56891411482224e-12,-4.58625123317949e-11,1.31122527160178e-11)
(2.66283611878012e-12,-7.53418615711225e-11,1.1243171783421e-11)
(2.79462762111978e-12,-1.18103248476428e-10,8.49365596005302e-12)
(1.99275499406433e-12,-1.85114455832655e-10,5.57631625023803e-12)
(2.35864568581699e-12,-2.94934038760298e-10,3.22266217541235e-12)
(2.41008114962528e-12,-4.80322731318139e-10,1.98862271530105e-12)
(2.90536376012618e-12,-7.88132672377937e-10,1.59669209626003e-12)
(2.91770825930489e-12,-1.2166371362861e-09,1.18576015082097e-12)
(0,0,0)
(0,0,0)
(0,0,0)
(0,0,0)
(0,0,0)
(0,0,0)
(6.60662160353351e-13,-1.16354574277296e-11,3.02491240235911e-11)
(1.34049109007049e-12,-2.48449939828568e-11,2.9370639814104e-11)
(3.06782174331591e-12,-4.38811834369488e-11,2.73733711444659e-11)
(3.95934524464161e-12,-7.23629054493244e-11,2.40381237629585e-11)
(4.69076264235874e-12,-1.14998623525189e-10,1.87362104359894e-11)
(4.50184485379687e-12,-1.82927440194654e-10,1.30396674152971e-11)
(5.65795052516785e-12,-2.93790684155135e-10,8.15450399936703e-12)
(6.80830774674298e-12,-4.79878887834131e-10,5.20958980538201e-12)
(7.17352142597872e-12,-7.87787478307659e-10,3.55820193926998e-12)
(7.0196534888069e-12,-1.21623324210284e-09,1.8066221486172e-12)
(0,0,0)
(0,0,0)
(0,0,0)
(0,0,0)
(0,0,0)
(0,0,0)
(1.49712672584581e-13,-1.06394569811906e-11,5.04965029353923e-11)
(-3.29738229786326e-13,-2.30337385116988e-11,4.92669556823227e-11)
(3.74078666023702e-13,-4.04028842488396e-11,4.64766693086512e-11)
(2.23046216890883e-12,-6.68081571657866e-11,4.20135390571019e-11)
(3.88750567289944e-12,-1.08680495663996e-10,3.52528599042198e-11)
(5.05897158350319e-12,-1.77582721555979e-10,2.75934750918559e-11)
(6.96942666711746e-12,-2.90689243321315e-10,2.00973156557242e-11)
(9.19870671414879e-12,-4.78480626833908e-10,1.44958324777108e-11)
(1.01221349787021e-11,-7.8701255434674e-10,9.96098106369253e-12)
(1.02539677323787e-11,-1.21623969409446e-09,5.2757028513765e-12)
(0,0,0)
(0,0,0)
(0,0,0)
(0,0,0)
(0,0,0)
(0,0,0)
(-1.44693528266208e-12,-8.9905024305748e-12,7.88330254493857e-11)
(-3.27142306043428e-12,-2.03320036378877e-11,7.76403987051715e-11)
(-3.99587125156684e-12,-3.58132909416998e-11,7.44315801821766e-11)
(-2.54534917648346e-12,-5.95623852977641e-11,6.94470939355246e-11)
(-4.48602485975528e-13,-9.96423668466368e-11,6.2011448897554e-11)
(2.80791386254757e-12,-1.68489291899756e-10,5.30511117267728e-11)
(6.83012958734027e-12,-2.84433810911348e-10,4.33659082435865e-11)
(1.09218054997932e-11,-4.75224501646139e-10,3.38634650770601e-11)
(1.2375811863716e-11,-7.84619315197984e-10,2.41855319248161e-11)
(1.21386172297049e-11,-1.21360772475102e-09,1.30260444781161e-11)
(0,0,0)
(0,0,0)
(0,0,0)
(0,0,0)
(0,0,0)
(0,0,0)
(-3.12512289676059e-12,-7.54089075289884e-12,1.22084944812492e-10)
(-5.64859206714029e-12,-1.73118894346653e-11,1.21079667784622e-10)
(-7.45138702615604e-12,-3.06244645696024e-11,1.17784012903856e-10)
(-7.21379861419907e-12,-5.12754148248822e-11,1.12765669252169e-10)
(-4.52030817645909e-12,-8.85385064751848e-11,1.05809942320262e-10)
(4.33983811327836e-13,-1.55974176496812e-10,9.71125373533117e-11)
(7.91550454853679e-12,-2.73960014274748e-10,8.65950655470256e-11)
(1.35328525336608e-11,-4.68166649693122e-10,7.00004908466985e-11)
(1.50530331170259e-11,-7.76881972560382e-10,4.97317702800304e-11)
(1.51224701382426e-11,-1.20403262513635e-09,2.61636629712609e-11)
(0,0,0)
(0,0,0)
(0,0,0)
(0,0,0)
(0,0,0)
(0,0,0)
(-2.63186255145688e-12,-6.42709997288983e-12,1.88887557414184e-10)
(-5.34641032398661e-12,-1.40891738518207e-11,1.87534678884568e-10)
(-7.48880405903502e-12,-2.51291848029788e-11,1.85011138334135e-10)
(-8.43646456088141e-12,-4.31239725980141e-11,1.81252420968975e-10)
(-6.42947335261948e-12,-7.6994357888822e-11,1.75090212303035e-10)
(-1.08628661687979e-12,-1.42161329329309e-10,1.65563802176967e-10)
(7.51954349558574e-12,-2.60553469162572e-10,1.5094050688004e-10)
(1.40398981908924e-11,-4.52649087912756e-10,1.26524120421384e-10)
(1.60866462873991e-11,-7.57382607011248e-10,9.20282620833176e-11)
(1.61333564461384e-11,-1.18133744130991e-09,4.88852659563839e-11)
(0,0,0)
(0,0,0)
(0,0,0)
(0,0,0)
(0,0,0)
(0,0,0)
(-2.37818532095202e-12,-4.71539868114342e-12,2.95294257745765e-10)
(-4.9297074859419e-12,-1.06105357866595e-11,2.94133519040907e-10)
(-7.0928809327565e-12,-1.98495362396971e-11,2.92328032436815e-10)
(-8.47177063246826e-12,-3.52423992762377e-11,2.89672914869011e-10)
(-6.10605111271659e-12,-6.48844251475846e-11,2.8403495622793e-10)
(-6.54936499175465e-13,-1.25147614728782e-10,2.73535116631847e-10)
(5.96731190690274e-12,-2.38592184017281e-10,2.52781538893581e-10)
(1.21488841672395e-11,-4.21944160981284e-10,2.18549081659991e-10)
(1.47938009394994e-11,-7.17371865653888e-10,1.63587557202295e-10)
(1.51350546075266e-11,-1.13504025384979e-09,8.89618123967407e-11)
(0,0,0)
(0,0,0)
(0,0,0)
(0,0,0)
(0,0,0)
(0,0,0)
(-2.1276039435091e-12,-2.92786658853791e-12,4.76131932069724e-10)
(-4.96530968999446e-12,-7.38839709671669e-12,4.75549845984625e-10)
(-6.9695283370402e-12,-1.52738496129153e-11,4.74051312002516e-10)
(-8.89716754625876e-12,-2.80222848817899e-11,4.71339557113929e-10)
(-7.53814263528265e-12,-5.38040627444171e-11,4.64808810387554e-10)
(-3.63091199507675e-12,-1.06909053232899e-10,4.51941256225509e-10)
(2.35688774819233e-12,-2.05475613031648e-10,4.24943153771417e-10)
(7.74344430495837e-12,-3.68638239355218e-10,3.73842902193118e-10)
(1.12700505793521e-11,-6.44464089490066e-10,2.89047454607803e-10)
(1.27774581898312e-11,-1.04742112108794e-09,1.63577923693783e-10)
(0,0,0)
(0,0,0)
(0,0,0)
(0,0,0)
(0,0,0)
(0,0,0)
(-2.77840129848706e-12,-1.4966331440691e-12,7.80855895064022e-10)
(-6.28213889784106e-12,-4.5617050960952e-12,7.80559370274099e-10)
(-8.86109247241446e-12,-1.08886505587892e-11,7.78890822628479e-10)
(-1.1288675544449e-11,-2.02824169195308e-11,7.74838005118848e-10)
(-1.03491238530981e-11,-4.03457176593507e-11,7.66456367376061e-10)
(-7.72607938932295e-12,-8.06132348366971e-11,7.49320733374464e-10)
(-2.56153589027654e-12,-1.54273307782491e-10,7.13250174072239e-10)
(1.99602341988317e-12,-2.84111404543875e-10,6.44108651594298e-10)
(6.10592674845114e-12,-5.19816280360896e-10,5.2099994383276e-10)
(8.78527096831163e-12,-8.84725320738746e-10,3.13211869851996e-10)
(0,0,0)
(0,0,0)
(0,0,0)
(0,0,0)
(0,0,0)
(0,0,0)
(-3.13066436089856e-12,-6.86981762109559e-13,1.20739940632968e-09)
(-6.22040372231603e-12,-2.09923139013232e-12,1.20716126258736e-09)
(-8.88796437103059e-12,-5.6072296536699e-12,1.20592775190726e-09)
(-1.14273374298397e-11,-1.07207326547635e-11,1.20134369337681e-09)
(-1.06828860955484e-11,-2.19233329617233e-11,1.19171475592695e-09)
(-9.17363584253554e-12,-4.37773247219302e-11,1.1712615672391e-09)
(-5.56611900498869e-12,-8.42047642871861e-11,1.12858858725547e-09)
(-2.50121968821816e-12,-1.60723483143668e-10,1.0454974617971e-09)
(1.68103871059613e-12,-3.12208795394483e-10,8.84899629488567e-10)
(5.75144802361473e-12,-5.72065754318892e-10,5.72593229718528e-10)
(0,0,0)
(0,0,0)
(0,0,0)
(0,0,0)
(0,0,0)
(0,0,0)
(0,0,0)
(0,0,0)
(0,0,0)
(0,0,0)
(0,0,0)
(0,0,0)
(0,0,0)
(0,0,0)
(0,0,0)
(0,0,0)
(0,0,0)
(0,0,0)
(0,0,0)
(0,0,0)
(0,0,0)
(0,0,0)
(0,0,0)
(0,0,0)
(0,0,0)
(0,0,0)
(0,0,0)
(0,0,0)
(0,0,0)
(0,0,0)
(0,0,0)
(0,0,0)
(0,0,0)
(0,0,0)
(0,0,0)
(0,0,0)
(0,0,0)
(0,0,0)
(0,0,0)
(0,0,0)
(0,0,0)
(0,0,0)
(0,0,0)
(0,0,0)
(0,0,0)
(0,0,0)
(0,0,0)
(0,0,0)
(0,0,0)
(0,0,0)
(0,0,0)
(0,0,0)
(0,0,0)
(0,0,0)
(0,0,0)
(0,0,0)
(0,0,0)
(0,0,0)
(0,0,0)
(0,0,0)
(0,0,0)
(0,0,0)
(0,0,0)
(0,0,0)
(0,0,0)
(0,0,0)
(0,0,0)
(0,0,0)
(0,0,0)
(0,0,0)
(0,0,0)
(0,0,0)
(0,0,0)
(0,0,0)
(0,0,0)
(0,0,0)
(0,0,0)
(0,0,0)
(0,0,0)
(0,0,0)
(0,0,0)
(0,0,0)
(0,0,0)
(0,0,0)
(0,0,0)
(0,0,0)
(0,0,0)
(0,0,0)
(0,0,0)
(0,0,0)
(0,0,0)
(0,0,0)
(0,0,0)
(0,0,0)
(0,0,0)
(0,0,0)
(0,0,0)
(0,0,0)
(0,0,0)
(0,0,0)
(0,0,0)
(0,0,0)
(9.84146262200741e-13,-2.19343250126221e-11,2.49931990812563e-11)
(1.76500428596716e-12,-4.78017129716742e-11,2.43122431317544e-11)
(2.45666615254748e-12,-8.48105375220011e-11,2.24405573967898e-11)
(2.43339582035044e-12,-1.37734879932618e-10,1.90892487652957e-11)
(2.60734237965347e-12,-2.14062649364392e-10,1.42349049535289e-11)
(2.15939343091968e-12,-3.30930134542197e-10,8.68530382239893e-12)
(2.44933054084038e-12,-5.18625600282332e-10,3.84000448004503e-12)
(2.35816828446553e-12,-8.39965471910975e-10,1.49421217801261e-12)
(2.97110163498944e-12,-1.45452545784519e-09,8.0604415370101e-13)
(3.69957422643607e-12,-2.86086720838799e-09,7.61145314253343e-13)
(0,0,0)
(0,0,0)
(0,0,0)
(0,0,0)
(0,0,0)
(0,0,0)
(5.43145923302462e-13,-2.09248667864465e-11,5.40259770221296e-11)
(1.52650428855366e-12,-4.57333771118733e-11,5.2258154046763e-11)
(2.9247699367243e-12,-8.09234295601593e-11,4.86201642069441e-11)
(3.70651028806829e-12,-1.32069639194101e-10,4.22196126634374e-11)
(4.06917780185414e-12,-2.07941294613571e-10,3.22372776837272e-11)
(4.04228963103572e-12,-3.26389215656022e-10,2.04922822453608e-11)
(5.50142388523225e-12,-5.1708724122393e-10,9.61931601229953e-12)
(7.06143461285168e-12,-8.40557064832357e-10,4.23099548122815e-12)
(8.1501772560886e-12,-1.45550850764192e-09,2.48497648664999e-12)
(8.83272762925507e-12,-2.86134154304486e-09,1.43856108076823e-12)
(0,0,0)
(0,0,0)
(0,0,0)
(0,0,0)
(0,0,0)
(0,0,0)
(-2.69694624960606e-13,-1.8700207799708e-11,9.24767052876316e-11)
(-2.41186729921639e-13,-4.16877341062936e-11,8.96175909283027e-11)
(2.4761561044951e-13,-7.37008808808707e-11,8.40178417596762e-11)
(1.74536945377107e-12,-1.20976998002517e-10,7.49989321606665e-11)
(2.50876166785028e-12,-1.94856524918854e-10,6.15388838192635e-11)
(3.46170136341021e-12,-3.14748083370635e-10,4.40940981258871e-11)
(6.3154774351678e-12,-5.11617628517236e-10,2.59068842081074e-11)
(1.0477432940297e-11,-8.40452162708116e-10,1.6628112165265e-11)
(1.24141740419967e-11,-1.45662381169377e-09,1.18364304941183e-11)
(1.2897701240149e-11,-2.86248617683453e-09,6.75187988508819e-12)
(0,0,0)
(0,0,0)
(0,0,0)
(0,0,0)
(0,0,0)
(0,0,0)
(-1.70392021612473e-12,-1.54123539835165e-11,1.44090914898017e-10)
(-3.08271874066393e-12,-3.56597812887982e-11,1.41313960171128e-10)
(-4.2002113770202e-12,-6.39381748127748e-11,1.35108609955621e-10)
(-3.39667461138948e-12,-1.06057617408374e-10,1.24767026141074e-10)
(-2.59212568665221e-12,-1.75157146833694e-10,1.09309162840298e-10)
(-2.19980572029226e-14,-2.9406074316551e-10,8.83749410959156e-11)
(5.85877611723675e-12,-5.00002976235977e-10,6.50442556658189e-11)
(1.35418866991058e-11,-8.38932353724492e-10,4.97590123726777e-11)
(1.57979566732768e-11,-1.45621319396493e-09,3.62253868570995e-11)
(1.55895620939594e-11,-2.86052818596768e-09,1.97848216902369e-11)
(0,0,0)
(0,0,0)
(0,0,0)
(0,0,0)
(0,0,0)
(0,0,0)
(-3.23363664889868e-12,-1.22602918761892e-11,2.19977452883485e-10)
(-5.57565276922154e-12,-2.88291028388106e-11,2.17768529726175e-10)
(-7.92832314109298e-12,-5.25403362509823e-11,2.12030741034186e-10)
(-8.40951390916488e-12,-8.81090524780345e-11,2.02383669930834e-10)
(-7.36705179586182e-12,-1.49392230313335e-10,1.88706971552906e-10)
(-2.86139154990082e-12,-2.62562090834438e-10,1.71930679058881e-10)
(1.11035341367115e-11,-4.74722309150469e-10,1.56988496011448e-10)
(1.8284011320138e-11,-8.3065194577181e-10,1.22734451723974e-10)
(1.91217748766275e-11,-1.44693014353873e-09,8.57469220400446e-11)
(1.85909492826607e-11,-2.84737153696911e-09,4.47634662623177e-11)
(0,0,0)
(0,0,0)
(0,0,0)
(0,0,0)
(0,0,0)
(0,0,0)
(-2.99068531358735e-12,-9.90357451026874e-12,3.35994905007613e-10)
(-6.30150783871642e-12,-2.24312525966978e-11,3.33818404239891e-10)
(-9.00973525716088e-12,-4.12055456244735e-11,3.29425960759308e-10)
(-1.0155829216709e-11,-7.02943457622999e-11,3.22216513326091e-10)
(-9.01299596777879e-12,-1.23481541727835e-10,3.11403303816302e-10)
(-3.47670592051252e-12,-2.32358179175721e-10,2.959551393033e-10)
(9.97464480899309e-12,-4.54871481551508e-10,2.75033811994779e-10)
(1.78308295974863e-11,-8.0746170008134e-10,2.29322760392482e-10)
(1.92189010568533e-11,-1.41565193846376e-09,1.64860438741804e-10)
(1.87214349426233e-11,-2.80986001669788e-09,8.67432811064952e-11)
(0,0,0)
(0,0,0)
(0,0,0)
(0,0,0)
(0,0,0)
(0,0,0)
(-3.0049787087001e-12,-7.52637814234461e-12,5.18947370211224e-10)
(-6.34635957179095e-12,-1.70047424668081e-11,5.17214310782891e-10)
(-9.0134499917334e-12,-3.15159955786741e-11,5.13969909827685e-10)
(-1.00539263858403e-11,-5.45407023585674e-11,5.09326493851626e-10)
(-6.68657391977945e-12,-9.86197265325287e-11,5.02032985521375e-10)
(1.860079743232e-12,-1.9677738831749e-10,4.88053932678361e-10)
(7.0831981549022e-12,-4.1707141054263e-10,4.49425137201391e-10)
(1.38044869987059e-11,-7.53767467648109e-10,3.93967519633757e-10)
(1.65117695808911e-11,-1.34534374302772e-09,2.91274915173586e-10)
(1.64777342430064e-11,-2.72876259998949e-09,1.56812044613819e-10)
(0,0,0)
(0,0,0)
(0,0,0)
(0,0,0)
(0,0,0)
(0,0,0)
(-2.97675130287889e-12,-5.2814787828823e-12,8.33294168617911e-10)
(-6.2934677085067e-12,-1.21910707923244e-11,8.32313481335018e-10)
(-8.64297250257608e-12,-2.40462498669429e-11,8.29812573519373e-10)
(-1.0106288782143e-11,-4.37008178538343e-11,8.25546647879627e-10)
(-8.1289335583303e-12,-8.40198277196468e-11,8.1727391050272e-10)
(-2.92862793715901e-12,-1.75219613878565e-10,8.00307879984243e-10)
(2.25483407736144e-12,-3.62423609562268e-10,7.5755115004509e-10)
(8.01205707875767e-12,-6.54702339346771e-10,6.65346634238526e-10)
(1.20917723643481e-11,-1.2144059457876e-09,5.12054303095937e-10)
(1.36595815337667e-11,-2.57439062970648e-09,2.90811399149912e-10)
(0,0,0)
(0,0,0)
(0,0,0)
(0,0,0)
(0,0,0)
(0,0,0)
(-3.2915278905239e-12,-3.40533588312959e-12,1.44142516969456e-09)
(-7.07606495818309e-12,-8.03012819681511e-12,1.44118448502276e-09)
(-1.00896958679014e-11,-1.71545583745293e-11,1.43904623742404e-09)
(-1.24687220664248e-11,-3.24140203262962e-11,1.43304098735861e-09)
(-1.16358745491152e-11,-6.5016508542161e-11,1.4202887335067e-09)
(-8.49143020188757e-12,-1.35030138465489e-10,1.39356875693866e-09)
(-3.48855690764024e-12,-2.69762769481303e-10,1.33401823236598e-09)
(1.71680978120683e-12,-5.02000360852179e-10,1.21235671233743e-09)
(6.28651576277398e-12,-9.94288347179625e-10,9.95950010213345e-10)
(9.33757440058511e-12,-2.28439510366314e-09,6.22482765047679e-10)
(0,0,0)
(0,0,0)
(0,0,0)
(0,0,0)
(0,0,0)
(0,0,0)
(-3.57950238069024e-12,-1.82815692177082e-12,2.84372601461907e-09)
(-7.08612443233983e-12,-4.06059338516746e-12,2.84336882529078e-09)
(-9.91113549425475e-12,-8.96421201436215e-12,2.84150651567817e-09)
(-1.25191326347447e-11,-1.75392437510562e-11,2.83451019602174e-09)
(-1.2153030369431e-11,-3.595356868584e-11,2.81865220650693e-09)
(-1.02779805808449e-11,-7.37744115368391e-11,2.7849271159312e-09)
(-6.67975783382009e-12,-1.46261027051358e-10,2.71324856922855e-09)
(-2.62687052330393e-12,-2.85074382820016e-10,2.56871349285728e-09)
(1.77864308615355e-12,-6.21139677919147e-10,2.2837107911928e-09)
(6.27892342334659e-12,-1.66244158839423e-09,1.6623496752309e-09)
(0,0,0)
(0,0,0)
(0,0,0)
(0,0,0)
(0,0,0)
(0,0,0)
(0,0,0)
(0,0,0)
(0,0,0)
(0,0,0)
(0,0,0)
(0,0,0)
(0,0,0)
(0,0,0)
(0,0,0)
(0,0,0)
(0,0,0)
(0,0,0)
(0,0,0)
(0,0,0)
(0,0,0)
(0,0,0)
(0,0,0)
(0,0,0)
(0,0,0)
(0,0,0)
(0,0,0)
(0,0,0)
(0,0,0)
(0,0,0)
(0,0,0)
(0,0,0)
(0,0,0)
(0,0,0)
(0,0,0)
(0,0,0)
(0,0,0)
(0,0,0)
(0,0,0)
(0,0,0)
(0,0,0)
(0,0,0)
(0,0,0)
(0,0,0)
(0,0,0)
(0,0,0)
(0,0,0)
(0,0,0)
(0,0,0)
(0,0,0)
(0,0,0)
(0,0,0)
(0,0,0)
(0,0,0)
(0,0,0)
(0,0,0)
(0,0,0)
(0,0,0)
(0,0,0)
(0,0,0)
(0,0,0)
(0,0,0)
(0,0,0)
(0,0,0)
(0,0,0)
(0,0,0)
(0,0,0)
(0,0,0)
(0,0,0)
(0,0,0)
(0,0,0)
(0,0,0)
(0,0,0)
(0,0,0)
(0,0,0)
(0,0,0)
(0,0,0)
(0,0,0)
(0,0,0)
(0,0,0)
(0,0,0)
(0,0,0)
(0,0,0)
(0,0,0)
(0,0,0)
(0,0,0)
(0,0,0)
(0,0,0)
(0,0,0)
(0,0,0)
(0,0,0)
(0,0,0)
(0,0,0)
(0,0,0)
(0,0,0)
(0,0,0)
(0,0,0)
(0,0,0)
(0,0,0)
(0,0,0)
(0,0,0)
(0,0,0)
(6.55643985445277e-13,-2.99140698940637e-11,3.25921803915784e-11)
(1.56835416096203e-12,-6.55563798343343e-11,3.13476891200124e-11)
(1.92086682289502e-12,-1.13785278765587e-10,2.87702859862916e-11)
(1.62249889370817e-12,-1.80050961700731e-10,2.39697895240619e-11)
(2.03558875966525e-12,-2.74079166169817e-10,1.64060226252695e-11)
(2.46377388736818e-12,-4.11443370727766e-10,6.87756932433265e-12)
(3.25676378399346e-12,-6.13008240101346e-10,-1.57576018339383e-12)
(3.6379292300763e-12,-9.06779943709849e-10,-4.11036211765582e-12)
(3.9990502712798e-12,-1.32734051118463e-09,-3.17163586246075e-12)
(4.93505419749043e-12,-1.83985176222242e-09,-1.23943357552358e-12)
(0,0,0)
(0,0,0)
(0,0,0)
(0,0,0)
(0,0,0)
(0,0,0)
(8.63099117227526e-14,-2.84080715996769e-11,7.18048589743124e-11)
(1.11885112216961e-12,-6.22279936071777e-11,6.87836648929935e-11)
(2.10277279986594e-12,-1.08061466043145e-10,6.34559661006258e-11)
(2.59620407713246e-12,-1.7182921871159e-10,5.35182489617417e-11)
(2.72940354533373e-12,-2.64441149428942e-10,3.7173672906521e-11)
(3.27412357883075e-12,-4.03720035867581e-10,1.58891611332886e-11)
(5.42013170851884e-12,-6.11861359371623e-10,-4.74191985111816e-12)
(8.70255148447312e-12,-9.09945850007407e-10,-9.92283259246294e-12)
(1.03118967138149e-11,-1.33106933606427e-09,-6.59422863484145e-12)
(1.14159224997802e-11,-1.84243625559957e-09,-2.38510958224911e-12)
(0,0,0)
(0,0,0)
(0,0,0)
(0,0,0)
(0,0,0)
(0,0,0)
(-6.98434083826828e-13,-2.52501035917963e-11,1.22061318278457e-10)
(-6.69390377756296e-13,-5.59758146148568e-11,1.17351181632798e-10)
(-4.9618085803959e-13,-9.69248729291747e-11,1.08872783900561e-10)
(2.86037200464152e-13,-1.54770010427229e-10,9.42617428426876e-11)
(2.54169276009425e-13,-2.43235072101004e-10,7.05655362969269e-11)
(9.61575075952719e-13,-3.84356100574607e-10,3.58296690062284e-11)
(3.97959719776382e-12,-6.08552176529283e-10,-3.90478008430596e-12)
(1.3749305626905e-11,-9.17648122707182e-10,-8.69889779212925e-12)
(1.70881069230458e-11,-1.33916909638475e-09,-1.9164093479078e-12)
(1.76915902577291e-11,-1.84855614476366e-09,1.64617786458818e-12)
(0,0,0)
(0,0,0)
(0,0,0)
(0,0,0)
(0,0,0)
(0,0,0)
(-2.0790275972335e-12,-2.05558784563291e-11,1.87962910115656e-10)
(-3.70804697392143e-12,-4.66815044412658e-11,1.83516738528041e-10)
(-5.25646612486689e-12,-8.12612398283844e-11,1.74107047489638e-10)
(-5.88737624170746e-12,-1.30077790505641e-10,1.56921345500285e-10)
(-7.42282046183863e-12,-2.07889161729299e-10,1.28758841800417e-10)
(-8.1899649588227e-12,-3.44333767773423e-10,8.42787484883417e-11)
(-4.13664767490482e-12,-5.99116520933355e-10,2.32674664870186e-11)
(1.87951042624142e-11,-9.33035153822175e-10,2.16966248375789e-11)
(2.29554714141733e-11,-1.35067442498519e-09,2.44838681226104e-11)
(2.22177347850485e-11,-1.85373755171264e-09,1.64794688965103e-11)
(0,0,0)
(0,0,0)
(0,0,0)
(0,0,0)
(0,0,0)
(0,0,0)
(-3.3814308576732e-12,-1.59982670624045e-11,2.81392556857708e-10)
(-6.23571431849193e-12,-3.63738533521979e-11,2.77735151953674e-10)
(-9.61604266546933e-12,-6.30631198290746e-11,2.6926455662008e-10)
(-1.25475222466984e-11,-9.97041915770973e-11,2.53974827363704e-10)
(-1.65014478864524e-11,-1.58219217784367e-10,2.30610609612573e-10)
(-1.81231201621625e-11,-2.68205807708258e-10,2.03165765497843e-10)
(2.55067508243704e-11,-5.28207933820345e-10,2.19061177601889e-10)
(3.20812953136084e-11,-9.49349727802445e-10,1.43372278879692e-10)
(2.88270255810269e-11,-1.35561008844514e-09,9.7093554692016e-11)
(2.58428952733174e-11,-1.84675491455902e-09,5.09606622321391e-11)
(0,0,0)
(0,0,0)
(0,0,0)
(0,0,0)
(0,0,0)
(0,0,0)
(-3.19138091313904e-12,-1.20497597647063e-11,4.16687565463209e-10)
(-7.33557448836532e-12,-2.66234997550094e-11,4.13638885506005e-10)
(-1.14898378700573e-11,-4.56514734964838e-11,4.07017297889099e-10)
(-1.50962631094e-11,-7.04456544027356e-11,3.96237061110871e-10)
(-1.84266466509744e-11,-1.11881694364887e-10,3.80881968481324e-10)
(-1.81361694702472e-11,-2.12449086171198e-10,3.62117418233864e-10)
(1.78856254030047e-11,-5.38406931630697e-10,3.67261851229184e-10)
(2.85989188141439e-11,-9.39542331751358e-10,2.91782758753671e-10)
(2.70278632567394e-11,-1.32650662665534e-09,2.03199498982589e-10)
(2.43672993398068e-11,-1.80577768490365e-09,1.04864642539506e-10)
(0,0,0)
(0,0,0)
(0,0,0)
(0,0,0)
(0,0,0)
(0,0,0)
(-3.51681863932423e-12,-8.19776241443363e-12,6.11146588253935e-10)
(-7.91563029173637e-12,-1.80726009779356e-11,6.09145513953826e-10)
(-1.18397797271598e-11,-3.10292638402732e-11,6.04932981202985e-10)
(-1.3600302560297e-11,-4.57339816108918e-11,6.00497748088092e-10)
(-7.30741988930989e-12,-6.74720050786174e-11,6.00352649653012e-10)
(1.89311007810039e-11,-1.30144508005714e-10,6.07364681316098e-10)
(7.89301474225058e-12,-4.96855763627108e-10,5.31260986049981e-10)
(1.74319631571294e-11,-8.78450919501679e-10,5.1025409690334e-10)
(2.00368429009617e-11,-1.24152841011979e-09,3.55212148171626e-10)
(1.89178085742535e-11,-1.70845310457664e-09,1.82914084286426e-10)
(0,0,0)
(0,0,0)
(0,0,0)
(0,0,0)
(0,0,0)
(0,0,0)
(-3.87220691931763e-12,-5.23666333313024e-12,8.96131607844805e-10)
(-7.95350248822064e-12,-1.18470227151595e-11,8.94938782696688e-10)
(-1.12687383560779e-11,-2.24828635232624e-11,8.92262516233775e-10)
(-1.31203489314107e-11,-3.74217541178927e-11,8.89388370463994e-10)
(-1.01662222181387e-11,-6.90527945927399e-11,8.89446311196488e-10)
(-3.61373410786571e-13,-1.65642895055473e-10,8.93390607131946e-10)
(1.79850980279691e-12,-4.5049708956397e-10,8.71526345641504e-10)
(8.60240972565171e-12,-7.26707922075851e-10,7.42663667707515e-10)
(1.32170777028663e-11,-1.07364808606656e-09,5.41646312635959e-10)
(1.44754546409622e-11,-1.52898002070136e-09,2.92189818795582e-10)
(0,0,0)
(0,0,0)
(0,0,0)
(0,0,0)
(0,0,0)
(0,0,0)
(-4.62802218010184e-12,-2.98576061202608e-12,1.30842592106347e-09)
(-8.90735217124883e-12,-7.29070064102848e-12,1.30795082885953e-09)
(-1.22747921619952e-11,-1.59869170683017e-11,1.30557402101469e-09)
(-1.45912447897005e-11,-3.05802053151735e-11,1.30043949004834e-09)
(-1.39788378369702e-11,-6.29343826533418e-11,1.29166880850673e-09)
(-1.01966325582625e-11,-1.44259790981717e-10,1.27277843504832e-09)
(-5.32877930912354e-12,-3.16424543206643e-10,1.21618072877782e-09)
(1.19753387205668e-12,-5.25100287542936e-10,1.06817725632614e-09)
(6.60509166864238e-12,-8.24773707239178e-10,8.27064568604667e-10)
(9.86682417926739e-12,-1.23737237353407e-09,4.75127002291915e-10)
(0,0,0)
(0,0,0)
(0,0,0)
(0,0,0)
(0,0,0)
(0,0,0)
(-5.05046997475792e-12,-1.5736313334275e-12,1.81671914046466e-09)
(-9.28440820515e-12,-3.84981934652021e-12,1.81592631128702e-09)
(-1.18790278517351e-11,-8.85271920833099e-12,1.81298114726675e-09)
(-1.42003868714044e-11,-1.80322278022194e-11,1.80601042362177e-09)
(-1.43815084791916e-11,-3.77045528979122e-11,1.79075090520483e-09)
(-1.23738454154616e-11,-8.18350145334456e-11,1.75717360760479e-09)
(-8.40570851360739e-12,-1.65131099284229e-10,1.67949310432969e-09)