/*--------------------------------*- C++ -*----------------------------------*\
| =========                 |                                                 |
| \\      /  F ield         | foam-extend: Open Source Cstd::filesystem::create_directory();FD                    |
|  \\    /   O peration     | Version:     4.0                                |
|   \\  /    A nd           | Web:         http://www.foam-extend.org         |
|    \\/     M anipulation  |                                                 |
\*---------------------------------------------------------------------------*/
FoamFile
{
    version 2.0;
    format ascii;
    class volVectorField;
    location "Data/3340";
    object      H;
}
// * * * * * * * * * * * * * * * * * * * * * * * * * * * * * * * * * * * * * //

dimensions      [0 1 -1 0 0 0 0];

internalField   nonuniform List<vector>
4096
(
(0,0,0)
(0,0,0)
(0,0,0)
(0,0,0)
(0,0,0)
(0,0,0)
(0,0,0)
(0,0,0)
(0,0,0)
(0,0,0)
(0,0,0)
(0,0,0)
(0,0,0)
(0,0,0)
(0,0,0)
(0,0,0)
(0,0,0)
(0,0,0)
(0,0,0)
(0,0,0)
(0,0,0)
(0,0,0)
(0,0,0)
(0,0,0)
(0,0,0)
(0,0,0)
(0,0,0)
(0,0,0)
(0,0,0)
(0,0,0)
(0,0,0)
(0,0,0)
(0,0,0)
(0,0,0)
(0,0,0)
(0,0,0)
(0,0,0)
(0,0,0)
(0,0,0)
(0,0,0)
(0,0,0)
(0,0,0)
(0,0,0)
(0,0,0)
(0,0,0)
(0,0,0)
(0,0,0)
(0,0,0)
(0,0,0)
(0,0,0)
(0,0,0)
(0,0,0)
(0,0,0)
(0,0,0)
(0,0,0)
(0,0,0)
(0,0,0)
(0,0,0)
(0,0,0)
(0,0,0)
(0,0,0)
(0,0,0)
(0,0,0)
(0,0,0)
(0,0,0)
(0,0,0)
(0,0,0)
(0,0,0)
(0,0,0)
(0,0,0)
(0,0,0)
(0,0,0)
(0,0,0)
(0,0,0)
(0,0,0)
(0,0,0)
(0,0,0)
(0,0,0)
(0,0,0)
(0,0,0)
(0,0,0)
(0,0,0)
(0,0,0)
(0,0,0)
(0,0,0)
(0,0,0)
(0,0,0)
(0,0,0)
(0,0,0)
(0,0,0)
(0,0,0)
(0,0,0)
(0,0,0)
(0,0,0)
(0,0,0)
(0,0,0)
(0,0,0)
(0,0,0)
(0,0,0)
(0,0,0)
(0,0,0)
(0,0,0)
(0,0,0)
(0,0,0)
(0,0,0)
(0,0,0)
(0,0,0)
(0,0,0)
(0,0,0)
(0,0,0)
(0,0,0)
(0,0,0)
(0,0,0)
(0,0,0)
(0,0,0)
(0,0,0)
(0,0,0)
(0,0,0)
(0,0,0)
(0,0,0)
(0,0,0)
(0,0,0)
(0,0,0)
(0,0,0)
(0,0,0)
(0,0,0)
(0,0,0)
(0,0,0)
(0,0,0)
(0,0,0)
(0,0,0)
(0,0,0)
(0,0,0)
(0,0,0)
(0,0,0)
(0,0,0)
(0,0,0)
(0,0,0)
(0,0,0)
(0,0,0)
(0,0,0)
(0,0,0)
(0,0,0)
(0,0,0)
(0,0,0)
(0,0,0)
(0,0,0)
(0,0,0)
(0,0,0)
(0,0,0)
(0,0,0)
(0,0,0)
(0,0,0)
(0,0,0)
(0,0,0)
(0,0,0)
(0,0,0)
(0,0,0)
(0,0,0)
(0,0,0)
(0,0,0)
(0,0,0)
(0,0,0)
(0,0,0)
(0,0,0)
(0,0,0)
(0,0,0)
(0,0,0)
(0,0,0)
(0,0,0)
(0,0,0)
(0,0,0)
(0,0,0)
(0,0,0)
(0,0,0)
(0,0,0)
(0,0,0)
(0,0,0)
(0,0,0)
(0,0,0)
(0,0,0)
(0,0,0)
(0,0,0)
(0,0,0)
(0,0,0)
(0,0,0)
(0,0,0)
(0,0,0)
(0,0,0)
(0,0,0)
(0,0,0)
(0,0,0)
(0,0,0)
(0,0,0)
(0,0,0)
(0,0,0)
(0,0,0)
(0,0,0)
(0,0,0)
(0,0,0)
(0,0,0)
(0,0,0)
(0,0,0)
(0,0,0)
(0,0,0)
(0,0,0)
(0,0,0)
(0,0,0)
(0,0,0)
(0,0,0)
(0,0,0)
(0,0,0)
(0,0,0)
(0,0,0)
(0,0,0)
(0,0,0)
(0,0,0)
(0,0,0)
(0,0,0)
(0,0,0)
(0,0,0)
(0,0,0)
(0,0,0)
(0,0,0)
(0,0,0)
(0,0,0)
(0,0,0)
(0,0,0)
(0,0,0)
(0,0,0)
(0,0,0)
(0,0,0)
(0,0,0)
(0,0,0)
(0,0,0)
(0,0,0)
(0,0,0)
(0,0,0)
(0,0,0)
(0,0,0)
(0,0,0)
(0,0,0)
(0,0,0)
(0,0,0)
(0,0,0)
(0,0,0)
(0,0,0)
(0,0,0)
(0,0,0)
(0,0,0)
(0,0,0)
(0,0,0)
(0,0,0)
(0,0,0)
(0,0,0)
(0,0,0)
(0,0,0)
(0,0,0)
(0,0,0)
(0,0,0)
(0,0,0)
(0,0,0)
(0,0,0)
(0,0,0)
(0,0,0)
(0,0,0)
(0,0,0)
(0,0,0)
(0,0,0)
(0,0,0)
(0,0,0)
(0,0,0)
(0,0,0)
(0,0,0)
(0,0,0)
(0,0,0)
(0,0,0)
(0,0,0)
(0,0,0)
(0,0,0)
(0,0,0)
(0,0,0)
(0,0,0)
(0,0,0)
(0,0,0)
(0,0,0)
(0,0,0)
(0,0,0)
(0,0,0)
(0,0,0)
(0,0,0)
(0,0,0)
(0,0,0)
(0,0,0)
(0,0,0)
(0,0,0)
(0,0,0)
(0,0,0)
(0,0,0)
(0,0,0)
(0,0,0)
(0,0,0)
(0,0,0)
(0,0,0)
(0,0,0)
(0,0,0)
(0,0,0)
(0,0,0)
(0,0,0)
(0,0,0)
(0,0,0)
(0,0,0)
(0,0,0)
(0,0,0)
(0,0,0)
(0,0,0)
(0,0,0)
(0,0,0)
(0,0,0)
(0,0,0)
(0,0,0)
(0,0,0)
(0,0,0)
(0,0,0)
(0,0,0)
(0,0,0)
(0,0,0)
(0,0,0)
(0,0,0)
(0,0,0)
(0,0,0)
(0,0,0)
(0,0,0)
(0,0,0)
(0,0,0)
(0,0,0)
(0,0,0)
(0,0,0)
(0,0,0)
(0,0,0)
(0,0,0)
(0,0,0)
(0,0,0)
(0,0,0)
(0,0,0)
(0,0,0)
(0,0,0)
(0,0,0)
(0,0,0)
(0,0,0)
(0,0,0)
(0,0,0)
(0,0,0)
(0,0,0)
(0,0,0)
(0,0,0)
(0,0,0)
(0,0,0)
(0,0,0)
(0,0,0)
(0,0,0)
(0,0,0)
(0,0,0)
(0,0,0)
(0,0,0)
(0,0,0)
(0,0,0)
(0,0,0)
(0,0,0)
(0,0,0)
(0,0,0)
(0,0,0)
(0,0,0)
(0,0,0)
(0,0,0)
(0,0,0)
(0,0,0)
(0,0,0)
(0,0,0)
(0,0,0)
(0,0,0)
(0,0,0)
(0,0,0)
(0,0,0)
(0,0,0)
(0,0,0)
(0,0,0)
(0,0,0)
(0,0,0)
(0,0,0)
(0,0,0)
(0,0,0)
(0,0,0)
(0,0,0)
(0,0,0)
(0,0,0)
(0,0,0)
(0,0,0)
(0,0,0)
(0,0,0)
(0,0,0)
(0,0,0)
(0,0,0)
(0,0,0)
(0,0,0)
(0,0,0)
(0,0,0)
(0,0,0)
(0,0,0)
(0,0,0)
(0,0,0)
(0,0,0)
(0,0,0)
(0,0,0)
(0,0,0)
(0,0,0)
(0,0,0)
(0,0,0)
(0,0,0)
(0,0,0)
(0,0,0)
(0,0,0)
(0,0,0)
(0,0,0)
(0,0,0)
(0,0,0)
(0,0,0)
(0,0,0)
(0,0,0)
(0,0,0)
(0,0,0)
(0,0,0)
(0,0,0)
(0,0,0)
(0,0,0)
(0,0,0)
(0,0,0)
(0,0,0)
(0,0,0)
(0,0,0)
(0,0,0)
(0,0,0)
(0,0,0)
(0,0,0)
(0,0,0)
(0,0,0)
(0,0,0)
(0,0,0)
(0,0,0)
(0,0,0)
(0,0,0)
(0,0,0)
(0,0,0)
(0,0,0)
(0,0,0)
(0,0,0)
(0,0,0)
(0,0,0)
(0,0,0)
(0,0,0)
(0,0,0)
(0,0,0)
(0,0,0)
(0,0,0)
(0,0,0)
(0,0,0)
(0,0,0)
(0,0,0)
(0,0,0)
(0,0,0)
(0,0,0)
(0,0,0)
(0,0,0)
(0,0,0)
(0,0,0)
(0,0,0)
(0,0,0)
(0,0,0)
(0,0,0)
(0,0,0)
(0,0,0)
(0,0,0)
(0,0,0)
(0,0,0)
(0,0,0)
(0,0,0)
(0,0,0)
(0,0,0)
(0,0,0)
(0,0,0)
(0,0,0)
(0,0,0)
(0,0,0)
(0,0,0)
(0,0,0)
(0,0,0)
(0,0,0)
(0,0,0)
(0,0,0)
(0,0,0)
(0,0,0)
(0,0,0)
(0,0,0)
(0,0,0)
(0,0,0)
(0,0,0)
(0,0,0)
(0,0,0)
(0,0,0)
(0,0,0)
(0,0,0)
(0,0,0)
(0,0,0)
(0,0,0)
(0,0,0)
(0,0,0)
(0,0,0)
(0,0,0)
(0,0,0)
(0,0,0)
(0,0,0)
(0,0,0)
(0,0,0)
(0,0,0)
(0,0,0)
(0,0,0)
(0,0,0)
(0,0,0)
(0,0,0)
(0,0,0)
(0,0,0)
(0,0,0)
(0,0,0)
(0,0,0)
(0,0,0)
(0,0,0)
(0,0,0)
(0,0,0)
(0,0,0)
(0,0,0)
(0,0,0)
(0,0,0)
(0,0,0)
(0,0,0)
(0,0,0)
(0,0,0)
(0,0,0)
(0,0,0)
(0,0,0)
(0,0,0)
(0,0,0)
(0,0,0)
(0,0,0)
(0,0,0)
(0,0,0)
(0,0,0)
(0,0,0)
(0,0,0)
(0,0,0)
(0,0,0)
(0,0,0)
(0,0,0)
(0,0,0)
(0,0,0)
(0,0,0)
(0,0,0)
(0,0,0)
(0,0,0)
(0,0,0)
(0,0,0)
(0,0,0)
(0,0,0)
(0,0,0)
(0,0,0)
(0,0,0)
(0,0,0)
(0,0,0)
(0,0,0)
(0,0,0)
(0,0,0)
(0,0,0)
(0,0,0)
(0,0,0)
(0,0,0)
(0,0,0)
(0,0,0)
(0,0,0)
(0,0,0)
(0,0,0)
(0,0,0)
(0,0,0)
(0,0,0)
(0,0,0)
(0,0,0)
(0,0,0)
(0,0,0)
(0,0,0)
(0,0,0)
(0,0,0)
(0,0,0)
(0,0,0)
(0,0,0)
(0,0,0)
(0,0,0)
(0,0,0)
(0,0,0)
(0,0,0)
(0,0,0)
(0,0,0)
(0,0,0)
(0,0,0)
(0,0,0)
(0,0,0)
(0,0,0)
(0,0,0)
(0,0,0)
(0,0,0)
(0,0,0)
(0,0,0)
(0,0,0)
(0,0,0)
(0,0,0)
(0,0,0)
(0,0,0)
(0,0,0)
(0,0,0)
(0,0,0)
(0,0,0)
(0,0,0)
(0,0,0)
(0,0,0)
(0,0,0)
(0,0,0)
(0,0,0)
(0,0,0)
(0,0,0)
(0,0,0)
(0,0,0)
(0,0,0)
(0,0,0)
(0,0,0)
(0,0,0)
(0,0,0)
(0,0,0)
(0,0,0)
(0,0,0)
(0,0,0)
(0,0,0)
(0,0,0)
(0,0,0)
(0,0,0)
(0,0,0)
(0,0,0)
(0,0,0)
(0,0,0)
(0,0,0)
(0,0,0)
(0,0,0)
(0,0,0)
(0,0,0)
(0,0,0)
(0,0,0)
(0,0,0)
(0,0,0)
(0,0,0)
(0,0,0)
(0,0,0)
(0,0,0)
(0,0,0)
(0,0,0)
(0,0,0)
(0,0,0)
(0,0,0)
(0,0,0)
(0,0,0)
(0,0,0)
(0,0,0)
(0,0,0)
(0,0,0)
(0,0,0)
(0,0,0)
(0,0,0)
(0,0,0)
(0,0,0)
(0,0,0)
(0,0,0)
(0,0,0)
(0,0,0)
(0,0,0)
(0,0,0)
(0,0,0)
(0,0,0)
(0,0,0)
(0,0,0)
(0,0,0)
(0,0,0)
(0,0,0)
(0,0,0)
(0,0,0)
(0,0,0)
(0,0,0)
(0,0,0)
(0,0,0)
(0,0,0)
(0,0,0)
(0,0,0)
(0,0,0)
(0,0,0)
(0,0,0)
(0,0,0)
(0,0,0)
(0,0,0)
(0,0,0)
(0,0,0)
(0,0,0)
(0,0,0)
(0,0,0)
(0,0,0)
(0,0,0)
(0,0,0)
(0,0,0)
(0,0,0)
(0,0,0)
(0,0,0)
(0,0,0)
(0,0,0)
(0,0,0)
(0,0,0)
(0,0,0)
(0,0,0)
(0,0,0)
(0,0,0)
(0,0,0)
(0,0,0)
(0,0,0)
(0,0,0)
(0,0,0)
(0,0,0)
(0,0,0)
(0,0,0)
(0,0,0)
(0,0,0)
(0,0,0)
(0,0,0)
(0,0,0)
(0,0,0)
(0,0,0)
(0,0,0)
(0,0,0)
(0,0,0)
(0,0,0)
(0,0,0)
(0,0,0)
(0,0,0)
(0,0,0)
(0,0,0)
(0,0,0)
(0,0,0)
(0,0,0)
(0,0,0)
(0,0,0)
(0,0,0)
(0,0,0)
(0,0,0)
(0,0,0)
(0,0,0)
(0,0,0)
(0,0,0)
(0,0,0)
(0,0,0)
(0,0,0)
(0,0,0)
(0,0,0)
(0,0,0)
(0,0,0)
(0,0,0)
(0,0,0)
(0,0,0)
(0,0,0)
(0,0,0)
(0,0,0)
(0,0,0)
(0,0,0)
(0,0,0)
(0,0,0)
(0,0,0)
(0,0,0)
(0,0,0)
(0,0,0)
(0,0,0)
(0,0,0)
(0,0,0)
(0,0,0)
(0,0,0)
(0,0,0)
(0,0,0)
(0,0,0)
(0,0,0)
(0,0,0)
(0,0,0)
(0,0,0)
(0,0,0)
(0,0,0)
(0,0,0)
(0,0,0)
(0,0,0)
(0,0,0)
(0,0,0)
(0,0,0)
(0,0,0)
(0,0,0)
(0,0,0)
(0,0,0)
(0,0,0)
(0,0,0)
(0,0,0)
(0,0,0)
(0,0,0)
(0,0,0)
(-7.02149378600015e-13,1.486855020975e-11,-1.54985346673582e-11)
(3.717316546627e-13,2.9778450431238e-11,-1.46860798534624e-11)
(1.32494541396926e-12,4.96752871582144e-11,-1.32378979513294e-11)
(4.29583728661618e-13,7.78222374154348e-11,-1.0714495006611e-11)
(-5.40389988257885e-13,1.19808196541277e-10,-7.60615246193153e-12)
(-1.01812118732659e-12,1.85872388494054e-10,-4.84290073569186e-12)
(-1.72551649670576e-12,2.93083825533044e-10,-2.58643481218181e-12)
(-7.9300373320413e-13,4.74458265370788e-10,-1.50015705974089e-12)
(-7.03521580615299e-13,7.75756367370856e-10,-9.58973381418381e-13)
(-6.40097912476309e-13,1.1945769925354e-09,-4.50945383173231e-13)
(0,0,0)
(0,0,0)
(0,0,0)
(0,0,0)
(0,0,0)
(0,0,0)
(4.23166229202434e-13,1.39330910752445e-11,-3.05646364335882e-11)
(2.12664067432715e-12,2.82291688141451e-11,-2.94674004019621e-11)
(4.28959356943298e-12,4.7422296008581e-11,-2.7179430528556e-11)
(4.03319444438103e-12,7.47803576066741e-11,-2.29488748688007e-11)
(2.83944549613885e-12,1.16563991785119e-10,-1.73686175798896e-11)
(6.20640507488613e-13,1.83187259877502e-10,-1.1550894555878e-11)
(-1.20721690248393e-12,2.91852853128616e-10,-6.6895592433516e-12)
(-7.95115363773442e-13,4.74149284863953e-10,-4.10390095494372e-12)
(-8.98799812302202e-13,7.75212439333786e-10,-2.78052273888241e-12)
(-6.58451497061831e-13,1.19384620788377e-09,-1.44570412372277e-12)
(0,0,0)
(0,0,0)
(0,0,0)
(0,0,0)
(0,0,0)
(0,0,0)
(1.92109620057248e-12,1.28893802821691e-11,-5.11496798241765e-11)
(4.05009074273087e-12,2.58596040916117e-11,-4.94380671668085e-11)
(6.5001433896102e-12,4.33722114686671e-11,-4.62349609147422e-11)
(7.42237510630673e-12,6.91597783647498e-11,-4.07269511895871e-11)
(7.31852575511309e-12,1.10327423003958e-10,-3.34837094162224e-11)
(4.40069661601778e-12,1.77705893246496e-10,-2.51489593946411e-11)
(1.62407126349886e-12,2.88952264279414e-10,-1.72440886919666e-11)
(6.49007661662361e-13,4.73269354980969e-10,-1.19919902613764e-11)
(1.55140427946037e-13,7.7425902073461e-10,-7.96032133991486e-12)
(6.86164104758181e-13,1.19245305987958e-09,-4.11774157531749e-12)
(0,0,0)
(0,0,0)
(0,0,0)
(0,0,0)
(0,0,0)
(0,0,0)
(2.22900766493134e-12,1.1058586980211e-11,-8.01405875506365e-11)
(5.42540238465972e-12,2.256207317703e-11,-7.80571122418176e-11)
(8.94817117304654e-12,3.81010862484462e-11,-7.41095724877972e-11)
(1.06519876001549e-11,6.17087888862696e-11,-6.77970038622072e-11)
(1.06934732305007e-11,1.0137604514347e-10,-5.96329136862888e-11)
(7.91225599769295e-12,1.68646223199861e-10,-4.97633015864085e-11)
(5.34191515105305e-12,2.82677409053631e-10,-3.92109038313463e-11)
(4.00457221308772e-12,4.69576460362411e-10,-3.02247919556425e-11)
(3.189518340229e-12,7.70948958260517e-10,-2.11166660305235e-11)
(3.60622538446459e-12,1.18846304559312e-09,-1.09904449725001e-11)
(0,0,0)
(0,0,0)
(0,0,0)
(0,0,0)
(0,0,0)
(0,0,0)
(3.39661167268394e-12,8.37457171083689e-12,-1.22413519047836e-10)
(7.52671970000252e-12,1.82153244118555e-11,-1.20596338431678e-10)
(1.17525583930137e-11,3.18540736481443e-11,-1.16620061746863e-10)
(1.29002778157148e-11,5.28592053968401e-11,-1.10430709859649e-10)
(1.24434508574487e-11,8.971376677621e-11,-1.02621833292434e-10)
(1.04760933634904e-11,1.55382660809907e-10,-9.32726016689871e-11)
(8.02362521538553e-12,2.71606019161147e-10,-8.22362158441861e-11)
(7.71612978571734e-12,4.61457522498098e-10,-6.67587050947828e-11)
(7.7861765554575e-12,7.62429867762296e-10,-4.72717536010408e-11)
(8.27971364791009e-12,1.17834343497306e-09,-2.43421200800826e-11)
(0,0,0)
(0,0,0)
(0,0,0)
(0,0,0)
(0,0,0)
(0,0,0)
(4.78773166576726e-12,6.09423719186663e-12,-1.87942368194699e-10)
(8.62655807407518e-12,1.40030615384082e-11,-1.86002017003517e-10)
(1.12489998710194e-11,2.55506630110285e-11,-1.82508210209571e-10)
(1.16641808422616e-11,4.37445498269226e-11,-1.77393290767162e-10)
(1.21079664687321e-11,7.73170948696372e-11,-1.705674274827e-10)
(1.13760560690619e-11,1.40927748783542e-10,-1.60943124153166e-10)
(1.01219097935056e-11,2.5761180632499e-10,-1.46202090438277e-10)
(1.17990657767073e-11,4.4498727208613e-10,-1.2294865789128e-10)
(1.31463470171204e-11,7.42464518549596e-10,-8.95706321270354e-11)
(1.44866826523891e-11,1.15575271568776e-09,-4.73317990078974e-11)
(0,0,0)
(0,0,0)
(0,0,0)
(0,0,0)
(0,0,0)
(0,0,0)
(4.56376273756341e-12,4.27283393444882e-12,-2.9128620969405e-10)
(6.96028684333681e-12,1.06206383797823e-11,-2.89777324352523e-10)
(8.1337993932063e-12,1.9945426056241e-11,-2.8751006437126e-10)
(8.23102680281722e-12,3.51714135460585e-11,-2.84183364174604e-10)
(8.95807686772397e-12,6.47544611280429e-11,-2.78863581866403e-10)
(9.15697469503589e-12,1.23423264193614e-10,-2.6857803312282e-10)
(1.0890381784277e-11,2.35057479835669e-10,-2.47682362763786e-10)
(1.45871347410735e-11,4.1411580287414e-10,-2.13935168206444e-10)
(1.7262455665482e-11,7.03125748672657e-10,-1.60139714103901e-10)
(1.91105412822283e-11,1.11064062661403e-09,-8.69736933175393e-11)
(0,0,0)
(0,0,0)
(0,0,0)
(0,0,0)
(0,0,0)
(0,0,0)
(3.0458656004132e-12,2.91163124832167e-12,-4.67034758236101e-10)
(4.38296915599137e-12,8.02778511151567e-12,-4.6637677352684e-10)
(4.48526902447061e-12,1.53323353434637e-11,-4.65163791966488e-10)
(4.63469994107926e-12,2.82394546770063e-11,-4.62669604638944e-10)
(6.0390860579216e-12,5.38743746208073e-11,-4.56963493454656e-10)
(8.53234907457489e-12,1.04997476636201e-10,-4.44469629404164e-10)
(1.19682321347626e-11,2.01847388570148e-10,-4.17840173826812e-10)
(1.68062914441191e-11,3.61765678573235e-10,-3.67536779033925e-10)
(2.02831742174472e-11,6.32284702075719e-10,-2.84436324729027e-10)
(2.13542484578289e-11,1.02598166705804e-09,-1.60805654608515e-10)
(0,0,0)
(0,0,0)
(0,0,0)
(0,0,0)
(0,0,0)
(0,0,0)
(6.66423959945502e-13,2.20798152549293e-12,-7.63542949994683e-10)
(1.27315188779502e-12,6.09176056460458e-12,-7.63383903607851e-10)
(1.36069328891471e-12,1.10325214518639e-11,-7.62070878196097e-10)
(2.06550118964307e-12,2.07609724795941e-11,-7.59210473158391e-10)
(3.7549813440356e-12,4.03791902396153e-11,-7.51832280387717e-10)
(7.71093489507908e-12,7.88849660263981e-11,-7.35497776110875e-10)
(1.21319548853503e-11,1.51611572390209e-10,-7.00873352649581e-10)
(1.73450151924561e-11,2.79429623487931e-10,-6.32872315490519e-10)
(2.10946647242165e-11,5.10360661397402e-10,-5.11759469962085e-10)
(2.17403945982386e-11,8.67032405820508e-10,-3.07214476014075e-10)
(0,0,0)
(0,0,0)
(0,0,0)
(0,0,0)
(0,0,0)
(0,0,0)
(-5.29264524177894e-14,1.24164302635297e-12,-1.17998588183283e-09)
(1.83141473743465e-13,3.17131669540779e-12,-1.17985098219675e-09)
(3.80208301141448e-13,5.66345594765896e-12,-1.17848756093353e-09)
(1.0449028594311e-12,1.10421840464493e-11,-1.17518217524448e-09)
(2.67949151865079e-12,2.19951565148414e-11,-1.16660046538764e-09)
(6.99206406731055e-12,4.30297597342735e-11,-1.14718867058064e-09)
(1.18384637187282e-11,8.29047157363738e-11,-1.10591069561902e-09)
(1.60408840732527e-11,1.58216583955493e-10,-1.02373805705089e-09)
(2.05059470388622e-11,3.0639949287814e-10,-8.66065781785484e-10)
(2.24215819470658e-11,5.60414918836138e-10,-5.5990828539564e-10)
(0,0,0)
(0,0,0)
(0,0,0)
(0,0,0)
(0,0,0)
(0,0,0)
(0,0,0)
(0,0,0)
(0,0,0)
(0,0,0)
(0,0,0)
(0,0,0)
(0,0,0)
(0,0,0)
(0,0,0)
(0,0,0)
(0,0,0)
(0,0,0)
(0,0,0)
(0,0,0)
(0,0,0)
(0,0,0)
(0,0,0)
(0,0,0)
(0,0,0)
(0,0,0)
(0,0,0)
(0,0,0)
(0,0,0)
(0,0,0)
(0,0,0)
(0,0,0)
(0,0,0)
(0,0,0)
(0,0,0)
(0,0,0)
(0,0,0)
(0,0,0)
(0,0,0)
(0,0,0)
(0,0,0)
(0,0,0)
(0,0,0)
(0,0,0)
(0,0,0)
(0,0,0)
(0,0,0)
(0,0,0)
(0,0,0)
(0,0,0)
(0,0,0)
(0,0,0)
(0,0,0)
(0,0,0)
(0,0,0)
(0,0,0)
(0,0,0)
(0,0,0)
(0,0,0)
(0,0,0)
(0,0,0)
(0,0,0)
(0,0,0)
(0,0,0)
(0,0,0)
(0,0,0)
(0,0,0)
(0,0,0)
(0,0,0)
(0,0,0)
(0,0,0)
(0,0,0)
(0,0,0)
(0,0,0)
(0,0,0)
(0,0,0)
(0,0,0)
(0,0,0)
(0,0,0)
(0,0,0)
(0,0,0)
(0,0,0)
(0,0,0)
(0,0,0)
(0,0,0)
(0,0,0)
(0,0,0)
(0,0,0)
(0,0,0)
(0,0,0)
(0,0,0)
(0,0,0)
(0,0,0)
(0,0,0)
(0,0,0)
(0,0,0)
(0,0,0)
(0,0,0)
(0,0,0)
(0,0,0)
(0,0,0)
(0,0,0)
(-5.79145057992419e-13,2.75136622461505e-11,-2.78394339820303e-11)
(4.72831369619539e-13,5.60697918176742e-11,-2.68539450812002e-11)
(1.05453361888529e-12,9.26352137565685e-11,-2.44281516641527e-11)
(3.6312099273119e-13,1.43202977060922e-10,-1.99789730478025e-11)
(-5.94369583861112e-14,2.17265172923612e-10,-1.38392706239929e-11)
(-5.89458494232871e-13,3.32213864435646e-10,-7.30836356500423e-12)
(-1.58082184460791e-12,5.16701721361794e-10,-2.31381496169728e-12)
(-1.02520690487276e-12,8.31231665645198e-10,-1.66046865850211e-13)
(-6.67621542205291e-13,1.43270068603616e-09,8.15578604745306e-14)
(-3.60258644436823e-13,2.80802429696409e-09,5.58749801807278e-16)
(0,0,0)
(0,0,0)
(0,0,0)
(0,0,0)
(0,0,0)
(0,0,0)
(3.69640990650446e-13,2.62358422065369e-11,-5.83916618333768e-11)
(2.20823552346946e-12,5.35310979058926e-11,-5.63889845008411e-11)
(4.10912244957215e-12,8.86235210224214e-11,-5.18841288185129e-11)
(4.07351639739154e-12,1.37518259046869e-10,-4.37021790426516e-11)
(3.25829125330036e-12,2.11201277906542e-10,-3.21295378640565e-11)
(1.24067182594665e-12,3.27652485317056e-10,-1.87529776769856e-11)
(-8.92286341838997e-13,5.14929456909309e-10,-7.44419967123932e-12)
(-1.23856369647615e-12,8.3174550932864e-10,-2.54701520902719e-12)
(-1.28019982783991e-12,1.43342823569549e-09,-1.65140245289842e-12)
(-7.11007616475283e-13,2.80841526162358e-09,-1.14740131286741e-12)
(0,0,0)
(0,0,0)
(0,0,0)
(0,0,0)
(0,0,0)
(0,0,0)
(2.04027684516349e-12,2.41588208006014e-11,-9.79517163677438e-11)
(4.14451540524962e-12,4.90140646343815e-11,-9.43081385757656e-11)
(6.26325888470041e-12,8.10753095950711e-11,-8.75551738889693e-11)
(7.63012281141605e-12,1.26742802098436e-10,-7.62379422805073e-11)
(7.93515359396808e-12,1.98562903489575e-10,-6.02348637489295e-11)
(5.5554959599851e-12,3.16399783604725e-10,-4.05971106685882e-11)
(2.6468280587185e-12,5.09948085181065e-10,-2.18545842983804e-11)
(3.10233358580717e-13,8.32199919491836e-10,-1.31056362512604e-11)
(-3.77376862647048e-13,1.43421633146577e-09,-9.13235823420907e-12)
(5.58436815797439e-13,2.807909793311e-09,-5.2976681125582e-12)
(0,0,0)
(0,0,0)
(0,0,0)
(0,0,0)
(0,0,0)
(0,0,0)
(2.82954762548657e-12,2.04767398397872e-11,-1.51232382247216e-10)
(5.82461139581208e-12,4.22407362282961e-11,-1.46724942262471e-10)
(8.88261514775134e-12,7.00950911049173e-11,-1.38446268769375e-10)
(1.1337480913671e-11,1.1100809969377e-10,-1.25250227955189e-10)
(1.24861394978742e-11,1.7876450105248e-10,-1.07072568172221e-10)
(1.06234206326107e-11,2.95779944792891e-10,-8.36831187311492e-11)
(7.42719316782633e-12,4.98296945692002e-10,-5.88737045772113e-11)
(3.01538415230944e-12,8.29647899554213e-10,-4.40746471139653e-11)
(1.58238778095046e-12,1.43221751564496e-09,-3.1744633285991e-11)
(2.73539103291022e-12,2.80380251009524e-09,-1.71857828824587e-11)
(0,0,0)
(0,0,0)
(0,0,0)
(0,0,0)
(0,0,0)
(0,0,0)
(3.85976557549582e-12,1.56063331404871e-11,-2.25417741558384e-10)
(7.76270588863358e-12,3.34475251482015e-11,-2.21317713172636e-10)
(1.18666171429125e-11,5.64702599641321e-11,-2.13278831327421e-10)
(1.42060568184074e-11,9.15964641178397e-11,-2.01041986454876e-10)
(1.54908911405944e-11,1.52199502280811e-10,-1.84765767370401e-10)
(1.38946195649966e-11,2.63450201502021e-10,-1.65116950277506e-10)
(6.54032730219915e-12,4.72461937300314e-10,-1.47188912395438e-10)
(4.69942870410261e-12,8.19743696616595e-10,-1.14934035435914e-10)
(4.82189224693254e-12,1.42137583432747e-09,-8.07875818430856e-11)
(6.52831285276921e-12,2.78932401732977e-09,-4.21146343326541e-11)
(0,0,0)
(0,0,0)
(0,0,0)
(0,0,0)
(0,0,0)
(0,0,0)
(4.66878373200403e-12,1.12354434190563e-11,-3.36898844913348e-10)
(8.51517443875059e-12,2.4980692417874e-11,-3.33335492677714e-10)
(1.17393173833939e-11,4.33863422986593e-11,-3.26903029948826e-10)
(1.34114538386736e-11,7.22787815042699e-11,-3.1765234202174e-10)
(1.50462968808055e-11,1.24863092235627e-10,-3.05076385022278e-10)
(1.41395069440582e-11,2.31740248132737e-10,-2.87427653197015e-10)
(9.42280373586183e-12,4.50737543328982e-10,-2.63431881039313e-10)
(9.29250922437581e-12,7.94728518870937e-10,-2.19729977765504e-10)
(1.02462837748339e-11,1.38840094253932e-09,-1.58306104891428e-10)
(1.2266972718825e-11,2.75076796451288e-09,-8.3383587581319e-11)
(0,0,0)
(0,0,0)
(0,0,0)
(0,0,0)
(0,0,0)
(0,0,0)
(4.41608008216287e-12,7.72505141701083e-12,-5.1147921201488e-10)
(7.28588013034239e-12,1.81196839933731e-11,-5.09018619227678e-10)
(9.42018990933088e-12,3.24344169646992e-11,-5.05231176086637e-10)
(9.84320336366217e-12,5.56472027157086e-11,-5.00188447720081e-10)
(9.55261463140584e-12,9.92595437973389e-11,-4.93118493424402e-10)
(6.687091893436e-12,1.95009151686899e-10,-4.78737685577635e-10)
(1.03532784924546e-11,4.11321693932104e-10,-4.38790232048504e-10)
(1.31418049392815e-11,7.40701252918761e-10,-3.84302753463094e-10)
(1.49374814760466e-11,1.31863992627522e-09,-2.83854956824916e-10)
(1.67958075210716e-11,2.67082075567241e-09,-1.52879775117138e-10)
(0,0,0)
(0,0,0)
(0,0,0)
(0,0,0)
(0,0,0)
(0,0,0)
(3.09153061398072e-12,5.27355765986544e-12,-8.16486753103138e-10)
(5.10601214255201e-12,1.31004658437193e-11,-8.14989347515554e-10)
(6.29089558852982e-12,2.45016762076414e-11,-8.12581301408138e-10)
(6.40707095419716e-12,4.49572663967169e-11,-8.09051406828922e-10)
(7.04040638859795e-12,8.48449571035104e-11,-8.02325667915521e-10)
(8.01540410705334e-12,1.73300886105365e-10,-7.86321945113773e-10)
(1.19006535218583e-11,3.57086995922915e-10,-7.44167720922293e-10)
(1.60418922243863e-11,6.43250540170398e-10,-6.53742338294661e-10)
(1.85765447753945e-11,1.19110087476822e-09,-5.03303494370964e-10)
(1.94978550864238e-11,2.52089261947674e-09,-2.8579786489741e-10)
(0,0,0)
(0,0,0)
(0,0,0)
(0,0,0)
(0,0,0)
(0,0,0)
(1.47371607225372e-12,3.79283672249123e-12,-1.41071274093367e-09)
(2.88057034523808e-12,9.21113989541368e-12,-1.40982564125634e-09)
(3.86935375541781e-12,1.7461441745063e-11,-1.40735243591607e-09)
(4.40609685212168e-12,3.37555813846234e-11,-1.4027888114213e-09)
(5.80451079197673e-12,6.56585255971745e-11,-1.39219306580871e-09)
(8.94171772589471e-12,1.33616688147939e-10,-1.36777673936147e-09)
(1.28377743801355e-11,2.66237053442037e-10,-1.31047165940019e-09)
(1.74452091964486e-11,4.94120125217355e-10,-1.1909703348707e-09)
(2.05108392954627e-11,9.75769874374469e-10,-9.77941245045829e-10)
(2.11434055682565e-11,2.23700777479728e-09,-6.10692974234372e-10)
(0,0,0)
(0,0,0)
(0,0,0)
(0,0,0)
(0,0,0)
(0,0,0)
(1.05381693785316e-12,1.8579610709235e-12,-2.78039583041449e-09)
(1.99103690592778e-12,4.42347809041789e-12,-2.7798293009233e-09)
(2.73827855975057e-12,8.81155038249474e-12,-2.77764529376599e-09)
(3.50537704903923e-12,1.80530831751082e-11,-2.77249391681713e-09)
(5.26285322648569e-12,3.61451396529712e-11,-2.75927369465714e-09)
(8.74384883994989e-12,7.35517859025531e-11,-2.72864519276892e-09)
(1.25705408869369e-11,1.44957679297547e-10,-2.65893743671358e-09)
(1.65851927633817e-11,2.81070390616599e-10,-2.51634477426698e-09)
(2.07479435271529e-11,6.0933689204363e-10,-2.23611567792642e-09)
(2.29282153876702e-11,1.62691011684899e-09,-1.62664822210147e-09)
(0,0,0)
(0,0,0)
(0,0,0)
(0,0,0)
(0,0,0)
(0,0,0)
(0,0,0)
(0,0,0)
(0,0,0)
(0,0,0)
(0,0,0)
(0,0,0)
(0,0,0)
(0,0,0)
(0,0,0)
(0,0,0)
(0,0,0)
(0,0,0)
(0,0,0)
(0,0,0)
(0,0,0)
(0,0,0)
(0,0,0)
(0,0,0)
(0,0,0)
(0,0,0)
(0,0,0)
(0,0,0)
(0,0,0)
(0,0,0)
(0,0,0)
(0,0,0)
(0,0,0)
(0,0,0)
(0,0,0)
(0,0,0)
(0,0,0)
(0,0,0)
(0,0,0)
(0,0,0)
(0,0,0)
(0,0,0)
(0,0,0)
(0,0,0)
(0,0,0)
(0,0,0)
(0,0,0)
(0,0,0)
(0,0,0)
(0,0,0)
(0,0,0)
(0,0,0)
(0,0,0)
(0,0,0)
(0,0,0)
(0,0,0)
(0,0,0)
(0,0,0)
(0,0,0)
(0,0,0)
(0,0,0)
(0,0,0)
(0,0,0)
(0,0,0)
(0,0,0)
(0,0,0)
(0,0,0)
(0,0,0)
(0,0,0)
(0,0,0)
(0,0,0)
(0,0,0)
(0,0,0)
(0,0,0)
(0,0,0)
(0,0,0)
(0,0,0)
(0,0,0)
(0,0,0)
(0,0,0)
(0,0,0)
(0,0,0)
(0,0,0)
(0,0,0)
(0,0,0)
(0,0,0)
(0,0,0)
(0,0,0)
(0,0,0)
(0,0,0)
(0,0,0)
(0,0,0)
(0,0,0)
(0,0,0)
(0,0,0)
(0,0,0)
(0,0,0)
(0,0,0)
(0,0,0)
(0,0,0)
(0,0,0)
(0,0,0)
(-2.86813919567935e-13,3.63878779054167e-11,-3.87909638140747e-11)
(5.85731864145694e-13,7.48790894584671e-11,-3.68946965875429e-11)
(6.17047737665788e-13,1.2238552037195e-10,-3.30821882319453e-11)
(-9.18634175551406e-14,1.8761934137973e-10,-2.68650003180834e-11)
(-5.26449000056648e-13,2.80308179908974e-10,-1.78938606088404e-11)
(-1.02262797874971e-12,4.15367557707979e-10,-7.1513333902453e-12)
(-1.95632548863842e-12,6.13263748333216e-10,1.58987073202942e-12)
(-1.78665531493116e-12,9.00569803774638e-10,4.57413532851889e-12)
(-1.31417209030656e-12,1.31217174875673e-09,3.49616132776858e-12)
(-7.50664555113393e-13,1.81353459393692e-09,1.56524357546829e-12)
(0,0,0)
(0,0,0)
(0,0,0)
(0,0,0)
(0,0,0)
(0,0,0)
(4.43985063847088e-13,3.45822720064139e-11,-8.14478683637736e-11)
(2.22041311240288e-12,7.12680498408459e-11,-7.77135434601333e-11)
(3.47538409949886e-12,1.16892191360888e-10,-7.01562860769171e-11)
(3.2763321677765e-12,1.79334467509674e-10,-5.75982655010889e-11)
(2.52010548371606e-12,2.70589469599738e-10,-3.93127921942905e-11)
(1.18459553213221e-12,4.07928018348e-10,-1.61137060015619e-11)
(-8.08099076086505e-13,6.11685982939288e-10,5.33994257021285e-12)
(-2.58858661522002e-12,9.03281731748558e-10,1.07101172187684e-11)
(-2.57229673772691e-12,1.31552356690862e-09,6.76202370967107e-12)
(-1.35294061653233e-12,1.81627650143148e-09,2.32609927399559e-12)
(0,0,0)
(0,0,0)
(0,0,0)
(0,0,0)
(0,0,0)
(0,0,0)
(2.07878001243316e-12,3.13639621832302e-11,-1.3403930621464e-10)
(4.16487912542679e-12,6.46479524280478e-11,-1.28433535759676e-10)
(5.92624576684074e-12,1.06022527089838e-10,-1.17442693587599e-10)
(7.36174668410171e-12,1.62917054555089e-10,-9.93233591524135e-11)
(8.0958029503168e-12,2.49813415890956e-10,-7.23612551043209e-11)
(7.43280840172805e-12,3.89237566435246e-10,-3.48826275988886e-11)
(5.54901950059226e-12,6.08717784840593e-10,6.22160767972813e-12)
(-1.11102472079058e-12,9.10943926012235e-10,1.09186893380168e-11)
(-2.21325116252598e-12,1.32268997879015e-09,3.35636557849916e-12)
(-6.31948081675783e-13,1.8206023239704e-09,-9.77051030397006e-13)
(0,0,0)
(0,0,0)
(0,0,0)
(0,0,0)
(0,0,0)
(0,0,0)
(3.19251433955766e-12,2.65180783160401e-11,-2.02789383189598e-10)
(6.3391489836495e-12,5.4926134629395e-11,-1.96522190841017e-10)
(9.31140547370318e-12,8.94860116409428e-11,-1.83684225837887e-10)
(1.2571456705479e-11,1.37672721718976e-10,-1.62507287411062e-10)
(1.56616888287269e-11,2.14759510878634e-10,-1.30769272271032e-10)
(1.81437497705966e-11,3.50076309244744e-10,-8.25356458024423e-11)
(1.84631440963017e-11,6.00292516558528e-10,-1.75164746194222e-11)
(5.89573261661145e-13,9.25190939870699e-10,-1.6422359348366e-11)
(-2.13478130412242e-12,1.3324212691963e-09,-2.11070798405061e-11)
(2.81009145137607e-14,1.82345686695052e-09,-1.48141735240261e-11)
(0,0,0)
(0,0,0)
(0,0,0)
(0,0,0)
(0,0,0)
(0,0,0)
(4.13062691053163e-12,2.07944083841188e-11,-2.95193989539485e-10)
(8.19065677462684e-12,4.30716691079666e-11,-2.89182364943246e-10)
(1.27136899344276e-11,6.90667946720416e-11,-2.76957356885334e-10)
(1.72475203475895e-11,1.05814075597123e-10,-2.57888130383101e-10)
(2.31784840945082e-11,1.64646034899367e-10,-2.30888609056039e-10)
(2.76765350511119e-11,2.73679790237115e-10,-1.97644769286169e-10)
(-3.99015568703138e-12,5.31055483327919e-10,-2.00270248726122e-10)
(-4.43184714333074e-12,9.39131882094996e-10,-1.30621418458735e-10)
(-8.76163473622612e-13,1.33517940131475e-09,-9.07572428353695e-11)
(2.96973133658498e-12,1.81451469786965e-09,-4.83545495718575e-11)
(0,0,0)
(0,0,0)
(0,0,0)
(0,0,0)
(0,0,0)
(0,0,0)
(4.61582349867262e-12,1.49122375586198e-11,-4.23190261596783e-10)
(8.943720134119e-12,3.10976508649446e-11,-4.18406119940859e-10)
(1.34405547904765e-11,4.92576419987224e-11,-4.09352655530869e-10)
(1.74670756288286e-11,7.4532627749029e-11,-3.96049440686703e-10)
(2.30011134932234e-11,1.16378864898703e-10,-3.77713052604421e-10)
(2.68748312317252e-11,2.15124897173473e-10,-3.52996103197167e-10)
(5.13674986002008e-12,5.33496943305862e-10,-3.43681913392346e-10)
(1.8959023016255e-12,9.24345874071463e-10,-2.75326192140559e-10)
(5.08478272947238e-12,1.3037062563558e-09,-1.93934930108473e-10)
(8.83059397748981e-12,1.77258808075903e-09,-1.00845322702682e-10)
(0,0,0)
(0,0,0)
(0,0,0)
(0,0,0)
(0,0,0)
(0,0,0)
(4.40698105383902e-12,9.93467947821526e-12,-6.05824465930117e-10)
(8.51765513702192e-12,2.12080895488601e-11,-6.03210307298645e-10)
(1.23102023000192e-11,3.32364135043224e-11,-5.98605170027548e-10)
(1.34631853871588e-11,4.84664927956012e-11,-5.9371755033341e-10)
(9.58639347848545e-12,7.03139488867583e-11,-5.92530754159886e-10)
(-1.1552096053828e-11,1.30700245161112e-10,-5.96102174292764e-10)
(1.01004979160338e-11,4.85802088105264e-10,-5.12863531414619e-10)
(1.01447210485484e-11,8.62772355188711e-10,-4.94936468134946e-10)
(1.15013512758774e-11,1.22016014531461e-09,-3.45382741513062e-10)
(1.38441685994909e-11,1.67776693990504e-09,-1.78227597945557e-10)
(0,0,0)
(0,0,0)
(0,0,0)
(0,0,0)
(0,0,0)
(0,0,0)
(3.07484596477009e-12,6.89100873193126e-12,-8.80310013174976e-10)
(6.58729198357522e-12,1.46723816308064e-11,-8.78849418141038e-10)
(9.80123547111954e-12,2.4136597271867e-11,-8.76408234970262e-10)
(1.08830170536733e-11,3.95678312047023e-11,-8.74727228674544e-10)
(1.02231150926104e-11,7.12331309791544e-11,-8.7621037383664e-10)
(5.54537787321634e-12,1.65285074289227e-10,-8.79727222772151e-10)
(1.23252133746613e-11,4.44055561359777e-10,-8.56446386774369e-10)
(1.4733463253238e-11,7.15250927563763e-10,-7.30217292538946e-10)
(1.64019156953481e-11,1.05638332099583e-09,-5.32951003653302e-10)
(1.75848348692957e-11,1.50264603569478e-09,-2.87586011711808e-10)
(0,0,0)
(0,0,0)
(0,0,0)
(0,0,0)
(0,0,0)
(0,0,0)
(2.52149204579189e-12,4.7750464489066e-12,-1.28305727186998e-09)
(5.19502680966818e-12,9.78267092792474e-12,-1.28193448390107e-09)
(7.95562062443114e-12,1.73922780263649e-11,-1.27976047057841e-09)
(9.51284944852549e-12,3.25132013732057e-11,-1.27657314772189e-09)
(1.09015702894555e-11,6.45735810966738e-11,-1.27026875676547e-09)
(1.17015400099862e-11,1.44049415063062e-10,-1.25323274460727e-09)
(1.46158239955699e-11,3.1299191105816e-10,-1.19835375537473e-09)
(1.74658539706539e-11,5.18134522791336e-10,-1.05330959469611e-09)
(1.96955508161965e-11,8.12356229033483e-10,-8.15364863433264e-10)
(2.05480892817499e-11,1.21631253554026e-09,-4.68046881412985e-10)
(0,0,0)
(0,0,0)
(0,0,0)
(0,0,0)
(0,0,0)
(0,0,0)
(2.34524851636003e-12,2.40020899922767e-12,-1.77784162520795e-09)
(4.23050783911993e-12,4.72499884063833e-12,-1.77674839545932e-09)
(6.39845199347753e-12,9.132795024421e-12,-1.77500329659935e-09)
(8.33823806446086e-12,1.87072025354924e-11,-1.77065500320147e-09)
(1.07794909913486e-11,3.82908585363998e-11,-1.75820752069083e-09)
(1.25878786862657e-11,8.20099817838802e-11,-1.72735394683078e-09)
(1.49355577385626e-11,1.63967332493261e-10,-1.65202386159485e-09)
(1.74264870380207e-11,2.79710422496693e-10,-1.49251873997139e-09)