/*--------------------------------*- C++ -*----------------------------------*\
| =========                 |                                                 |
| \\      /  F ield         | foam-extend: Open Source CFD                    |
|  \\    /   O peration     | Version:     4.0                                |
|   \\  /    A nd           | Web:         http://www.foam-extend.org         |
|    \\/     M anipulation  |                                                 |
\*---------------------------------------------------------------------------*/
FoamFile
{
    version 2.0;
    format ascii;
    class volVectorField;
    location "170";
    object      H;
}
// * * * * * * * * * * * * * * * * * * * * * * * * * * * * * * * * * * * * * //

dimensions      [0 1 -1 0 0 0 0];

internalField   nonuniform List<vector>
4096
(
(0,0,0)
(0,0,0)
(0,0,0)
(0,0,0)
(0,0,0)
(0,0,0)
(0,0,0)
(0,0,0)
(0,0,0)
(0,0,0)
(0,0,0)
(0,0,0)
(0,0,0)
(0,0,0)
(0,0,0)
(0,0,0)
(0,0,0)
(0,0,0)
(0,0,0)
(0,0,0)
(0,0,0)
(0,0,0)
(0,0,0)
(0,0,0)
(0,0,0)
(0,0,0)
(0,0,0)
(0,0,0)
(0,0,0)
(0,0,0)
(0,0,0)
(0,0,0)
(0,0,0)
(0,0,0)
(0,0,0)
(0,0,0)
(0,0,0)
(0,0,0)
(0,0,0)
(0,0,0)
(0,0,0)
(0,0,0)
(0,0,0)
(0,0,0)
(0,0,0)
(0,0,0)
(0,0,0)
(0,0,0)
(0,0,0)
(0,0,0)
(0,0,0)
(0,0,0)
(0,0,0)
(0,0,0)
(0,0,0)
(0,0,0)
(0,0,0)
(0,0,0)
(0,0,0)
(0,0,0)
(0,0,0)
(0,0,0)
(0,0,0)
(0,0,0)
(0,0,0)
(0,0,0)
(0,0,0)
(0,0,0)
(0,0,0)
(0,0,0)
(0,0,0)
(0,0,0)
(0,0,0)
(0,0,0)
(0,0,0)
(0,0,0)
(0,0,0)
(0,0,0)
(0,0,0)
(0,0,0)
(0,0,0)
(0,0,0)
(0,0,0)
(0,0,0)
(0,0,0)
(0,0,0)
(0,0,0)
(0,0,0)
(0,0,0)
(0,0,0)
(0,0,0)
(0,0,0)
(0,0,0)
(0,0,0)
(0,0,0)
(0,0,0)
(0,0,0)
(0,0,0)
(0,0,0)
(0,0,0)
(0,0,0)
(0,0,0)
(0,0,0)
(0,0,0)
(0,0,0)
(0,0,0)
(0,0,0)
(0,0,0)
(0,0,0)
(0,0,0)
(0,0,0)
(0,0,0)
(0,0,0)
(0,0,0)
(0,0,0)
(0,0,0)
(0,0,0)
(0,0,0)
(0,0,0)
(0,0,0)
(0,0,0)
(0,0,0)
(0,0,0)
(0,0,0)
(0,0,0)
(0,0,0)
(0,0,0)
(0,0,0)
(0,0,0)
(0,0,0)
(0,0,0)
(0,0,0)
(0,0,0)
(0,0,0)
(0,0,0)
(0,0,0)
(0,0,0)
(0,0,0)
(0,0,0)
(0,0,0)
(0,0,0)
(0,0,0)
(0,0,0)
(0,0,0)
(0,0,0)
(0,0,0)
(0,0,0)
(0,0,0)
(0,0,0)
(0,0,0)
(0,0,0)
(0,0,0)
(0,0,0)
(0,0,0)
(0,0,0)
(0,0,0)
(0,0,0)
(0,0,0)
(0,0,0)
(0,0,0)
(0,0,0)
(0,0,0)
(0,0,0)
(0,0,0)
(0,0,0)
(0,0,0)
(0,0,0)
(0,0,0)
(0,0,0)
(0,0,0)
(0,0,0)
(0,0,0)
(0,0,0)
(0,0,0)
(0,0,0)
(0,0,0)
(0,0,0)
(0,0,0)
(0,0,0)
(0,0,0)
(0,0,0)
(0,0,0)
(0,0,0)
(0,0,0)
(0,0,0)
(0,0,0)
(0,0,0)
(0,0,0)
(0,0,0)
(0,0,0)
(0,0,0)
(0,0,0)
(0,0,0)
(0,0,0)
(0,0,0)
(0,0,0)
(0,0,0)
(0,0,0)
(0,0,0)
(0,0,0)
(0,0,0)
(0,0,0)
(0,0,0)
(0,0,0)
(0,0,0)
(0,0,0)
(0,0,0)
(0,0,0)
(0,0,0)
(0,0,0)
(0,0,0)
(0,0,0)
(0,0,0)
(0,0,0)
(0,0,0)
(0,0,0)
(0,0,0)
(0,0,0)
(0,0,0)
(0,0,0)
(0,0,0)
(0,0,0)
(0,0,0)
(0,0,0)
(0,0,0)
(0,0,0)
(0,0,0)
(0,0,0)
(0,0,0)
(0,0,0)
(0,0,0)
(0,0,0)
(0,0,0)
(0,0,0)
(0,0,0)
(0,0,0)
(0,0,0)
(0,0,0)
(0,0,0)
(0,0,0)
(0,0,0)
(0,0,0)
(0,0,0)
(0,0,0)
(0,0,0)
(0,0,0)
(0,0,0)
(0,0,0)
(0,0,0)
(0,0,0)
(0,0,0)
(0,0,0)
(0,0,0)
(0,0,0)
(0,0,0)
(0,0,0)
(0,0,0)
(0,0,0)
(0,0,0)
(0,0,0)
(0,0,0)
(0,0,0)
(0,0,0)
(0,0,0)
(0,0,0)
(0,0,0)
(0,0,0)
(0,0,0)
(0,0,0)
(0,0,0)
(0,0,0)
(0,0,0)
(0,0,0)
(0,0,0)
(0,0,0)
(0,0,0)
(0,0,0)
(0,0,0)
(0,0,0)
(0,0,0)
(0,0,0)
(0,0,0)
(0,0,0)
(0,0,0)
(0,0,0)
(0,0,0)
(0,0,0)
(0,0,0)
(0,0,0)
(0,0,0)
(0,0,0)
(0,0,0)
(0,0,0)
(0,0,0)
(0,0,0)
(0,0,0)
(0,0,0)
(0,0,0)
(0,0,0)
(0,0,0)
(0,0,0)
(0,0,0)
(0,0,0)
(0,0,0)
(0,0,0)
(0,0,0)
(0,0,0)
(0,0,0)
(0,0,0)
(0,0,0)
(0,0,0)
(0,0,0)
(0,0,0)
(0,0,0)
(0,0,0)
(0,0,0)
(0,0,0)
(0,0,0)
(0,0,0)
(0,0,0)
(0,0,0)
(0,0,0)
(0,0,0)
(0,0,0)
(0,0,0)
(0,0,0)
(0,0,0)
(0,0,0)
(0,0,0)
(0,0,0)
(0,0,0)
(0,0,0)
(0,0,0)
(0,0,0)
(0,0,0)
(0,0,0)
(0,0,0)
(0,0,0)
(0,0,0)
(0,0,0)
(0,0,0)
(0,0,0)
(0,0,0)
(0,0,0)
(0,0,0)
(0,0,0)
(0,0,0)
(0,0,0)
(0,0,0)
(0,0,0)
(0,0,0)
(0,0,0)
(0,0,0)
(0,0,0)
(0,0,0)
(0,0,0)
(0,0,0)
(0,0,0)
(0,0,0)
(0,0,0)
(0,0,0)
(0,0,0)
(0,0,0)
(0,0,0)
(0,0,0)
(0,0,0)
(0,0,0)
(0,0,0)
(0,0,0)
(0,0,0)
(0,0,0)
(0,0,0)
(0,0,0)
(0,0,0)
(0,0,0)
(0,0,0)
(0,0,0)
(0,0,0)
(0,0,0)
(0,0,0)
(0,0,0)
(0,0,0)
(0,0,0)
(0,0,0)
(0,0,0)
(0,0,0)
(0,0,0)
(0,0,0)
(0,0,0)
(0,0,0)
(0,0,0)
(0,0,0)
(0,0,0)
(0,0,0)
(0,0,0)
(0,0,0)
(0,0,0)
(0,0,0)
(0,0,0)
(0,0,0)
(0,0,0)
(0,0,0)
(0,0,0)
(0,0,0)
(0,0,0)
(0,0,0)
(0,0,0)
(0,0,0)
(0,0,0)
(0,0,0)
(0,0,0)
(0,0,0)
(0,0,0)
(0,0,0)
(0,0,0)
(0,0,0)
(0,0,0)
(0,0,0)
(0,0,0)
(0,0,0)
(0,0,0)
(0,0,0)
(0,0,0)
(0,0,0)
(0,0,0)
(0,0,0)
(0,0,0)
(0,0,0)
(0,0,0)
(0,0,0)
(0,0,0)
(0,0,0)
(0,0,0)
(0,0,0)
(0,0,0)
(0,0,0)
(0,0,0)
(0,0,0)
(0,0,0)
(0,0,0)
(0,0,0)
(0,0,0)
(0,0,0)
(0,0,0)
(0,0,0)
(0,0,0)
(0,0,0)
(0,0,0)
(0,0,0)
(0,0,0)
(0,0,0)
(0,0,0)
(0,0,0)
(0,0,0)
(0,0,0)
(0,0,0)
(0,0,0)
(0,0,0)
(0,0,0)
(0,0,0)
(0,0,0)
(0,0,0)
(0,0,0)
(0,0,0)
(0,0,0)
(0,0,0)
(0,0,0)
(0,0,0)
(0,0,0)
(0,0,0)
(0,0,0)
(0,0,0)
(0,0,0)
(0,0,0)
(0,0,0)
(0,0,0)
(0,0,0)
(0,0,0)
(0,0,0)
(0,0,0)
(0,0,0)
(0,0,0)
(0,0,0)
(0,0,0)
(0,0,0)
(0,0,0)
(0,0,0)
(0,0,0)
(0,0,0)
(0,0,0)
(0,0,0)
(0,0,0)
(0,0,0)
(0,0,0)
(0,0,0)
(0,0,0)
(0,0,0)
(0,0,0)
(0,0,0)
(0,0,0)
(0,0,0)
(0,0,0)
(0,0,0)
(0,0,0)
(0,0,0)
(0,0,0)
(0,0,0)
(0,0,0)
(0,0,0)
(0,0,0)
(0,0,0)
(0,0,0)
(0,0,0)
(0,0,0)
(0,0,0)
(0,0,0)
(0,0,0)
(0,0,0)
(0,0,0)
(0,0,0)
(0,0,0)
(0,0,0)
(0,0,0)
(0,0,0)
(0,0,0)
(0,0,0)
(0,0,0)
(0,0,0)
(0,0,0)
(0,0,0)
(0,0,0)
(0,0,0)
(0,0,0)
(0,0,0)
(0,0,0)
(0,0,0)
(0,0,0)
(0,0,0)
(0,0,0)
(0,0,0)
(0,0,0)
(0,0,0)
(0,0,0)
(0,0,0)
(0,0,0)
(0,0,0)
(0,0,0)
(0,0,0)
(0,0,0)
(0,0,0)
(0,0,0)
(0,0,0)
(0,0,0)
(0,0,0)
(0,0,0)
(0,0,0)
(0,0,0)
(0,0,0)
(0,0,0)
(0,0,0)
(0,0,0)
(0,0,0)
(0,0,0)
(0,0,0)
(0,0,0)
(0,0,0)
(0,0,0)
(0,0,0)
(0,0,0)
(0,0,0)
(0,0,0)
(0,0,0)
(0,0,0)
(0,0,0)
(0,0,0)
(0,0,0)
(0,0,0)
(0,0,0)
(0,0,0)
(0,0,0)
(0,0,0)
(0,0,0)
(0,0,0)
(0,0,0)
(0,0,0)
(0,0,0)
(0,0,0)
(0,0,0)
(0,0,0)
(0,0,0)
(0,0,0)
(0,0,0)
(0,0,0)
(0,0,0)
(0,0,0)
(0,0,0)
(0,0,0)
(0,0,0)
(0,0,0)
(0,0,0)
(0,0,0)
(0,0,0)
(0,0,0)
(0,0,0)
(0,0,0)
(0,0,0)
(0,0,0)
(0,0,0)
(0,0,0)
(0,0,0)
(0,0,0)
(0,0,0)
(0,0,0)
(0,0,0)
(0,0,0)
(0,0,0)
(0,0,0)
(0,0,0)
(0,0,0)
(0,0,0)
(0,0,0)
(0,0,0)
(0,0,0)
(0,0,0)
(0,0,0)
(0,0,0)
(0,0,0)
(0,0,0)
(0,0,0)
(0,0,0)
(0,0,0)
(0,0,0)
(0,0,0)
(0,0,0)
(0,0,0)
(0,0,0)
(0,0,0)
(0,0,0)
(0,0,0)
(0,0,0)
(0,0,0)
(0,0,0)
(0,0,0)
(0,0,0)
(0,0,0)
(0,0,0)
(0,0,0)
(0,0,0)
(0,0,0)
(0,0,0)
(0,0,0)
(0,0,0)
(0,0,0)
(0,0,0)
(0,0,0)
(0,0,0)
(0,0,0)
(0,0,0)
(0,0,0)
(0,0,0)
(0,0,0)
(0,0,0)
(0,0,0)
(0,0,0)
(0,0,0)
(0,0,0)
(0,0,0)
(0,0,0)
(0,0,0)
(0,0,0)
(0,0,0)
(0,0,0)
(0,0,0)
(0,0,0)
(0,0,0)
(0,0,0)
(0,0,0)
(0,0,0)
(0,0,0)
(0,0,0)
(0,0,0)
(0,0,0)
(0,0,0)
(0,0,0)
(0,0,0)
(0,0,0)
(0,0,0)
(0,0,0)
(0,0,0)
(0,0,0)
(0,0,0)
(0,0,0)
(0,0,0)
(0,0,0)
(0,0,0)
(0,0,0)
(0,0,0)
(0,0,0)
(0,0,0)
(0,0,0)
(0,0,0)
(0,0,0)
(0,0,0)
(0,0,0)
(0,0,0)
(0,0,0)
(0,0,0)
(0,0,0)
(0,0,0)
(0,0,0)
(0,0,0)
(0,0,0)
(0,0,0)
(0,0,0)
(0,0,0)
(0,0,0)
(0,0,0)
(0,0,0)
(0,0,0)
(0,0,0)
(0,0,0)
(0,0,0)
(0,0,0)
(0,0,0)
(0,0,0)
(0,0,0)
(0,0,0)
(0,0,0)
(0,0,0)
(0,0,0)
(0,0,0)
(0,0,0)
(0,0,0)
(0,0,0)
(0,0,0)
(0,0,0)
(0,0,0)
(0,0,0)
(0,0,0)
(0,0,0)
(0,0,0)
(0,0,0)
(0,0,0)
(0,0,0)
(0,0,0)
(0,0,0)
(0,0,0)
(0,0,0)
(0,0,0)
(0,0,0)
(0,0,0)
(0,0,0)
(0,0,0)
(0,0,0)
(0,0,0)
(0,0,0)
(0,0,0)
(0,0,0)
(0,0,0)
(0,0,0)
(0,0,0)
(0,0,0)
(0,0,0)
(0,0,0)
(0,0,0)
(0,0,0)
(0,0,0)
(0,0,0)
(0,0,0)
(0,0,0)
(0,0,0)
(0,0,0)
(0,0,0)
(0,0,0)
(0,0,0)
(0,0,0)
(0,0,0)
(0,0,0)
(0,0,0)
(0,0,0)
(0,0,0)
(0,0,0)
(0,0,0)
(0,0,0)
(0,0,0)
(0,0,0)
(0,0,0)
(0,0,0)
(0,0,0)
(0,0,0)
(0,0,0)
(0,0,0)
(0,0,0)
(0,0,0)
(0,0,0)
(0,0,0)
(0,0,0)
(0,0,0)
(0,0,0)
(0,0,0)
(0,0,0)
(0,0,0)
(0,0,0)
(0,0,0)
(0,0,0)
(0,0,0)
(0,0,0)
(0,0,0)
(0,0,0)
(0,0,0)
(0,0,0)
(0,0,0)
(0,0,0)
(0,0,0)
(0,0,0)
(0,0,0)
(0,0,0)
(0,0,0)
(0,0,0)
(5.69776594919309e-13,1.24785281478357e-11,-1.31191546110261e-11)
(-2.58216953293618e-13,2.51360932449272e-11,-1.1832749580304e-11)
(-8.32529633064306e-13,4.11335194880982e-11,-1.05597962922271e-11)
(-1.05005599998554e-12,6.40080735769089e-11,-9.09884142660643e-12)
(-1.44936734958889e-12,1.01128415811153e-10,-7.4252391984758e-12)
(-2.40213170043927e-12,1.61400536407365e-10,-4.93238032797437e-12)
(-2.90792931126179e-12,2.58520259958104e-10,-2.56882375507465e-12)
(-2.70713928146097e-12,4.19867009794337e-10,-1.36234267067491e-12)
(-2.68969551930093e-12,6.85469675009953e-10,-9.12796977044328e-13)
(-2.12282978738003e-12,1.05370846584873e-09,-7.56099142326689e-13)
(0,0,0)
(0,0,0)
(0,0,0)
(0,0,0)
(0,0,0)
(0,0,0)
(3.69878397180838e-14,1.15714053281251e-11,-2.71945115243896e-11)
(-6.35909073293056e-13,2.37709960788127e-11,-2.5511851107854e-11)
(-8.59110158413098e-13,3.91783787189004e-11,-2.31416928882152e-11)
(-5.65108818191406e-13,6.22511812830742e-11,-2.02899788550507e-11)
(-1.21321367552964e-12,9.91424041798216e-11,-1.64499333034379e-11)
(-2.75836871946023e-12,1.59442647624252e-10,-1.16429976628709e-11)
(-3.98647820583157e-12,2.57844251450912e-10,-7.36120235688761e-12)
(-4.30716714821698e-12,4.20017953322838e-10,-4.9086588512312e-12)
(-4.54000381454408e-12,6.85934728247469e-10,-3.52299430573595e-12)
(-4.69598426057697e-12,1.05383059073467e-09,-1.96106118776635e-12)
(0,0,0)
(0,0,0)
(0,0,0)
(0,0,0)
(0,0,0)
(0,0,0)
(4.05091600572573e-13,1.01435833845204e-11,-4.48786043859525e-11)
(1.07726077556508e-13,2.11564917857681e-11,-4.32755483471778e-11)
(6.4024196190456e-14,3.5557010800522e-11,-4.01772352029143e-11)
(4.21339679022693e-13,5.81081541413095e-11,-3.61897641796912e-11)
(-4.19417392500367e-13,9.45136501443329e-11,-3.04964233206657e-11)
(-2.44262452644088e-12,1.54947591528411e-10,-2.33577663083948e-11)
(-4.60913639655823e-12,2.5549275199529e-10,-1.66882755622466e-11)
(-6.98461781477885e-12,4.19489390951455e-10,-1.20861377131104e-11)
(-8.15319959924639e-12,6.85755294407876e-10,-8.66564003673524e-12)
(-8.65343826494972e-12,1.0533624972285e-09,-4.51469479461599e-12)
(0,0,0)
(0,0,0)
(0,0,0)
(0,0,0)
(0,0,0)
(0,0,0)
(7.43621703250978e-13,8.76755903279342e-12,-6.98416954086661e-11)
(6.08802169924186e-13,1.81119337256287e-11,-6.83191671744592e-11)
(1.26059848235129e-12,3.10887513048826e-11,-6.52133159887289e-11)
(1.61648926426402e-12,5.19509208147905e-11,-6.0695748811372e-11)
(8.05866571608148e-13,8.67426358103412e-11,-5.43472067191294e-11)
(-1.59643018605632e-12,1.4684461874852e-10,-4.62053639838563e-11)
(-4.71438799507572e-12,2.49877807405225e-10,-3.76703432756389e-11)
(-8.68840459921243e-12,4.16727125644557e-10,-2.94241055045886e-11)
(-1.11022521106369e-11,6.83286460573744e-10,-2.09508715196888e-11)
(-1.20062849215447e-11,1.05052101705028e-09,-1.11153463572262e-11)
(0,0,0)
(0,0,0)
(0,0,0)
(0,0,0)
(0,0,0)
(0,0,0)
(1.01247395589954e-12,7.29899064225776e-12,-1.06276135327999e-10)
(1.28627079328257e-12,1.50201637834508e-11,-1.0469444990451e-10)
(2.49689785337776e-12,2.62067712338629e-11,-1.02165941975633e-10)
(2.90788097095673e-12,4.45819015545387e-11,-9.82168084711189e-11)
(2.47027202963907e-12,7.65041856509849e-11,-9.25984061854533e-11)
(3.74350512026917e-13,1.34912573144146e-10,-8.53239227016493e-11)
(-4.2179829113228e-12,2.39340810276396e-10,-7.63195293864748e-11)
(-9.37671475143327e-12,4.0926914540286e-10,-6.16540405622188e-11)
(-1.3057869332007e-11,6.75635640021091e-10,-4.38599467731953e-11)
(-1.46548728722237e-11,1.04169968349905e-09,-2.3269384485418e-11)
(0,0,0)
(0,0,0)
(0,0,0)
(0,0,0)
(0,0,0)
(0,0,0)
(2.16137417938186e-12,5.4274685891287e-12,-1.6318701698355e-10)
(3.28107909901707e-12,1.19332813116693e-11,-1.61981978797404e-10)
(4.86386309970426e-12,2.12795172348789e-11,-1.60147128622189e-10)
(5.03845486059343e-12,3.68763753223589e-11,-1.57006441393501e-10)
(4.19490429788526e-12,6.58678544578895e-11,-1.52350801705976e-10)
(2.04279813605957e-12,1.22061490896027e-10,-1.45071594230968e-10)
(-2.24348973762897e-12,2.26269496593935e-10,-1.32961999221531e-10)
(-7.24382435547387e-12,3.94455300521945e-10,-1.1172566337219e-10)
(-1.11778609824531e-11,6.57751602530105e-10,-8.15330508215888e-11)
(-1.28178512297251e-11,1.02107323677896e-09,-4.35045415888638e-11)
(0,0,0)
(0,0,0)
(0,0,0)
(0,0,0)
(0,0,0)
(0,0,0)
(3.5796562171558e-12,3.88851739839354e-12,-2.57102097614558e-10)
(5.8585395380495e-12,9.33122650384557e-12,-2.56176527120735e-10)
(7.72561860949668e-12,1.69247122284715e-11,-2.54642917483154e-10)
(7.23252509848059e-12,2.99434627523214e-11,-2.5206801153058e-10)
(5.82994437738902e-12,5.56214027207276e-11,-2.47983203459439e-10)
(3.70457274031497e-12,1.07403974202746e-10,-2.39648407747765e-10)
(1.13009058781056e-12,2.06819376004072e-10,-2.21744996385525e-10)
(-3.07057845251787e-12,3.67074194130059e-10,-1.91266986570829e-10)
(-6.78508772102139e-12,6.22124481312894e-10,-1.42951458113913e-10)
(-8.48653451626552e-12,9.80015151673775e-10,-7.77376304980549e-11)
(0,0,0)
(0,0,0)
(0,0,0)
(0,0,0)
(0,0,0)
(0,0,0)
(4.46791492439126e-12,2.99090558431788e-12,-4.15120245214621e-10)
(7.68103584114782e-12,7.48701881439769e-12,-4.14444504909306e-10)
(9.92853314629921e-12,1.35270895385009e-11,-4.1285203897428e-10)
(1.00352509552559e-11,2.4340087560191e-11,-4.0991166899851e-10)
(9.40385311660441e-12,4.67199413099253e-11,-4.04792648517281e-10)
(7.96921433146455e-12,9.20929513198296e-11,-3.93920064164672e-10)
(6.01948804003409e-12,1.77654721731577e-10,-3.70452809025282e-10)
(3.04897587937595e-12,3.20149834176634e-10,-3.25647338007871e-10)
(1.81591417374832e-13,5.58430920302931e-10,-2.51570757854305e-10)
(-2.01010287839346e-12,9.04184869138774e-10,-1.42297022517949e-10)
(0,0,0)
(0,0,0)
(0,0,0)
(0,0,0)
(0,0,0)
(0,0,0)
(4.30699196147332e-12,2.49388600942965e-12,-6.78497089954948e-10)
(8.22131029883499e-12,5.58287701087613e-12,-6.77266188421781e-10)
(1.13604774105586e-11,9.63852013214832e-12,-6.75037400738213e-10)
(1.2696867050253e-11,1.78809911170925e-11,-6.7150513748801e-10)
(1.30185813265663e-11,3.51526780600115e-11,-6.64517485983318e-10)
(1.21780022054774e-11,6.93484437366824e-11,-6.49534416723374e-10)
(1.06678230644636e-11,1.33204799363583e-10,-6.18499800620267e-10)
(8.26375618350727e-12,2.4656133209863e-10,-5.5853233031498e-10)
(5.33838031997458e-12,4.50114217648186e-10,-4.51378380856523e-10)
(2.53211345148389e-12,7.63109188299803e-10,-2.70826922092047e-10)
(0,0,0)
(0,0,0)
(0,0,0)
(0,0,0)
(0,0,0)
(0,0,0)
(4.57393128664903e-12,1.39506933652907e-12,-1.04596714597553e-09)
(8.88737460864541e-12,2.91354449705849e-12,-1.04419274457158e-09)
(1.2515592665246e-11,5.03423000482869e-12,-1.04138508512535e-09)
(1.43728911678739e-11,9.60639008498953e-12,-1.03699752196621e-09)
(1.46285449164913e-11,1.91059216261073e-11,-1.02825244776014e-09)
(1.39268445159834e-11,3.75928738401339e-11,-1.01030873204645e-09)
(1.26082394914966e-11,7.27221807359161e-11,-9.73952673475906e-10)
(1.01818590791075e-11,1.39477423161058e-10,-9.02135645318308e-10)
(7.34442567222368e-12,2.70116808912144e-10,-7.62846504088038e-10)
(5.14816196012948e-12,4.92546771963129e-10,-4.92408864382948e-10)
(0,0,0)
(0,0,0)
(0,0,0)
(0,0,0)
(0,0,0)
(0,0,0)
(0,0,0)
(0,0,0)
(0,0,0)
(0,0,0)
(0,0,0)
(0,0,0)
(0,0,0)
(0,0,0)
(0,0,0)
(0,0,0)
(0,0,0)
(0,0,0)
(0,0,0)
(0,0,0)
(0,0,0)
(0,0,0)
(0,0,0)
(0,0,0)
(0,0,0)
(0,0,0)
(0,0,0)
(0,0,0)
(0,0,0)
(0,0,0)
(0,0,0)
(0,0,0)
(0,0,0)
(0,0,0)
(0,0,0)
(0,0,0)
(0,0,0)
(0,0,0)
(0,0,0)
(0,0,0)
(0,0,0)
(0,0,0)
(0,0,0)
(0,0,0)
(0,0,0)
(0,0,0)
(0,0,0)
(0,0,0)
(0,0,0)
(0,0,0)
(0,0,0)
(0,0,0)
(0,0,0)
(0,0,0)
(0,0,0)
(0,0,0)
(0,0,0)
(0,0,0)
(0,0,0)
(0,0,0)
(0,0,0)
(0,0,0)
(0,0,0)
(0,0,0)
(0,0,0)
(0,0,0)
(0,0,0)
(0,0,0)
(0,0,0)
(0,0,0)
(0,0,0)
(0,0,0)
(0,0,0)
(0,0,0)
(0,0,0)
(0,0,0)
(0,0,0)
(0,0,0)
(0,0,0)
(0,0,0)
(0,0,0)
(0,0,0)
(0,0,0)
(0,0,0)
(0,0,0)
(0,0,0)
(0,0,0)
(0,0,0)
(0,0,0)
(0,0,0)
(0,0,0)
(0,0,0)
(0,0,0)
(0,0,0)
(0,0,0)
(0,0,0)
(0,0,0)
(0,0,0)
(0,0,0)
(0,0,0)
(0,0,0)
(0,0,0)
(1.90494383907948e-13,2.16319486591167e-11,-2.28621960463602e-11)
(-1.66073075255874e-13,4.62714521493306e-11,-2.13118186584637e-11)
(-3.38343729487415e-13,7.76992072627282e-11,-1.90534116029519e-11)
(-9.66765934279872e-13,1.19930820397307e-10,-1.59190242004808e-11)
(-1.95621458875769e-12,1.8618671938809e-10,-1.21656614986627e-11)
(-2.80779949022307e-12,2.90480664785688e-10,-7.33794302161615e-12)
(-3.43840188847439e-12,4.57525182987197e-10,-2.93589955714774e-12)
(-3.30762850358404e-12,7.38417049472184e-10,-6.89908901039568e-13)
(-3.31144659155833e-12,1.26766141114844e-09,1.99386900332024e-13)
(-3.00105381570655e-12,2.47402268416929e-09,1.29966931021477e-13)
(0,0,0)
(0,0,0)
(0,0,0)
(0,0,0)
(0,0,0)
(0,0,0)
(-2.17850633212817e-13,2.06023429390187e-11,-5.04255357382706e-11)
(-3.91562999886898e-13,4.40799355762027e-11,-4.78771650620902e-11)
(-8.94562732004429e-14,7.41641684528536e-11,-4.36392730223166e-11)
(-2.62127228039934e-13,1.15879832763184e-10,-3.73729872874698e-11)
(-1.39139528061125e-12,1.8132279869121e-10,-2.87484590865461e-11)
(-2.54510792960877e-12,2.86023006296402e-10,-1.8126938907324e-11)
(-4.08752225586371e-12,4.55568345030106e-10,-8.46153439877267e-12)
(-5.16426932233382e-12,7.38656504003926e-10,-3.91166130664778e-12)
(-5.92250309290565e-12,1.26916555781057e-09,-2.23916748042854e-12)
(-6.18895194217283e-12,2.47553770788403e-09,-1.20254193844705e-12)
(0,0,0)
(0,0,0)
(0,0,0)
(0,0,0)
(0,0,0)
(0,0,0)
(1.78059913524779e-13,1.8483896976409e-11,-8.49598033894173e-11)
(5.39709934322156e-14,3.9830620502797e-11,-8.18044339773686e-11)
(5.44812668606811e-13,6.71773646541801e-11,-7.5682224332718e-11)
(8.85232146515284e-13,1.06732988257577e-10,-6.66591496856065e-11)
(2.12939929222799e-13,1.70492112605414e-10,-5.36127719747491e-11)
(-1.00914249270228e-12,2.76215686949454e-10,-3.71678176204881e-11)
(-3.59632965562722e-12,4.51347701113564e-10,-2.09002662054721e-11)
(-7.64285018423875e-12,7.39126465101868e-10,-1.34020657974967e-11)
(-9.83531100724269e-12,1.27090563666507e-09,-9.88525293860906e-12)
(-1.03266528813488e-11,2.4769644112918e-09,-5.63103559285673e-12)
(0,0,0)
(0,0,0)
(0,0,0)
(0,0,0)
(0,0,0)
(0,0,0)
(6.89661859579831e-13,1.58437486060816e-11,-1.30221958198673e-10)
(5.94720926371684e-13,3.40215370265095e-11,-1.27019380300926e-10)
(1.62501137601438e-12,5.74160958863423e-11,-1.20464941314793e-10)
(2.6369664322734e-12,9.25228163253812e-11,-1.10272748643325e-10)
(2.90247399569408e-12,1.52446665777753e-10,-9.55594653846544e-11)
(1.80059471009998e-12,2.57634633765722e-10,-7.63770087687346e-11)
(-2.42362863729724e-12,4.41058550351709e-10,-5.54097174255781e-11)
(-9.70365834241175e-12,7.37480802286557e-10,-4.26325426344933e-11)
(-1.32869567204414e-11,1.26999351638611e-09,-3.14196654254159e-11)
(-1.43002977275343e-11,2.47467335729239e-09,-1.72124518903543e-11)
(0,0,0)
(0,0,0)
(0,0,0)
(0,0,0)
(0,0,0)
(0,0,0)
(1.3023105855389e-12,1.26716663532671e-11,-1.95520932326097e-10)
(1.84464533618714e-12,2.73430477344827e-11,-1.92329247673006e-10)
(3.47501834784762e-12,4.61541642774958e-11,-1.86537388448472e-10)
(4.99500491747074e-12,7.54105282486552e-11,-1.77726477387332e-10)
(5.83211973893259e-12,1.28571324349925e-10,-1.65507972296891e-10)
(4.22103944496871e-12,2.28421779258372e-10,-1.50710042207024e-10)
(-5.81215805311342e-12,4.16939909890079e-10,-1.37115672595549e-10)
(-1.23569636595432e-11,7.28474498829285e-10,-1.07301996069949e-10)
(-1.57643941287856e-11,1.26037277875336e-09,-7.54700699276539e-11)
(-1.72978106376052e-11,2.46188734136877e-09,-3.97697488080898e-11)
(0,0,0)
(0,0,0)
(0,0,0)
(0,0,0)
(0,0,0)
(0,0,0)
(2.49528718397099e-12,9.24658261513395e-12,-2.94554688926759e-10)
(4.04828373162567e-12,2.08309598787255e-11,-2.92161426658709e-10)
(6.07798087742345e-12,3.54308005100983e-11,-2.87794870249188e-10)
(7.31572774310504e-12,5.8885142179588e-11,-2.81385424935572e-10)
(7.1621485600394e-12,1.05046534644717e-10,-2.72607477085909e-10)
(4.59071981990444e-12,2.00881044693157e-10,-2.59950905788011e-10)
(-4.02970499710947e-12,3.98086516756629e-10,-2.414160294162e-10)
(-1.00553305141904e-11,7.06652740937671e-10,-2.01450960127761e-10)
(-1.35792489979705e-11,1.23136924599735e-09,-1.45189007327573e-10)
(-1.52643077134049e-11,2.42705467987601e-09,-7.65666779733423e-11)
(0,0,0)
(0,0,0)
(0,0,0)
(0,0,0)
(0,0,0)
(0,0,0)
(3.55169753740889e-12,6.81401705034032e-12,-4.53575642421577e-10)
(6.16913758991645e-12,1.55914105046963e-11,-4.51811231258713e-10)
(8.54833534689265e-12,2.64302381206147e-11,-4.48780040160341e-10)
(8.75109221947072e-12,4.47995394432903e-11,-4.44922528758151e-10)
(6.39661007651625e-12,8.32688214944323e-11,-4.39977303413691e-10)
(1.11218426099182e-12,1.69341734631039e-10,-4.29389035041469e-10)
(-1.83264954392819e-13,3.64622806077133e-10,-3.95673245301671e-10)
(-4.46174695600334e-12,6.5881224170602e-10,-3.46616142098407e-10)
(-8.30535432691823e-12,1.16843735259949e-09,-2.55700973951808e-10)
(-1.03938824792967e-11,2.35455420106171e-09,-1.37446054253558e-10)
(0,0,0)
(0,0,0)
(0,0,0)
(0,0,0)
(0,0,0)
(0,0,0)
(4.28919419396445e-12,5.37927191654608e-12,-7.2699744730046e-10)
(7.99271170964391e-12,1.221005151477e-11,-7.25593090718529e-10)
(1.08767325768815e-11,2.04496913679775e-11,-7.2278492590043e-10)
(1.13753269171257e-11,3.61588483606881e-11,-7.19057520001829e-10)
(1.00985320139088e-11,7.16609897210402e-11,-7.13588218546829e-10)
(7.24646677522147e-12,1.51388322174323e-10,-7.00363391347373e-10)
(5.66393939062031e-12,3.1574954418122e-10,-6.63320795704524e-10)
(2.56089780381217e-12,5.70273294454801e-10,-5.81939742712096e-10)
(-7.75441264240298e-13,1.05279978303584e-09,-4.47215913548562e-10)
(-3.23144455738718e-12,2.21938843815899e-09,-2.53512010708128e-10)
(0,0,0)
(0,0,0)
(0,0,0)
(0,0,0)
(0,0,0)
(0,0,0)
(4.17490710120752e-12,4.30028718301542e-12,-1.25213284040655e-09)
(8.66185512908444e-12,9.16770087328312e-12,-1.25025395661352e-09)
(1.2432504287675e-11,1.48674782221432e-11,-1.24658063211983e-09)
(1.39838165776642e-11,2.74824631489949e-11,-1.24141875650992e-09)
(1.40822685005265e-11,5.59506921964863e-11,-1.23184790157741e-09)
(1.28989559989193e-11,1.16765209388215e-10,-1.20966406732412e-09)
(1.11829713868431e-11,2.34385350884225e-10,-1.158240959715e-09)
(8.19371566262194e-12,4.36376970077341e-10,-1.05191914678946e-09)
(4.78433029153682e-12,8.60615291647674e-10,-8.63219557590411e-10)
(2.26760769613925e-12,1.96725204715013e-09,-5.38571173856191e-10)
(0,0,0)
(0,0,0)
(0,0,0)
(0,0,0)
(0,0,0)
(0,0,0)
(4.19459921923193e-12,2.36737661060371e-12,-2.45766455603634e-09)
(8.99325965947246e-12,5.0096016182279e-12,-2.45517122255045e-09)
(1.31622595109339e-11,7.95447719399286e-12,-2.45030785617532e-09)
(1.5234207046789e-11,1.51404147765683e-11,-2.44362349027288e-09)
(1.57907508289151e-11,3.10943980031954e-11,-2.43077009616795e-09)
(1.51636597855704e-11,6.40854527182199e-11,-2.40207280708831e-09)
(1.35133920698148e-11,1.274793779252e-10,-2.33980980355377e-09)
(1.03701410098942e-11,2.47828298154037e-10,-2.21327974966894e-09)
(7.02359487927913e-12,5.36575093724168e-10,-1.96568710654414e-09)
(5.28606954031352e-12,1.42890027957627e-09,-1.42891659982619e-09)
(0,0,0)
(0,0,0)
(0,0,0)
(0,0,0)
(0,0,0)
(0,0,0)
(0,0,0)
(0,0,0)
(0,0,0)
(0,0,0)
(0,0,0)
(0,0,0)
(0,0,0)
(0,0,0)
(0,0,0)
(0,0,0)
(0,0,0)
(0,0,0)
(0,0,0)
(0,0,0)
(0,0,0)
(0,0,0)
(0,0,0)
(0,0,0)
(0,0,0)
(0,0,0)
(0,0,0)
(0,0,0)
(0,0,0)
(0,0,0)
(0,0,0)
(0,0,0)
(0,0,0)
(0,0,0)
(0,0,0)
(0,0,0)
(0,0,0)
(0,0,0)
(0,0,0)
(0,0,0)
(0,0,0)
(0,0,0)
(0,0,0)
(0,0,0)
(0,0,0)
(0,0,0)
(0,0,0)
(0,0,0)
(0,0,0)
(0,0,0)
(0,0,0)
(0,0,0)
(0,0,0)
(0,0,0)
(0,0,0)
(0,0,0)
(0,0,0)
(0,0,0)
(0,0,0)
(0,0,0)
(0,0,0)
(0,0,0)
(0,0,0)
(0,0,0)
(0,0,0)
(0,0,0)
(0,0,0)
(0,0,0)
(0,0,0)
(0,0,0)
(0,0,0)
(0,0,0)
(0,0,0)
(0,0,0)
(0,0,0)
(0,0,0)
(0,0,0)
(0,0,0)
(0,0,0)
(0,0,0)
(0,0,0)
(0,0,0)
(0,0,0)
(0,0,0)
(0,0,0)
(0,0,0)
(0,0,0)
(0,0,0)
(0,0,0)
(0,0,0)
(0,0,0)
(0,0,0)
(0,0,0)
(0,0,0)
(0,0,0)
(0,0,0)
(0,0,0)
(0,0,0)
(0,0,0)
(0,0,0)
(0,0,0)
(0,0,0)
(-3.30277283893996e-13,3.06898338516497e-11,-3.35768347886266e-11)
(-2.32963557666011e-13,6.34148238911926e-11,-3.15140790902359e-11)
(6.23076779226523e-14,1.03739509554146e-10,-2.81289429859284e-11)
(-6.69141001935801e-13,1.5916784590712e-10,-2.33392110358965e-11)
(-1.92001236892976e-12,2.41163052642824e-10,-1.68293269235602e-11)
(-2.75218446551809e-12,3.64058255006721e-10,-8.33823156622787e-12)
(-3.727554587434e-12,5.44707282724579e-10,-1.8393615190871e-13)
(-4.43637883665525e-12,8.03794334914308e-10,3.05462444740312e-12)
(-4.74617328438858e-12,1.16766404097796e-09,3.01426687341512e-12)
(-4.38611059938783e-12,1.60743326643859e-09,1.60705760695255e-12)
(0,0,0)
(0,0,0)
(0,0,0)
(0,0,0)
(0,0,0)
(0,0,0)
(-6.47775346832772e-13,2.87392386717804e-11,-7.13828842489029e-11)
(-3.80139966245852e-13,6.01135834064039e-11,-6.79191172012143e-11)
(6.31061790608637e-13,9.91090011641822e-11,-6.1307540223177e-11)
(2.60189076633616e-13,1.52923961767559e-10,-5.1051511130097e-11)
(-1.18222937399484e-12,2.33388763810095e-10,-3.65427214327793e-11)
(-2.40319309124991e-12,3.57431960321848e-10,-1.74080343411664e-11)
(-4.41675143140558e-12,5.43413729513458e-10,1.7865987408166e-12)
(-7.30672424652884e-12,8.06438285380722e-10,7.18054319252588e-12)
(-8.69920748936841e-12,1.17161391437859e-09,5.29387444101113e-12)
(-8.81819728838604e-12,1.6113166549389e-09,2.33404236413978e-12)
(0,0,0)
(0,0,0)
(0,0,0)
(0,0,0)
(0,0,0)
(0,0,0)
(-3.37161128177119e-13,2.53953492723782e-11,-1.17168596221379e-10)
(-2.59155174924995e-13,5.36646081373758e-11,-1.12833390584146e-10)
(1.28300678925539e-12,8.90773207641735e-11,-1.03598068057607e-10)
(2.04902636794598e-12,1.3886647114392e-10,-8.86744638442516e-11)
(1.81343240264345e-12,2.15595824021558e-10,-6.61441851206402e-11)
(1.30435927600555e-12,3.41172225863614e-10,-3.39899630103719e-11)
(-8.05379301778128e-13,5.41404048322355e-10,2.64966091531301e-12)
(-9.51400022781379e-12,8.13746608784608e-10,7.12755120834212e-12)
(-1.3177408074048e-11,1.17958163581022e-09,1.69624567929637e-12)
(-1.36666344747964e-11,1.61788651552181e-09,-9.24672072998331e-13)
(0,0,0)
(0,0,0)
(0,0,0)
(0,0,0)
(0,0,0)
(0,0,0)
(6.59166214660969e-13,2.13168422614775e-11,-1.75693819194338e-10)
(7.18771232255055e-13,4.47111684561486e-11,-1.71387423921897e-10)
(2.6947503133616e-12,7.42124081549144e-11,-1.6163305909499e-10)
(5.03597125037827e-12,1.16316787311658e-10,-1.44881370854777e-10)
(7.5953588076107e-12,1.84183991053596e-10,-1.18339224289535e-10)
(1.00461578743113e-11,3.05823268923984e-10,-7.6784722503978e-11)
(8.91783703322759e-12,5.33618577920647e-10,-1.96452814846291e-11)
(-1.19102320942038e-11,8.26715697626528e-10,-1.91401797664412e-11)
(-1.78734326227689e-11,1.18944295310605e-09,-2.19994552533723e-11)
(-1.8726733694252e-11,1.62282836561548e-09,-1.45508832210871e-11)
(0,0,0)
(0,0,0)
(0,0,0)
(0,0,0)
(0,0,0)
(0,0,0)
(1.53570967057169e-12,1.70348069557913e-11,-2.56841033347053e-10)
(2.56487396741276e-12,3.47392180021451e-11,-2.52583030804574e-10)
(5.38747105411021e-12,5.66599630519581e-11,-2.43956858746626e-10)
(9.30188589612655e-12,8.78866666603081e-11,-2.295663340752e-10)
(1.45589793542873e-11,1.39010795804346e-10,-2.07896677685106e-10)
(1.81674043986704e-11,2.36171168401522e-10,-1.8142290467717e-10)
(-1.67724414452824e-11,4.66302269886548e-10,-1.91107076266058e-10)
(-2.23671319102058e-11,8.37993134685961e-10,-1.25546707239811e-10)
(-2.2461182492324e-11,1.19178687781366e-09,-8.59723287162837e-11)
(-2.22348979529469e-11,1.61536615079541e-09,-4.54021174469206e-11)
(0,0,0)
(0,0,0)
(0,0,0)
(0,0,0)
(0,0,0)
(0,0,0)
(2.53459048068443e-12,1.27114197094547e-11,-3.72158527774238e-10)
(4.92127669621479e-12,2.53296684500359e-11,-3.68642584727198e-10)
(8.66909795328218e-12,3.98986910244668e-11,-3.62083576561857e-10)
(1.26233826297571e-11,6.01850091886625e-11,-3.52404468131597e-10)
(1.62832904123795e-11,9.62439125238565e-11,-3.3899230198971e-10)
(1.75951535102118e-11,1.84749119661639e-10,-3.21071731982141e-10)
(-1.05310636060824e-11,4.72240566128337e-10,-3.21297793085689e-10)
(-1.84767840827141e-11,8.26621283415519e-10,-2.55759209442544e-10)
(-1.92696849542707e-11,1.16355759007375e-09,-1.78737067195658e-10)
(-1.93305068724974e-11,1.57678556253749e-09,-9.25169335962569e-11)
(0,0,0)
(0,0,0)
(0,0,0)
(0,0,0)
(0,0,0)
(0,0,0)
(3.22203150835634e-12,9.10390985910147e-12,-5.39431131134674e-10)
(6.51930548148e-12,1.74969925819619e-11,-5.37129544088014e-10)
(1.06713706973462e-11,2.6436588926259e-11,-5.3358957778666e-10)
(1.24465579576191e-11,3.76244150485332e-11,-5.30432984285778e-10)
(7.41617347763961e-12,5.59082455939277e-11,-5.31260242607256e-10)
(-1.46501930220707e-11,1.10255701652509e-10,-5.37680340578277e-10)
(-3.67106261736972e-13,4.36568387492002e-10,-4.66505201826324e-10)
(-6.83796785139624e-12,7.72579151794678e-10,-4.50448559640213e-10)
(-1.0922704461487e-11,1.08736868271265e-09,-3.13375532845911e-10)
(-1.26741738301425e-11,1.48951332678788e-09,-1.61259218748125e-10)
(0,0,0)
(0,0,0)
(0,0,0)
(0,0,0)
(0,0,0)
(0,0,0)
(3.96382234554424e-12,6.4967951871563e-12,-7.86837124955288e-10)
(8.2268975331084e-12,1.25225932531652e-11,-7.85066177385878e-10)
(1.27315398240723e-11,1.92687060648391e-11,-7.82341156960055e-10)
(1.45824106738401e-11,3.04311161278754e-11,-7.80601579776458e-10)
(1.25840023389658e-11,5.81096589871196e-11,-7.82698424352023e-10)
(4.8269839184991e-12,1.42798277367552e-10,-7.87473015203183e-10)
(5.64707969519145e-12,3.95444497691582e-10,-7.67978078714804e-10)
(1.73339301773131e-12,6.37161635665116e-10,-6.53958479136435e-10)
(-2.29485271651456e-12,9.3803203259848e-10,-4.76236006353325e-10)
(-4.60706425664839e-12,1.33025175058563e-09,-2.56407828021529e-10)
(0,0,0)
(0,0,0)
(0,0,0)
(0,0,0)
(0,0,0)
(0,0,0)
(4.22893388064989e-12,4.55224320525006e-12,-1.14476750394743e-09)
(9.14662989043008e-12,8.87117040215985e-12,-1.14271252866144e-09)
(1.41836297059363e-11,1.42317715791516e-11,-1.13894267759472e-09)
(1.67550100175795e-11,2.5696770921357e-11,-1.13476365358543e-09)
(1.67547284405179e-11,5.41437399070162e-11,-1.12914812292319e-09)
(1.41556050597832e-11,1.25275567831124e-10,-1.11399266329375e-09)
(1.176713142033e-11,2.7712410562367e-10,-1.06489745561304e-09)
(8.04279838685281e-12,4.59387285460339e-10,-9.34714758818114e-10)
(4.1761444808513e-12,7.18965876672164e-10,-7.2267514252348e-10)
(2.04820141380763e-12,1.07430923564092e-09,-4.14406331166388e-10)
(0,0,0)
(0,0,0)
(0,0,0)
(0,0,0)
(0,0,0)
(0,0,0)
(4.06864234387205e-12,2.38769814203462e-12,-1.58323420836876e-09)
(9.13949490256893e-12,4.78861167769053e-12,-1.58064398790958e-09)
(1.44323708024959e-11,7.8935142478896e-12,-1.57541724915576e-09)
(1.75212277184857e-11,1.51878035101631e-11,-1.56870081016915e-09)
(1.81878597524325e-11,3.25651818912338e-11,-1.55721639316319e-09)
(1.69861089692565e-11,7.14379794653825e-11,-1.52933998918312e-09)
(1.44627161101647e-11,1.44932477908994e-10,-1.4616656876779e-09)