/*--------------------------------*- C++ -*----------------------------------*\
| =========                 |                                                 |
| \\      /  F ield         | foam-extend: Open Source CFD                    |
|  \\    /   O peration     | Version:     4.0                                |
|   \\  /    A nd           | Web:         http://www.foam-extend.org         |
|    \\/     M anipulation  |                                                 |
\*---------------------------------------------------------------------------*/
FoamFile
{
    version 2.0;
    format ascii;
    class volVectorField;
    location "292";
    object      H;
}
// * * * * * * * * * * * * * * * * * * * * * * * * * * * * * * * * * * * * * //

dimensions      [0 1 -1 0 0 0 0];

internalField   nonuniform List<vector>
4096
(
(0,0,0)
(0,0,0)
(0,0,0)
(0,0,0)
(0,0,0)
(0,0,0)
(0,0,0)
(0,0,0)
(0,0,0)
(0,0,0)
(0,0,0)
(0,0,0)
(0,0,0)
(0,0,0)
(0,0,0)
(0,0,0)
(0,0,0)
(0,0,0)
(0,0,0)
(0,0,0)
(0,0,0)
(0,0,0)
(0,0,0)
(0,0,0)
(0,0,0)
(0,0,0)
(0,0,0)
(0,0,0)
(0,0,0)
(0,0,0)
(0,0,0)
(0,0,0)
(0,0,0)
(0,0,0)
(0,0,0)
(0,0,0)
(0,0,0)
(0,0,0)
(0,0,0)
(0,0,0)
(0,0,0)
(0,0,0)
(0,0,0)
(0,0,0)
(0,0,0)
(0,0,0)
(0,0,0)
(0,0,0)
(0,0,0)
(0,0,0)
(0,0,0)
(0,0,0)
(0,0,0)
(0,0,0)
(0,0,0)
(0,0,0)
(0,0,0)
(0,0,0)
(0,0,0)
(0,0,0)
(0,0,0)
(0,0,0)
(0,0,0)
(0,0,0)
(0,0,0)
(0,0,0)
(0,0,0)
(0,0,0)
(0,0,0)
(0,0,0)
(0,0,0)
(0,0,0)
(0,0,0)
(0,0,0)
(0,0,0)
(0,0,0)
(0,0,0)
(0,0,0)
(0,0,0)
(0,0,0)
(0,0,0)
(0,0,0)
(0,0,0)
(0,0,0)
(0,0,0)
(0,0,0)
(0,0,0)
(0,0,0)
(0,0,0)
(0,0,0)
(0,0,0)
(0,0,0)
(0,0,0)
(0,0,0)
(0,0,0)
(0,0,0)
(0,0,0)
(0,0,0)
(0,0,0)
(0,0,0)
(0,0,0)
(0,0,0)
(0,0,0)
(0,0,0)
(0,0,0)
(0,0,0)
(0,0,0)
(0,0,0)
(0,0,0)
(0,0,0)
(0,0,0)
(0,0,0)
(0,0,0)
(0,0,0)
(0,0,0)
(0,0,0)
(0,0,0)
(0,0,0)
(0,0,0)
(0,0,0)
(0,0,0)
(0,0,0)
(0,0,0)
(0,0,0)
(0,0,0)
(0,0,0)
(0,0,0)
(0,0,0)
(0,0,0)
(0,0,0)
(0,0,0)
(0,0,0)
(0,0,0)
(0,0,0)
(0,0,0)
(0,0,0)
(0,0,0)
(0,0,0)
(0,0,0)
(0,0,0)
(0,0,0)
(0,0,0)
(0,0,0)
(0,0,0)
(0,0,0)
(0,0,0)
(0,0,0)
(0,0,0)
(0,0,0)
(0,0,0)
(0,0,0)
(0,0,0)
(0,0,0)
(0,0,0)
(0,0,0)
(0,0,0)
(0,0,0)
(0,0,0)
(0,0,0)
(0,0,0)
(0,0,0)
(0,0,0)
(0,0,0)
(0,0,0)
(0,0,0)
(0,0,0)
(0,0,0)
(0,0,0)
(0,0,0)
(0,0,0)
(0,0,0)
(0,0,0)
(0,0,0)
(0,0,0)
(0,0,0)
(0,0,0)
(0,0,0)
(0,0,0)
(0,0,0)
(0,0,0)
(0,0,0)
(0,0,0)
(0,0,0)
(0,0,0)
(0,0,0)
(0,0,0)
(0,0,0)
(0,0,0)
(0,0,0)
(0,0,0)
(0,0,0)
(0,0,0)
(0,0,0)
(0,0,0)
(0,0,0)
(0,0,0)
(0,0,0)
(0,0,0)
(0,0,0)
(0,0,0)
(0,0,0)
(0,0,0)
(0,0,0)
(0,0,0)
(0,0,0)
(0,0,0)
(0,0,0)
(0,0,0)
(0,0,0)
(0,0,0)
(0,0,0)
(0,0,0)
(0,0,0)
(0,0,0)
(0,0,0)
(0,0,0)
(0,0,0)
(0,0,0)
(0,0,0)
(0,0,0)
(0,0,0)
(0,0,0)
(0,0,0)
(0,0,0)
(0,0,0)
(0,0,0)
(0,0,0)
(0,0,0)
(0,0,0)
(0,0,0)
(0,0,0)
(0,0,0)
(0,0,0)
(0,0,0)
(0,0,0)
(0,0,0)
(0,0,0)
(0,0,0)
(0,0,0)
(0,0,0)
(0,0,0)
(0,0,0)
(0,0,0)
(0,0,0)
(0,0,0)
(0,0,0)
(0,0,0)
(0,0,0)
(0,0,0)
(0,0,0)
(0,0,0)
(0,0,0)
(0,0,0)
(0,0,0)
(0,0,0)
(0,0,0)
(0,0,0)
(0,0,0)
(0,0,0)
(0,0,0)
(0,0,0)
(0,0,0)
(0,0,0)
(0,0,0)
(0,0,0)
(0,0,0)
(0,0,0)
(0,0,0)
(0,0,0)
(0,0,0)
(0,0,0)
(0,0,0)
(0,0,0)
(0,0,0)
(0,0,0)
(0,0,0)
(0,0,0)
(0,0,0)
(0,0,0)
(0,0,0)
(0,0,0)
(0,0,0)
(0,0,0)
(0,0,0)
(0,0,0)
(0,0,0)
(0,0,0)
(0,0,0)
(0,0,0)
(0,0,0)
(0,0,0)
(0,0,0)
(0,0,0)
(0,0,0)
(0,0,0)
(0,0,0)
(0,0,0)
(0,0,0)
(0,0,0)
(0,0,0)
(0,0,0)
(0,0,0)
(0,0,0)
(0,0,0)
(0,0,0)
(0,0,0)
(0,0,0)
(0,0,0)
(0,0,0)
(0,0,0)
(0,0,0)
(0,0,0)
(0,0,0)
(0,0,0)
(0,0,0)
(0,0,0)
(0,0,0)
(0,0,0)
(0,0,0)
(0,0,0)
(0,0,0)
(0,0,0)
(0,0,0)
(0,0,0)
(0,0,0)
(0,0,0)
(0,0,0)
(0,0,0)
(0,0,0)
(0,0,0)
(0,0,0)
(0,0,0)
(0,0,0)
(0,0,0)
(0,0,0)
(0,0,0)
(0,0,0)
(0,0,0)
(0,0,0)
(0,0,0)
(0,0,0)
(0,0,0)
(0,0,0)
(0,0,0)
(0,0,0)
(0,0,0)
(0,0,0)
(0,0,0)
(0,0,0)
(0,0,0)
(0,0,0)
(0,0,0)
(0,0,0)
(0,0,0)
(0,0,0)
(0,0,0)
(0,0,0)
(0,0,0)
(0,0,0)
(0,0,0)
(0,0,0)
(0,0,0)
(0,0,0)
(0,0,0)
(0,0,0)
(0,0,0)
(0,0,0)
(0,0,0)
(0,0,0)
(0,0,0)
(0,0,0)
(0,0,0)
(0,0,0)
(0,0,0)
(0,0,0)
(0,0,0)
(0,0,0)
(0,0,0)
(0,0,0)
(0,0,0)
(0,0,0)
(0,0,0)
(0,0,0)
(0,0,0)
(0,0,0)
(0,0,0)
(0,0,0)
(0,0,0)
(0,0,0)
(0,0,0)
(0,0,0)
(0,0,0)
(0,0,0)
(0,0,0)
(0,0,0)
(0,0,0)
(0,0,0)
(0,0,0)
(0,0,0)
(0,0,0)
(0,0,0)
(0,0,0)
(0,0,0)
(0,0,0)
(0,0,0)
(0,0,0)
(0,0,0)
(0,0,0)
(0,0,0)
(0,0,0)
(0,0,0)
(0,0,0)
(0,0,0)
(0,0,0)
(0,0,0)
(0,0,0)
(0,0,0)
(0,0,0)
(0,0,0)
(0,0,0)
(0,0,0)
(0,0,0)
(0,0,0)
(0,0,0)
(0,0,0)
(0,0,0)
(0,0,0)
(0,0,0)
(0,0,0)
(0,0,0)
(0,0,0)
(0,0,0)
(0,0,0)
(0,0,0)
(0,0,0)
(0,0,0)
(0,0,0)
(0,0,0)
(0,0,0)
(0,0,0)
(0,0,0)
(0,0,0)
(0,0,0)
(0,0,0)
(0,0,0)
(0,0,0)
(0,0,0)
(0,0,0)
(0,0,0)
(0,0,0)
(0,0,0)
(0,0,0)
(0,0,0)
(0,0,0)
(0,0,0)
(0,0,0)
(0,0,0)
(0,0,0)
(0,0,0)
(0,0,0)
(0,0,0)
(0,0,0)
(0,0,0)
(0,0,0)
(0,0,0)
(0,0,0)
(0,0,0)
(0,0,0)
(0,0,0)
(0,0,0)
(0,0,0)
(0,0,0)
(0,0,0)
(0,0,0)
(0,0,0)
(0,0,0)
(0,0,0)
(0,0,0)
(0,0,0)
(0,0,0)
(0,0,0)
(0,0,0)
(0,0,0)
(0,0,0)
(0,0,0)
(0,0,0)
(0,0,0)
(0,0,0)
(0,0,0)
(0,0,0)
(0,0,0)
(0,0,0)
(0,0,0)
(0,0,0)
(0,0,0)
(0,0,0)
(0,0,0)
(0,0,0)
(0,0,0)
(0,0,0)
(0,0,0)
(0,0,0)
(0,0,0)
(0,0,0)
(0,0,0)
(0,0,0)
(0,0,0)
(0,0,0)
(0,0,0)
(0,0,0)
(0,0,0)
(0,0,0)
(0,0,0)
(0,0,0)
(0,0,0)
(0,0,0)
(0,0,0)
(0,0,0)
(0,0,0)
(0,0,0)
(0,0,0)
(0,0,0)
(0,0,0)
(0,0,0)
(0,0,0)
(0,0,0)
(0,0,0)
(0,0,0)
(0,0,0)
(0,0,0)
(0,0,0)
(0,0,0)
(0,0,0)
(0,0,0)
(0,0,0)
(0,0,0)
(0,0,0)
(0,0,0)
(0,0,0)
(0,0,0)
(0,0,0)
(0,0,0)
(0,0,0)
(0,0,0)
(0,0,0)
(0,0,0)
(0,0,0)
(0,0,0)
(0,0,0)
(0,0,0)
(0,0,0)
(0,0,0)
(0,0,0)
(0,0,0)
(0,0,0)
(0,0,0)
(0,0,0)
(0,0,0)
(0,0,0)
(0,0,0)
(0,0,0)
(0,0,0)
(0,0,0)
(0,0,0)
(0,0,0)
(0,0,0)
(0,0,0)
(0,0,0)
(0,0,0)
(0,0,0)
(0,0,0)
(0,0,0)
(0,0,0)
(0,0,0)
(0,0,0)
(0,0,0)
(0,0,0)
(0,0,0)
(0,0,0)
(0,0,0)
(0,0,0)
(0,0,0)
(0,0,0)
(0,0,0)
(0,0,0)
(0,0,0)
(0,0,0)
(0,0,0)
(0,0,0)
(0,0,0)
(0,0,0)
(0,0,0)
(0,0,0)
(0,0,0)
(0,0,0)
(0,0,0)
(0,0,0)
(0,0,0)
(0,0,0)
(0,0,0)
(0,0,0)
(0,0,0)
(0,0,0)
(0,0,0)
(0,0,0)
(0,0,0)
(0,0,0)
(0,0,0)
(0,0,0)
(0,0,0)
(0,0,0)
(0,0,0)
(0,0,0)
(0,0,0)
(0,0,0)
(0,0,0)
(0,0,0)
(0,0,0)
(0,0,0)
(0,0,0)
(0,0,0)
(0,0,0)
(0,0,0)
(0,0,0)
(0,0,0)
(0,0,0)
(0,0,0)
(0,0,0)
(0,0,0)
(0,0,0)
(0,0,0)
(0,0,0)
(0,0,0)
(0,0,0)
(0,0,0)
(0,0,0)
(0,0,0)
(0,0,0)
(0,0,0)
(0,0,0)
(0,0,0)
(0,0,0)
(0,0,0)
(0,0,0)
(0,0,0)
(0,0,0)
(0,0,0)
(0,0,0)
(0,0,0)
(0,0,0)
(0,0,0)
(0,0,0)
(0,0,0)
(0,0,0)
(0,0,0)
(0,0,0)
(0,0,0)
(0,0,0)
(0,0,0)
(0,0,0)
(0,0,0)
(0,0,0)
(0,0,0)
(0,0,0)
(0,0,0)
(0,0,0)
(0,0,0)
(0,0,0)
(0,0,0)
(0,0,0)
(0,0,0)
(0,0,0)
(0,0,0)
(0,0,0)
(0,0,0)
(0,0,0)
(0,0,0)
(0,0,0)
(0,0,0)
(0,0,0)
(0,0,0)
(0,0,0)
(0,0,0)
(0,0,0)
(0,0,0)
(0,0,0)
(0,0,0)
(0,0,0)
(0,0,0)
(0,0,0)
(0,0,0)
(0,0,0)
(0,0,0)
(0,0,0)
(0,0,0)
(0,0,0)
(0,0,0)
(0,0,0)
(0,0,0)
(0,0,0)
(0,0,0)
(0,0,0)
(0,0,0)
(0,0,0)
(0,0,0)
(0,0,0)
(0,0,0)
(0,0,0)
(0,0,0)
(0,0,0)
(0,0,0)
(0,0,0)
(0,0,0)
(0,0,0)
(0,0,0)
(0,0,0)
(0,0,0)
(0,0,0)
(0,0,0)
(0,0,0)
(0,0,0)
(0,0,0)
(0,0,0)
(0,0,0)
(0,0,0)
(0,0,0)
(0,0,0)
(0,0,0)
(0,0,0)
(0,0,0)
(0,0,0)
(0,0,0)
(0,0,0)
(0,0,0)
(0,0,0)
(0,0,0)
(0,0,0)
(0,0,0)
(0,0,0)
(0,0,0)
(0,0,0)
(0,0,0)
(0,0,0)
(0,0,0)
(0,0,0)
(0,0,0)
(0,0,0)
(0,0,0)
(0,0,0)
(0,0,0)
(0,0,0)
(0,0,0)
(0,0,0)
(0,0,0)
(0,0,0)
(0,0,0)
(0,0,0)
(0,0,0)
(0,0,0)
(0,0,0)
(0,0,0)
(0,0,0)
(0,0,0)
(0,0,0)
(0,0,0)
(0,0,0)
(0,0,0)
(0,0,0)
(0,0,0)
(0,0,0)
(0,0,0)
(0,0,0)
(0,0,0)
(0,0,0)
(0,0,0)
(0,0,0)
(0,0,0)
(0,0,0)
(0,0,0)
(0,0,0)
(0,0,0)
(0,0,0)
(0,0,0)
(0,0,0)
(0,0,0)
(0,0,0)
(0,0,0)
(0,0,0)
(0,0,0)
(0,0,0)
(0,0,0)
(0,0,0)
(0,0,0)
(0,0,0)
(0,0,0)
(0,0,0)
(0,0,0)
(0,0,0)
(0,0,0)
(0,0,0)
(0,0,0)
(0,0,0)
(0,0,0)
(0,0,0)
(0,0,0)
(0,0,0)
(0,0,0)
(0,0,0)
(0,0,0)
(0,0,0)
(0,0,0)
(0,0,0)
(0,0,0)
(0,0,0)
(0,0,0)
(0,0,0)
(0,0,0)
(0,0,0)
(0,0,0)
(-3.4852895038641e-13,1.35706550598324e-11,-1.39206166223583e-11)
(-1.06208925878114e-12,2.93171985189707e-11,-1.36757109397685e-11)
(-1.46061203786049e-12,5.01073780707971e-11,-1.27637606506379e-11)
(-1.93275904375184e-12,7.88650622529325e-11,-1.0882579347638e-11)
(-1.8050161970753e-12,1.22068868892464e-10,-8.47645307938174e-12)
(-2.06678950458044e-12,1.89183193449314e-10,-5.20723446722828e-12)
(-2.22163305596427e-12,2.9828667532896e-10,-2.60643996315555e-12)
(-1.78901627985628e-12,4.81542393640573e-10,-1.19215203766934e-12)
(-3.45668436902011e-13,7.840712612505e-10,-6.95046367250987e-13)
(1.58376718057262e-13,1.20508348737912e-09,-4.09788133291033e-13)
(0,0,0)
(0,0,0)
(0,0,0)
(0,0,0)
(0,0,0)
(0,0,0)
(-1.12282403350082e-12,1.30898571980576e-11,-2.91413410139901e-11)
(-2.08337916558266e-12,2.7865057038037e-11,-2.83423499698944e-11)
(-2.27947218340866e-12,4.76571346652499e-11,-2.63750490507532e-11)
(-2.17119248539767e-12,7.57597423949568e-11,-2.30423699624765e-11)
(-2.79840517820173e-12,1.18784422781089e-10,-1.87127696187341e-11)
(-3.95915490315738e-12,1.86740587654712e-10,-1.29438487420957e-11)
(-4.39031706584006e-12,2.97255665660696e-10,-7.8786485757763e-12)
(-3.38949333520533e-12,4.81400130724302e-10,-4.74765856057395e-12)
(-1.81981059878476e-12,7.8426258874735e-10,-2.85467169065146e-12)
(-1.28085044747659e-12,1.20499680198759e-09,-1.34179940815886e-12)
(0,0,0)
(0,0,0)
(0,0,0)
(0,0,0)
(0,0,0)
(0,0,0)
(-2.04024954005552e-12,1.1659567223025e-11,-4.80892004612196e-11)
(-3.26091977815079e-12,2.48146022754336e-11,-4.70133281068536e-11)
(-2.81681422881145e-12,4.33571721119156e-11,-4.47083896200702e-11)
(-1.86431892178755e-12,7.05432285574841e-11,-4.04084330257001e-11)
(-2.59647774419628e-12,1.12665427678237e-10,-3.43811857762327e-11)
(-4.59776478273513e-12,1.81324136876002e-10,-2.66327769975677e-11)
(-6.26039179994298e-12,2.94258949524601e-10,-1.90707844166502e-11)
(-6.44717586716033e-12,4.80696484356138e-10,-1.3515370047152e-11)
(-5.95971128957549e-12,7.84346219515865e-10,-8.81787560119416e-12)
(-5.72683767971297e-12,1.20490887208265e-09,-4.35451490163155e-12)
(0,0,0)
(0,0,0)
(0,0,0)
(0,0,0)
(0,0,0)
(0,0,0)
(-2.29916086509573e-12,9.60096232547103e-12,-7.63838194326758e-11)
(-3.70800709782669e-12,2.1025765877477e-11,-7.53990909054218e-11)
(-2.85271150452348e-12,3.78279375141985e-11,-7.31292091228726e-11)
(-1.48469309467415e-12,6.3349390040067e-11,-6.85486273490593e-11)
(-1.88526519233712e-12,1.03773788631436e-10,-6.16022772320893e-11)
(-3.99672747133144e-12,1.72194045651591e-10,-5.26208873973709e-11)
(-7.00530197405241e-12,2.8769131839945e-10,-4.27065693063186e-11)
(-9.56252709768207e-12,4.77432759591451e-10,-3.30569602418214e-11)
(-1.04826305315009e-11,7.82025219675062e-10,-2.30909866674294e-11)
(-1.00816624271077e-11,1.20233988694608e-09,-1.21320514923832e-11)
(0,0,0)
(0,0,0)
(0,0,0)
(0,0,0)
(0,0,0)
(0,0,0)
(-2.06299841712583e-12,7.8267555234246e-12,-1.20043218832711e-10)
(-3.24308284487804e-12,1.75556688454733e-11,-1.18970971356815e-10)
(-2.83100195024261e-12,3.20077094686823e-11,-1.16442464751888e-10)
(-1.87197801372421e-12,5.45123175477337e-11,-1.119468066949e-10)
(-1.98175905790498e-12,9.21714694561849e-11,-1.05301337184381e-10)
(-4.48628551633597e-12,1.58953652973043e-10,-9.66831137170931e-11)
(-9.07097275918476e-12,2.75971648439906e-10,-8.62580343514585e-11)
(-1.28897286037553e-11,4.69216465390782e-10,-6.98107562777474e-11)
(-1.43636529103636e-11,7.73805061495529e-10,-4.95114572368761e-11)
(-1.34448874717677e-11,1.192782313912e-09,-2.60293583788481e-11)
(0,0,0)
(0,0,0)
(0,0,0)
(0,0,0)
(0,0,0)
(0,0,0)
(-9.30536693736163e-13,6.15711610570733e-12,-1.86110841174104e-10)
(-1.90754736307345e-12,1.38855983472774e-11,-1.84613857012355e-10)
(-2.14516719687089e-12,2.57967459871256e-11,-1.823576611188e-10)
(-2.03122654019236e-12,4.48265421541402e-11,-1.7873710441681e-10)
(-2.90172942833074e-12,7.93970386669133e-11,-1.73118094152577e-10)
(-5.90917115480185e-12,1.43994155728614e-10,-1.64452004763815e-10)
(-1.01788161043659e-11,2.61261386719142e-10,-1.51064219623589e-10)
(-1.39254078011719e-11,4.52501484835685e-10,-1.27017291153986e-10)
(-1.51290823904256e-11,7.53513927433001e-10,-9.23345363643102e-11)
(-1.40240112185463e-11,1.16943345948265e-09,-4.91190173244633e-11)
(0,0,0)
(0,0,0)
(0,0,0)
(0,0,0)
(0,0,0)
(0,0,0)
(3.83636684496096e-13,4.38708319405471e-12,-2.93577546114545e-10)
(4.86013429964536e-14,1.04587527871866e-11,-2.92199645537702e-10)
(-8.42931653879336e-13,2.02104010195439e-11,-2.90087579022648e-10)
(-2.1412321855813e-12,3.6005379208066e-11,-2.86891065752131e-10)
(-3.77446983583107e-12,6.66156591446357e-11,-2.82092822859913e-10)
(-7.60626064909089e-12,1.26562868120771e-10,-2.72396820225125e-10)
(-1.0515464262965e-11,2.38969531274297e-10,-2.52363471384081e-10)
(-1.41505742724896e-11,4.21021449995217e-10,-2.17982090510968e-10)
(-1.61213751352632e-11,7.13023781654576e-10,-1.62909239207886e-10)
(-1.56186669457876e-11,1.12294089164888e-09,-8.85547357397434e-11)
(0,0,0)
(0,0,0)
(0,0,0)
(0,0,0)
(0,0,0)
(0,0,0)
(1.33153448558526e-12,2.67198044941053e-12,-4.73701895389833e-10)
(2.49510995862872e-12,7.17510762254354e-12,-4.72681511128291e-10)
(1.88374278871364e-12,1.51489370139451e-11,-4.70732598436499e-10)
(-3.80365983894733e-13,2.84980837975291e-11,-4.67375157237726e-10)
(-1.91002048900693e-12,5.48589731163661e-11,-4.61763235600319e-10)
(-5.20797261930808e-12,1.07483289932673e-10,-4.49401647779437e-10)
(-8.90935829805483e-12,2.05050942393181e-10,-4.22242150403956e-10)
(-1.31683055410669e-11,3.66891568247379e-10,-3.70789690009176e-10)
(-1.60764129689897e-11,6.39669423043795e-10,-2.8649277903534e-10)
(-1.62049008864584e-11,1.03563460097513e-09,-1.62157421993896e-10)
(0,0,0)
(0,0,0)
(0,0,0)
(0,0,0)
(0,0,0)
(0,0,0)
(2.21833913819056e-12,1.07131320552211e-12,-7.72130313477396e-10)
(4.0550500257525e-12,4.24001365338395e-12,-7.71914627434758e-10)
(4.34070343879683e-12,1.04965168960146e-11,-7.70534110797752e-10)
(2.6868422036116e-12,2.07375423437057e-11,-7.66443756073022e-10)
(1.13723641991216e-12,4.05829076533596e-11,-7.58430302995299e-10)
(-2.0339629067897e-12,8.00196408499861e-11,-7.41503014455381e-10)
(-6.55121134113059e-12,1.53185412591846e-10,-7.05531601078078e-10)
(-1.18233920715296e-11,2.82210112966075e-10,-6.36552123500354e-10)
(-1.63411597780396e-11,5.1506463849959e-10,-5.14625076295544e-10)
(-1.73880356676545e-11,8.73596948013178e-10,-3.09365337449361e-10)
(0,0,0)
(0,0,0)
(0,0,0)
(0,0,0)
(0,0,0)
(0,0,0)
(3.18299747137995e-12,3.3952882355532e-13,-1.19134776147102e-09)
(5.77889342125475e-12,1.94552665653648e-12,-1.19151560352608e-09)
(6.87613761144943e-12,5.31707070403617e-12,-1.19042202023568e-09)
(5.75022337621941e-12,1.10145724506571e-11,-1.18588747900939e-09)
(3.42411835826261e-12,2.18704053129947e-11,-1.17602319316005e-09)
(-3.0409799844667e-13,4.32468649759328e-11,-1.15560843809581e-09)
(-5.41060304664811e-12,8.35270470079314e-11,-1.11315142796609e-09)
(-1.15347958507541e-11,1.5948962713301e-10,-1.0301119351969e-09)
(-1.7306490381934e-11,3.08818572745105e-10,-8.71176150605305e-10)
(-1.87363241289379e-11,5.63850515393003e-10,-5.63318406375163e-10)
(0,0,0)
(0,0,0)
(0,0,0)
(0,0,0)
(0,0,0)
(0,0,0)
(0,0,0)
(0,0,0)
(0,0,0)
(0,0,0)
(0,0,0)
(0,0,0)
(0,0,0)
(0,0,0)
(0,0,0)
(0,0,0)
(0,0,0)
(0,0,0)
(0,0,0)
(0,0,0)
(0,0,0)
(0,0,0)
(0,0,0)
(0,0,0)
(0,0,0)
(0,0,0)
(0,0,0)
(0,0,0)
(0,0,0)
(0,0,0)
(0,0,0)
(0,0,0)
(0,0,0)
(0,0,0)
(0,0,0)
(0,0,0)
(0,0,0)
(0,0,0)
(0,0,0)
(0,0,0)
(0,0,0)
(0,0,0)
(0,0,0)
(0,0,0)
(0,0,0)
(0,0,0)
(0,0,0)
(0,0,0)
(0,0,0)
(0,0,0)
(0,0,0)
(0,0,0)
(0,0,0)
(0,0,0)
(0,0,0)
(0,0,0)
(0,0,0)
(0,0,0)
(0,0,0)
(0,0,0)
(0,0,0)
(0,0,0)
(0,0,0)
(0,0,0)
(0,0,0)
(0,0,0)
(0,0,0)
(0,0,0)
(0,0,0)
(0,0,0)
(0,0,0)
(0,0,0)
(0,0,0)
(0,0,0)
(0,0,0)
(0,0,0)
(0,0,0)
(0,0,0)
(0,0,0)
(0,0,0)
(0,0,0)
(0,0,0)
(0,0,0)
(0,0,0)
(0,0,0)
(0,0,0)
(0,0,0)
(0,0,0)
(0,0,0)
(0,0,0)
(0,0,0)
(0,0,0)
(0,0,0)
(0,0,0)
(0,0,0)
(0,0,0)
(0,0,0)
(0,0,0)
(0,0,0)
(0,0,0)
(0,0,0)
(0,0,0)
(-1.12636771202085e-13,2.58354454099266e-11,-2.58302975552847e-11)
(-5.21898066977553e-13,5.58263754563186e-11,-2.47926174280536e-11)
(-8.9154993531623e-13,9.39983875325306e-11,-2.28597322285622e-11)
(-1.23356545403293e-12,1.45582887077431e-10,-1.92135976869413e-11)
(-1.78978869785635e-12,2.22402319815095e-10,-1.42057632837418e-11)
(-2.22497821402467e-12,3.39803509476966e-10,-8.04905867635338e-12)
(-2.6049113131534e-12,5.2669062801307e-10,-3.02926405778516e-12)
(-2.14385903403918e-12,8.44535851728987e-10,-4.77723195403989e-13)
(-8.22254167729325e-13,1.44785018028871e-09,3.42575147358778e-13)
(-1.64726023838367e-13,2.82815801016571e-09,3.73296692602525e-13)
(0,0,0)
(0,0,0)
(0,0,0)
(0,0,0)
(0,0,0)
(0,0,0)
(-4.91525102564898e-13,2.45026771855442e-11,-5.60015857371869e-11)
(-1.00022532212129e-12,5.28335995573657e-11,-5.36350133173974e-11)
(-1.31218871835138e-12,8.91015803464309e-11,-4.91342371955903e-11)
(-1.28427899166937e-12,1.39605454243812e-10,-4.17860290614479e-11)
(-2.44833095199042e-12,2.15816568715183e-10,-3.20189502118563e-11)
(-3.60790429078382e-12,3.34726145170081e-10,-1.99786787825213e-11)
(-4.52459094493632e-12,5.24929890027877e-10,-8.90007656559726e-12)
(-4.57883383694597e-12,8.4497401964208e-10,-3.31887602439743e-12)
(-3.41631364974047e-12,1.44925896462637e-09,-1.48929098646717e-12)
(-2.53471995072092e-12,2.82993822988927e-09,-7.80399674701965e-13)
(0,0,0)
(0,0,0)
(0,0,0)
(0,0,0)
(0,0,0)
(0,0,0)
(-1.05751699686769e-12,2.17481383374274e-11,-9.22167085276834e-11)
(-1.77702186697685e-12,4.71463055587352e-11,-8.91124359733887e-11)
(-1.58753622546604e-12,8.03794927379657e-11,-8.3098548068176e-11)
(-6.97727653839362e-13,1.28558755933336e-10,-7.32233911554576e-11)
(-1.45324747605952e-12,2.02747601705552e-10,-5.92137502666334e-11)
(-3.02966613923847e-12,3.23043235958783e-10,-4.1286859722922e-11)
(-5.24817504428024e-12,5.19943425888487e-10,-2.31737637222379e-11)
(-7.88094554836767e-12,8.45575069378478e-10,-1.41185130487235e-11)
(-8.10207214830266e-12,1.45154022110322e-09,-9.58300639183212e-12)
(-7.51236744481424e-12,2.8322105859153e-09,-5.35346610180974e-12)
(0,0,0)
(0,0,0)
(0,0,0)
(0,0,0)
(0,0,0)
(0,0,0)
(-1.50968259030324e-12,1.79629098616744e-11,-1.42796701119496e-10)
(-2.50779184837315e-12,3.9676929374428e-11,-1.39900651705998e-10)
(-1.61306523281819e-12,6.90684969633709e-11,-1.33754713333078e-10)
(4.06029280692225e-13,1.1301090924992e-10,-1.23050540297033e-10)
(7.35664148192619e-13,1.82563827818046e-10,-1.06762809247957e-10)
(-6.7065288384656e-13,3.01854575938813e-10,-8.54731608920149e-11)
(-4.93524107903159e-12,5.07825903173027e-10,-6.19928451769442e-11)
(-1.1312206471411e-11,8.43708097096292e-10,-4.69844329814172e-11)
(-1.32214075269753e-11,1.45134604396741e-09,-3.40965913197306e-11)
(-1.26561408854597e-11,2.83065331619854e-09,-1.86331220143455e-11)
(0,0,0)
(0,0,0)
(0,0,0)
(0,0,0)
(0,0,0)
(0,0,0)
(-1.46560647530472e-12,1.4415361057893e-11,-2.19388426474287e-10)
(-2.10151895160813e-12,3.2119481810947e-11,-2.16364919778637e-10)
(-1.11569652567581e-12,5.65688510912339e-11,-2.10382443547444e-10)
(1.16832786934926e-12,9.37397695754078e-11,-2.00785655573949e-10)
(2.17444826408411e-12,1.55574611560755e-10,-1.86646893686263e-10)
(4.81323624521688e-14,2.68684042373469e-10,-1.69688095864279e-10)
(-1.08079891121459e-11,4.8034830047866e-10,-1.54441087336888e-10)
(-1.6474047089503e-11,8.34147576300576e-10,-1.20659542915915e-10)
(-1.75546177058533e-11,1.44156936130758e-09,-8.44869696276561e-11)
(-1.6125391421356e-11,2.816937082039e-09,-4.42738759349831e-11)
(0,0,0)
(0,0,0)
(0,0,0)
(0,0,0)
(0,0,0)
(0,0,0)
(-6.57487943832242e-13,1.09141785532012e-11,-3.34417083958502e-10)
(-7.36897696539136e-13,2.45799841263e-11,-3.31114819854334e-10)
(-1.79378931277192e-13,4.39880273682304e-11,-3.26103664060787e-10)
(1.17092614164861e-12,7.40441303697393e-11,-3.19012903044338e-10)
(1.21356070518168e-12,1.28104809982921e-10,-3.08464697781533e-10)
(-1.86566868718204e-12,2.3654710658416e-10,-2.94071387862199e-10)
(-1.1933889129121e-11,4.57387373907741e-10,-2.74714621049979e-10)
(-1.71281277503746e-11,8.08981568487049e-10,-2.28406178904539e-10)
(-1.78544556518804e-11,1.40876257963716e-09,-1.63707110988214e-10)
(-1.66504607091199e-11,2.77780687982946e-09,-8.61758958823179e-11)
(0,0,0)
(0,0,0)
(0,0,0)
(0,0,0)
(0,0,0)
(0,0,0)
(7.2083885229778e-13,7.45304375808144e-12,-5.16569287604899e-10)
(1.22017999258578e-12,1.78988330348236e-11,-5.14053300992443e-10)
(1.02201908120152e-12,3.30971833437681e-11,-5.10415174989395e-10)
(5.67820332736461e-13,5.66934147651112e-11,-5.05441748560334e-10)
(-1.71378644234998e-12,1.02159297701542e-10,-4.98510529254513e-10)
(-8.56003130202667e-12,2.00349253335554e-10,-4.85492208048333e-10)
(-1.09782562549741e-11,4.19438178554428e-10,-4.48490465394651e-10)
(-1.5093543827733e-11,7.53849934786836e-10,-3.92507010165601e-10)
(-1.71215199926375e-11,1.33723392808016e-09,-2.89802424167284e-10)
(-1.68671120117941e-11,2.6956648539996e-09,-1.56022557147334e-10)
(0,0,0)
(0,0,0)
(0,0,0)
(0,0,0)
(0,0,0)
(0,0,0)
(1.9118174679316e-12,4.68763706894658e-12,-8.27937232728713e-10)
(3.48129123599614e-12,1.22768724101004e-11,-8.26332521378629e-10)
(3.17872170787189e-12,2.43879195151153e-11,-8.23345556966631e-10)
(1.76825383252158e-12,4.46186691414741e-11,-8.18455055205847e-10)
(4.45715311864472e-15,8.63536036609615e-11,-8.10950636062029e-10)
(-4.90382091210753e-12,1.77426382370415e-10,-7.94683815416493e-10)
(-8.49628889149004e-12,3.6273719014792e-10,-7.52604262185568e-10)
(-1.2783761233588e-11,6.52906138946083e-10,-6.60612262106464e-10)
(-1.58069854662598e-11,1.20512988973116e-09,-5.08378208041134e-10)
(-1.63246699184583e-11,2.54089818755376e-09,-2.88800990028007e-10)
(0,0,0)
(0,0,0)
(0,0,0)
(0,0,0)
(0,0,0)
(0,0,0)
(2.73443747751899e-12,2.4165632198835e-12,-1.42648023259992e-09)
(4.96902038559376e-12,7.37072813097067e-12,-1.42572462557781e-09)
(5.42979490604553e-12,1.66768909024133e-11,-1.42330964826376e-09)
(4.39635901893748e-12,3.29673678348796e-11,-1.41718140197057e-09)
(2.9224502203588e-12,6.60651729648068e-11,-1.40487134685041e-09)
(-1.23260041003724e-12,1.35530754099817e-10,-1.37864411862912e-09)
(-5.87232333494975e-12,2.6866057298166e-10,-1.31978364488295e-09)
(-1.10299534432656e-11,4.99634010437292e-10,-1.19887419438387e-09)
(-1.53548328697455e-11,9.84821155979029e-10,-9.84413660315266e-10)
(-1.70069404968176e-11,2.25161891428485e-09,-6.15064228882927e-10)
(0,0,0)
(0,0,0)
(0,0,0)
(0,0,0)
(0,0,0)
(0,0,0)
(3.69036834999677e-12,9.12398447009638e-13,-2.8038654074459e-09)
(6.6308367873859e-12,3.20178349795166e-12,-2.80327176455149e-09)
(7.65866708919856e-12,8.35379781860321e-12,-2.80112112412135e-09)
(6.90050997752934e-12,1.77779009665423e-11,-2.79414005840375e-09)
(4.87976860702195e-12,3.61726312409566e-11,-2.77801705932831e-09)
(4.85756847766397e-13,7.37753649887544e-11,-2.7444888254963e-09)
(-4.92304880790741e-12,1.45614710592069e-10,-2.6731587218204e-09)
(-1.09809533093417e-11,2.83667063801826e-10,-2.5289522382253e-09)
(-1.63456618669717e-11,6.13970784321778e-10,-2.2465192575133e-09)
(-1.82042151110876e-11,1.63550419464427e-09,-1.63423712437097e-09)
(0,0,0)
(0,0,0)
(0,0,0)
(0,0,0)
(0,0,0)
(0,0,0)
(0,0,0)
(0,0,0)
(0,0,0)
(0,0,0)
(0,0,0)
(0,0,0)
(0,0,0)
(0,0,0)
(0,0,0)
(0,0,0)
(0,0,0)
(0,0,0)
(0,0,0)
(0,0,0)
(0,0,0)
(0,0,0)
(0,0,0)
(0,0,0)
(0,0,0)
(0,0,0)
(0,0,0)
(0,0,0)
(0,0,0)
(0,0,0)
(0,0,0)
(0,0,0)
(0,0,0)
(0,0,0)
(0,0,0)
(0,0,0)
(0,0,0)
(0,0,0)
(0,0,0)
(0,0,0)
(0,0,0)
(0,0,0)
(0,0,0)
(0,0,0)
(0,0,0)
(0,0,0)
(0,0,0)
(0,0,0)
(0,0,0)
(0,0,0)
(0,0,0)
(0,0,0)
(0,0,0)
(0,0,0)
(0,0,0)
(0,0,0)
(0,0,0)
(0,0,0)
(0,0,0)
(0,0,0)
(0,0,0)
(0,0,0)
(0,0,0)
(0,0,0)
(0,0,0)
(0,0,0)
(0,0,0)
(0,0,0)
(0,0,0)
(0,0,0)
(0,0,0)
(0,0,0)
(0,0,0)
(0,0,0)
(0,0,0)
(0,0,0)
(0,0,0)
(0,0,0)
(0,0,0)
(0,0,0)
(0,0,0)
(0,0,0)
(0,0,0)
(0,0,0)
(0,0,0)
(0,0,0)
(0,0,0)
(0,0,0)
(0,0,0)
(0,0,0)
(0,0,0)
(0,0,0)
(0,0,0)
(0,0,0)
(0,0,0)
(0,0,0)
(0,0,0)
(0,0,0)
(0,0,0)
(0,0,0)
(0,0,0)
(0,0,0)
(1.82451325895104e-13,3.4927663007664e-11,-3.60274347594527e-11)
(5.37992632493969e-13,7.43069236407555e-11,-3.4108075309138e-11)
(3.59122708901773e-13,1.23223840013594e-10,-3.07934412025753e-11)
(-2.63967023372218e-13,1.90216453056189e-10,-2.54308854173541e-11)
(-1.36074220545292e-12,2.86053039176377e-10,-1.74667014674396e-11)
(-2.16740852560239e-12,4.24150732495056e-10,-7.21104594654992e-12)
(-3.39571419033968e-12,6.25900465686775e-10,1.78597858164554e-12)
(-3.40232528986651e-12,9.17112473993583e-10,4.84498272870275e-12)
(-2.26176005076195e-12,1.32971527304779e-09,3.99476765536537e-12)
(-1.57164905468477e-12,1.83265825345562e-09,1.99142963604042e-12)
(0,0,0)
(0,0,0)
(0,0,0)
(0,0,0)
(0,0,0)
(0,0,0)
(-1.03558674238997e-13,3.30359028316571e-11,-7.57196580918519e-11)
(1.86292555054162e-13,7.05966636975245e-11,-7.22594049888749e-11)
(6.16907556243156e-14,1.17072021330628e-10,-6.55809741077373e-11)
(-4.659530707374e-15,1.81893689376725e-10,-5.46347902186459e-11)
(-1.41963537167238e-12,2.75902653728132e-10,-3.80869780614711e-11)
(-3.00359729647971e-12,4.15946014870267e-10,-1.63592930190742e-11)
(-5.11932734680232e-12,6.24298267627054e-10,4.54217219813833e-12)
(-7.0094686111214e-12,9.2017052479522e-10,9.94298233834921e-12)
(-6.40646143838817e-12,1.33434740648181e-09,6.87912029710419e-12)
(-5.58747565145299e-12,1.83715085363115e-09,2.76912125899345e-12)
(0,0,0)
(0,0,0)
(0,0,0)
(0,0,0)
(0,0,0)
(0,0,0)
(-3.76561075519806e-13,2.92056634612762e-11,-1.23706518545221e-10)
(-3.21533587564212e-13,6.29688699759109e-11,-1.19194883483967e-10)
(-1.51697363714021e-13,1.04984973893974e-10,-1.09974314621758e-10)
(8.404781409154e-13,1.64912078671634e-10,-9.47315665905684e-11)
(8.03635867546679e-13,2.54455610061353e-10,-7.02700838984883e-11)
(4.58978800772447e-14,3.96663440897853e-10,-3.46030869560928e-11)
(-2.1859030024143e-12,6.21540473739963e-10,5.67680077233383e-12)
(-1.05494799230254e-11,9.28244129077063e-10,1.05028557205667e-11)
(-1.21374353024897e-11,1.3435953274118e-09,3.77709312830188e-12)
(-1.13085638298029e-11,1.84458247539381e-09,-2.92241143942882e-13)
(0,0,0)
(0,0,0)
(0,0,0)
(0,0,0)
(0,0,0)
(0,0,0)
(-8.58183200036195e-13,2.4072221133835e-11,-1.89505957677313e-10)
(-1.09628265772346e-12,5.25346317137057e-11,-1.84900536712244e-10)
(1.82407603115072e-13,8.85257222407714e-11,-1.7495516000233e-10)
(3.38943790626103e-12,1.3982885844327e-10,-1.57674383817809e-10)
(6.43523204955902e-12,2.18681030372073e-10,-1.28726688334921e-10)
(9.01956496647686e-12,3.56611944276151e-10,-8.29344219962744e-11)
(7.53394941976773e-12,6.12742017934268e-10,-1.97422334672241e-11)
(-1.46395273375504e-11,9.43317820572752e-10,-1.88708930786097e-11)
(-1.89081941724844e-11,1.35557342858898e-09,-2.24981090033072e-11)
(-1.7573028740285e-11,1.85049073850505e-09,-1.53167847740585e-11)
(0,0,0)
(0,0,0)
(0,0,0)
(0,0,0)
(0,0,0)
(0,0,0)
(-9.8793066626904e-13,1.88587317091081e-11,-2.83915331132738e-10)
(-5.44497498098955e-13,4.12271887393277e-11,-2.79371707238748e-10)
(1.86833922387094e-12,6.93048026702101e-11,-2.69650975877259e-10)
(6.72520518725567e-12,1.08173891917115e-10,-2.53907144048622e-10)
(1.26854520201525e-11,1.67751473883765e-10,-2.29960127990032e-10)
(1.69380596240965e-11,2.78513528194231e-10,-2.01551305945832e-10)
(-2.16286069621177e-11,5.39087082022808e-10,-2.13514827032681e-10)
(-2.74806125643695e-11,9.57568434708012e-10,-1.39873361327612e-10)
(-2.49609297279334e-11,1.35936568159799e-09,-9.51699968445255e-11)
(-2.12690651468081e-11,1.84267053222548e-09,-5.0098031837848e-11)
(0,0,0)
(0,0,0)
(0,0,0)
(0,0,0)
(0,0,0)
(0,0,0)
(-4.98617253128894e-13,1.37623109091287e-11,-4.17253851790941e-10)
(9.33097601617846e-13,2.99494318320703e-11,-4.13313033813696e-10)
(3.62070407670066e-12,5.01637456774308e-11,-4.05951442536314e-10)
(7.97343648350071e-12,7.69581557251453e-11,-3.94911678124286e-10)
(1.27657630670849e-11,1.19759109991018e-10,-3.79399162124228e-10)
(1.49754177493482e-11,2.20389487621424e-10,-3.61381234294453e-10)
(-2.02931359213217e-11,5.39533398034737e-10,-3.69353202804489e-10)
(-2.66955619663288e-11,9.43983572565342e-10,-2.8906555930517e-10)
(-2.38570192008598e-11,1.32770486117624e-09,-2.00426795004276e-10)
(-2.06843307615708e-11,1.79990184459432e-09,-1.03423284346786e-10)
(0,0,0)
(0,0,0)
(0,0,0)
(0,0,0)
(0,0,0)
(0,0,0)
(9.70258929004547e-13,9.24928783455895e-12,-6.11213302519349e-10)
(3.2040146140535e-12,2.06501535869151e-11,-6.08334684889012e-10)
(4.75785648079356e-12,3.4409941536528e-11,-6.03950863228803e-10)
(5.71134665080406e-12,5.07098332556856e-11,-5.99194714674223e-10)
(1.07358639198834e-12,7.43439874177716e-11,-5.98496104252331e-10)
(-2.26389029907891e-11,1.38639415799332e-10,-6.0536257584729e-10)
(-1.02607230774223e-11,5.04167245798975e-10,-5.31832975798882e-10)
(-1.68543339852615e-11,8.81976152668852e-10,-5.06957276180062e-10)
(-1.87973486634436e-11,1.24146603682753e-09,-3.52564308321148e-10)
(-1.8123002713281e-11,1.70141889049975e-09,-1.81629196737823e-10)
(0,0,0)
(0,0,0)
(0,0,0)
(0,0,0)
(0,0,0)
(0,0,0)
(2.57817996695019e-12,6.03795344941099e-12,-8.94145267469772e-10)
(5.40047110305294e-12,1.41201703229002e-11,-8.91977663023821e-10)
(5.99924855986827e-12,2.4651179630352e-11,-8.88677644469921e-10)
(5.91513599538503e-12,4.0355004576807e-11,-8.85520994503708e-10)
(4.02606720347196e-12,7.37566423965801e-11,-8.85704917994093e-10)
(-5.08774587227002e-12,1.71205334460908e-10,-8.88833928839163e-10)
(-6.41167180418598e-12,4.54023148070652e-10,-8.66620102801448e-10)
(-1.17456867902891e-11,7.28941668112758e-10,-7.37649802823874e-10)
(-1.50754697272599e-11,1.072723794923e-09,-5.38154749179696e-10)
(-1.58463866775222e-11,1.52090522688673e-09,-2.90347225466331e-10)
(0,0,0)
(0,0,0)
(0,0,0)
(0,0,0)
(0,0,0)
(0,0,0)
(3.4829952282624e-12,3.36060092908139e-12,-1.30022724569682e-09)
(6.72298770457466e-12,8.79626182266475e-12,-1.29908343437968e-09)
(7.62464169664684e-12,1.72046198455109e-11,-1.29597444368279e-09)
(7.27577076712237e-12,3.21194515179872e-11,-1.29068814623338e-09)
(6.58776372292838e-12,6.53370439575899e-11,-1.28222466826866e-09)
(1.66231495491631e-12,1.47123061166866e-10,-1.26272037256548e-09)
(-3.73591144461512e-12,3.18411359100412e-10,-1.20592264452743e-09)
(-9.523540876234e-12,5.27066235544414e-10,-1.05906206781839e-09)
(-1.38538926448123e-11,8.23436652167145e-10,-8.2003610962037e-10)
(-1.5956449739285e-11,1.22941742196567e-09,-4.71072747318696e-10)
(0,0,0)
(0,0,0)
(0,0,0)
(0,0,0)
(0,0,0)
(0,0,0)
(4.00912390240441e-12,1.32850218984876e-12,-1.7997274199964e-09)
(7.68197985529129e-12,3.99366721557186e-12,-1.79912725862312e-09)
(9.03139919020248e-12,9.01323838386289e-12,-1.79590566464828e-09)
(8.55541186850935e-12,1.83252924321755e-11,-1.78834371343152e-09)
(7.52416601618465e-12,3.82349171993997e-11,-1.7728141393112e-09)
(2.9310181605664e-12,8.29696829893476e-11,-1.73908307225106e-09)