/*--------------------------------*- C++ -*----------------------------------*\
| =========                 |                                                 |
| \\      /  F ield         | foam-extend: Open Source CFD                    |
|  \\    /   O peration     | Version:     4.0                                |
|   \\  /    A nd           | Web:         http://www.foam-extend.org         |
|    \\/     M anipulation  |                                                 |
\*---------------------------------------------------------------------------*/
FoamFile
{
    version 2.0;
    format ascii;
    class volVectorField;
    location "340";
    object      E;
}
// * * * * * * * * * * * * * * * * * * * * * * * * * * * * * * * * * * * * * //

dimensions      [0 1 -1 0 0 0 0];

internalField   nonuniform List<vector>
4096
(
(0,0,0)
(0,0,0)
(0,0,0)
(0,0,0)
(0,0,0)
(0,0,0)
(0,0,0)
(0,0,0)
(0,0,0)
(0,0,0)
(0,0,0)
(0,0,0)
(0,0,0)
(0,0,0)
(0,0,0)
(0,0,0)
(0,0,0)
(0,0,0)
(0,0,0)
(0,0,0)
(0,0,0)
(0,0,0)
(0,0,0)
(0,0,0)
(0,0,0)
(0,0,0)
(0,0,0)
(0,0,0)
(0,0,0)
(0,0,0)
(0,0,0)
(0,0,0)
(0,0,0)
(0,0,0)
(0,0,0)
(0,0,0)
(0,0,0)
(0,0,0)
(0,0,0)
(0,0,0)
(0,0,0)
(0,0,0)
(0,0,0)
(0,0,0)
(0,0,0)
(0,0,0)
(0,0,0)
(0,0,0)
(0,0,0)
(0,0,0)
(0,0,0)
(0,0,0)
(0,0,0)
(0,0,0)
(0,0,0)
(0,0,0)
(0,0,0)
(0,0,0)
(0,0,0)
(0,0,0)
(0,0,0)
(0,0,0)
(0,0,0)
(0,0,0)
(0,0,0)
(0,0,0)
(0,0,0)
(0,0,0)
(0,0,0)
(0,0,0)
(0,0,0)
(0,0,0)
(0,0,0)
(0,0,0)
(0,0,0)
(0,0,0)
(0,0,0)
(0,0,0)
(0,0,0)
(0,0,0)
(0,0,0)
(0,0,0)
(0,0,0)
(0,0,0)
(0,0,0)
(0,0,0)
(0,0,0)
(0,0,0)
(0,0,0)
(0,0,0)
(0,0,0)
(0,0,0)
(0,0,0)
(0,0,0)
(0,0,0)
(0,0,0)
(0,0,0)
(0,0,0)
(0,0,0)
(0,0,0)
(0,0,0)
(0,0,0)
(0,0,0)
(0,0,0)
(0,0,0)
(0,0,0)
(0,0,0)
(0,0,0)
(0,0,0)
(0,0,0)
(0,0,0)
(0,0,0)
(0,0,0)
(0,0,0)
(0,0,0)
(0,0,0)
(0,0,0)
(0,0,0)
(0,0,0)
(0,0,0)
(0,0,0)
(0,0,0)
(0,0,0)
(0,0,0)
(0,0,0)
(0,0,0)
(0,0,0)
(0,0,0)
(0,0,0)
(0,0,0)
(0,0,0)
(0,0,0)
(0,0,0)
(0,0,0)
(0,0,0)
(0,0,0)
(0,0,0)
(0,0,0)
(0,0,0)
(0,0,0)
(0,0,0)
(0,0,0)
(0,0,0)
(0,0,0)
(0,0,0)
(0,0,0)
(0,0,0)
(0,0,0)
(0,0,0)
(0,0,0)
(0,0,0)
(0,0,0)
(0,0,0)
(0,0,0)
(0,0,0)
(0,0,0)
(0,0,0)
(0,0,0)
(0,0,0)
(0,0,0)
(0,0,0)
(0,0,0)
(0,0,0)
(0,0,0)
(0,0,0)
(0,0,0)
(0,0,0)
(0,0,0)
(0,0,0)
(0,0,0)
(0,0,0)
(0,0,0)
(0,0,0)
(0,0,0)
(0,0,0)
(0,0,0)
(0,0,0)
(0,0,0)
(0,0,0)
(0,0,0)
(0,0,0)
(0,0,0)
(0,0,0)
(0,0,0)
(0,0,0)
(0,0,0)
(0,0,0)
(0,0,0)
(0,0,0)
(0,0,0)
(0,0,0)
(0,0,0)
(0,0,0)
(0,0,0)
(0,0,0)
(0,0,0)
(0,0,0)
(0,0,0)
(0,0,0)
(0,0,0)
(0,0,0)
(0,0,0)
(0,0,0)
(0,0,0)
(0,0,0)
(0,0,0)
(0,0,0)
(0,0,0)
(0,0,0)
(0,0,0)
(0,0,0)
(0,0,0)
(0,0,0)
(0,0,0)
(0,0,0)
(0,0,0)
(0,0,0)
(0,0,0)
(0,0,0)
(0,0,0)
(0,0,0)
(0,0,0)
(0,0,0)
(0,0,0)
(0,0,0)
(0,0,0)
(0,0,0)
(0,0,0)
(0,0,0)
(0,0,0)
(0,0,0)
(0,0,0)
(0,0,0)
(0,0,0)
(0,0,0)
(0,0,0)
(0,0,0)
(0,0,0)
(0,0,0)
(0,0,0)
(0,0,0)
(0,0,0)
(0,0,0)
(0,0,0)
(0,0,0)
(0,0,0)
(0,0,0)
(0,0,0)
(0,0,0)
(0,0,0)
(0,0,0)
(0,0,0)
(0,0,0)
(0,0,0)
(0,0,0)
(0,0,0)
(0,0,0)
(0,0,0)
(0,0,0)
(0,0,0)
(0,0,0)
(0,0,0)
(0,0,0)
(0,0,0)
(0,0,0)
(0,0,0)
(0,0,0)
(0,0,0)
(0,0,0)
(0,0,0)
(0,0,0)
(0,0,0)
(0,0,0)
(0,0,0)
(0,0,0)
(0,0,0)
(0,0,0)
(0,0,0)
(0,0,0)
(0,0,0)
(0,0,0)
(0,0,0)
(0,0,0)
(0,0,0)
(0,0,0)
(0,0,0)
(0,0,0)
(0,0,0)
(0,0,0)
(0,0,0)
(0,0,0)
(0,0,0)
(0,0,0)
(0,0,0)
(0,0,0)
(0,0,0)
(0,0,0)
(0,0,0)
(0,0,0)
(0,0,0)
(0,0,0)
(0,0,0)
(0,0,0)
(0,0,0)
(0,0,0)
(0,0,0)
(0,0,0)
(0,0,0)
(0,0,0)
(0,0,0)
(0,0,0)
(0,0,0)
(0,0,0)
(0,0,0)
(0,0,0)
(0,0,0)
(0,0,0)
(0,0,0)
(0,0,0)
(0,0,0)
(0,0,0)
(0,0,0)
(0,0,0)
(0,0,0)
(0,0,0)
(0,0,0)
(0,0,0)
(0,0,0)
(0,0,0)
(0,0,0)
(0,0,0)
(0,0,0)
(0,0,0)
(0,0,0)
(0,0,0)
(0,0,0)
(0,0,0)
(0,0,0)
(0,0,0)
(0,0,0)
(0,0,0)
(0,0,0)
(0,0,0)
(0,0,0)
(0,0,0)
(0,0,0)
(0,0,0)
(0,0,0)
(0,0,0)
(0,0,0)
(0,0,0)
(0,0,0)
(0,0,0)
(0,0,0)
(0,0,0)
(0,0,0)
(0,0,0)
(0,0,0)
(0,0,0)
(0,0,0)
(0,0,0)
(0,0,0)
(0,0,0)
(0,0,0)
(0,0,0)
(0,0,0)
(0,0,0)
(0,0,0)
(0,0,0)
(0,0,0)
(0,0,0)
(0,0,0)
(0,0,0)
(0,0,0)
(0,0,0)
(0,0,0)
(0,0,0)
(0,0,0)
(0,0,0)
(0,0,0)
(0,0,0)
(0,0,0)
(0,0,0)
(0,0,0)
(0,0,0)
(0,0,0)
(0,0,0)
(0,0,0)
(0,0,0)
(0,0,0)
(0,0,0)
(0,0,0)
(0,0,0)
(0,0,0)
(0,0,0)
(0,0,0)
(0,0,0)
(0,0,0)
(0,0,0)
(0,0,0)
(0,0,0)
(0,0,0)
(0,0,0)
(0,0,0)
(0,0,0)
(0,0,0)
(0,0,0)
(0,0,0)
(0,0,0)
(0,0,0)
(0,0,0)
(0,0,0)
(0,0,0)
(0,0,0)
(0,0,0)
(0,0,0)
(0,0,0)
(0,0,0)
(0,0,0)
(0,0,0)
(0,0,0)
(0,0,0)
(0,0,0)
(0,0,0)
(0,0,0)
(0,0,0)
(0,0,0)
(0,0,0)
(0,0,0)
(0,0,0)
(0,0,0)
(0,0,0)
(0,0,0)
(0,0,0)
(0,0,0)
(0,0,0)
(0,0,0)
(0,0,0)
(0,0,0)
(0,0,0)
(0,0,0)
(0,0,0)
(0,0,0)
(0,0,0)
(0,0,0)
(0,0,0)
(0,0,0)
(0,0,0)
(0,0,0)
(0,0,0)
(0,0,0)
(0,0,0)
(0,0,0)
(0,0,0)
(0,0,0)
(0,0,0)
(0,0,0)
(0,0,0)
(0,0,0)
(0,0,0)
(0,0,0)
(0,0,0)
(0,0,0)
(0,0,0)
(0,0,0)
(0,0,0)
(0,0,0)
(0,0,0)
(0,0,0)
(0,0,0)
(0,0,0)
(0,0,0)
(0,0,0)
(0,0,0)
(0,0,0)
(0,0,0)
(0,0,0)
(0,0,0)
(0,0,0)
(0,0,0)
(0,0,0)
(0,0,0)
(0,0,0)
(0,0,0)
(0,0,0)
(0,0,0)
(0,0,0)
(0,0,0)
(0,0,0)
(0,0,0)
(0,0,0)
(0,0,0)
(0,0,0)
(0,0,0)
(0,0,0)
(0,0,0)
(0,0,0)
(0,0,0)
(0,0,0)
(0,0,0)
(0,0,0)
(0,0,0)
(0,0,0)
(0,0,0)
(0,0,0)
(0,0,0)
(0,0,0)
(0,0,0)
(0,0,0)
(0,0,0)
(0,0,0)
(0,0,0)
(0,0,0)
(0,0,0)
(0,0,0)
(0,0,0)
(0,0,0)
(0,0,0)
(0,0,0)
(0,0,0)
(0,0,0)
(0,0,0)
(0,0,0)
(0,0,0)
(0,0,0)
(0,0,0)
(0,0,0)
(0,0,0)
(0,0,0)
(0,0,0)
(0,0,0)
(0,0,0)
(0,0,0)
(0,0,0)
(0,0,0)
(0,0,0)
(0,0,0)
(0,0,0)
(0,0,0)
(0,0,0)
(0,0,0)
(0,0,0)
(0,0,0)
(0,0,0)
(0,0,0)
(0,0,0)
(0,0,0)
(0,0,0)
(0,0,0)
(0,0,0)
(0,0,0)
(0,0,0)
(0,0,0)
(0,0,0)
(0,0,0)
(0,0,0)
(0,0,0)
(0,0,0)
(0,0,0)
(0,0,0)
(0,0,0)
(0,0,0)
(0,0,0)
(0,0,0)
(0,0,0)
(0,0,0)
(0,0,0)
(0,0,0)
(0,0,0)
(0,0,0)
(0,0,0)
(0,0,0)
(0,0,0)
(0,0,0)
(0,0,0)
(0,0,0)
(0,0,0)
(0,0,0)
(0,0,0)
(0,0,0)
(0,0,0)
(0,0,0)
(0,0,0)
(0,0,0)
(0,0,0)
(0,0,0)
(0,0,0)
(0,0,0)
(0,0,0)
(0,0,0)
(0,0,0)
(0,0,0)
(0,0,0)
(0,0,0)
(0,0,0)
(0,0,0)
(0,0,0)
(0,0,0)
(0,0,0)
(0,0,0)
(0,0,0)
(0,0,0)
(0,0,0)
(0,0,0)
(0,0,0)
(0,0,0)
(0,0,0)
(0,0,0)
(0,0,0)
(0,0,0)
(0,0,0)
(0,0,0)
(0,0,0)
(0,0,0)
(0,0,0)
(0,0,0)
(0,0,0)
(0,0,0)
(0,0,0)
(0,0,0)
(0,0,0)
(0,0,0)
(0,0,0)
(0,0,0)
(0,0,0)
(0,0,0)
(0,0,0)
(0,0,0)
(0,0,0)
(0,0,0)
(0,0,0)
(0,0,0)
(0,0,0)
(0,0,0)
(0,0,0)
(0,0,0)
(0,0,0)
(0,0,0)
(0,0,0)
(0,0,0)
(0,0,0)
(0,0,0)
(0,0,0)
(0,0,0)
(0,0,0)
(0,0,0)
(0,0,0)
(0,0,0)
(0,0,0)
(0,0,0)
(0,0,0)
(0,0,0)
(0,0,0)
(0,0,0)
(0,0,0)
(0,0,0)
(0,0,0)
(0,0,0)
(0,0,0)
(0,0,0)
(0,0,0)
(0,0,0)
(0,0,0)
(0,0,0)
(0,0,0)
(0,0,0)
(0,0,0)
(0,0,0)
(0,0,0)
(0,0,0)
(0,0,0)
(0,0,0)
(0,0,0)
(0,0,0)
(0,0,0)
(0,0,0)
(0,0,0)
(0,0,0)
(0,0,0)
(0,0,0)
(0,0,0)
(0,0,0)
(0,0,0)
(0,0,0)
(0,0,0)
(0,0,0)
(0,0,0)
(0,0,0)
(0,0,0)
(0,0,0)
(0,0,0)
(0,0,0)
(0,0,0)
(0,0,0)
(0,0,0)
(0,0,0)
(0,0,0)
(0,0,0)
(0,0,0)
(0,0,0)
(0,0,0)
(0,0,0)
(0,0,0)
(0,0,0)
(0,0,0)
(0,0,0)
(0,0,0)
(0,0,0)
(0,0,0)
(0,0,0)
(0,0,0)
(0,0,0)
(0,0,0)
(0,0,0)
(0,0,0)
(0,0,0)
(0,0,0)
(0,0,0)
(0,0,0)
(0,0,0)
(0,0,0)
(0,0,0)
(0,0,0)
(0,0,0)
(0,0,0)
(0,0,0)
(0,0,0)
(0,0,0)
(0,0,0)
(0,0,0)
(0,0,0)
(0,0,0)
(0,0,0)
(0,0,0)
(0,0,0)
(0,0,0)
(0,0,0)
(0,0,0)
(0,0,0)
(0,0,0)
(0,0,0)
(0,0,0)
(0,0,0)
(0,0,0)
(0,0,0)
(0,0,0)
(0,0,0)
(0,0,0)
(0,0,0)
(0,0,0)
(0,0,0)
(0,0,0)
(0,0,0)
(0,0,0)
(0,0,0)
(0,0,0)
(0,0,0)
(0,0,0)
(0,0,0)
(0,0,0)
(0,0,0)
(0,0,0)
(0,0,0)
(0,0,0)
(0,0,0)
(0,0,0)
(0,0,0)
(0,0,0)
(0,0,0)
(0,0,0)
(0,0,0)
(0,0,0)
(0,0,0)
(0,0,0)
(0,0,0)
(0,0,0)
(0,0,0)
(0,0,0)
(0,0,0)
(0,0,0)
(0,0,0)
(0,0,0)
(0,0,0)
(0,0,0)
(0,0,0)
(0,0,0)
(0,0,0)
(0,0,0)
(0,0,0)
(0,0,0)
(0,0,0)
(0,0,0)
(0,0,0)
(0,0,0)
(0,0,0)
(0,0,0)
(0,0,0)
(0,0,0)
(0,0,0)
(0,0,0)
(0,0,0)
(0,0,0)
(0,0,0)
(0,0,0)
(0,0,0)
(0,0,0)
(0,0,0)
(0,0,0)
(0,0,0)
(0,0,0)
(0,0,0)
(0,0,0)
(0,0,0)
(0,0,0)
(0,0,0)
(0,0,0)
(0,0,0)
(0,0,0)
(0,0,0)
(-162217.926531287,85934.2551447028,76283.6713865843)
(-171514.223632736,82434.0489995036,165363.846019816)
(-193131.105110602,75136.3376265638,283358.613503855)
(-234044.661118268,63610.8134134817,453792.46120864)
(-307844.323252809,47985.8311125627,713650.95334889)
(-440242.153739377,29958.9565509915,1123934.15053728)
(-679918.619530829,13511.9662178732,1790340.80385024)
(-1113062.16930306,3401.45856372438,2900001.51458956)
(-1835911.57835746,28.4221632366404,4735884.67078379)
(-2558088.68822235,-253.849757244642,7294227.20876338)
(0,0,0)
(0,0,0)
(0,0,0)
(0,0,0)
(0,0,0)
(0,0,0)
(-171592.246384434,184850.261789078,72676.2397400588)
(-181003.703835366,178259.455405878,157854.537169051)
(-202973.6557701,164344.840007994,271619.690557719)
(-244817.239443272,142022.811419796,438024.931994678)
(-320640.212262498,111086.817543441,695564.157826298)
(-456202.246872859,74208.8399338169,1107516.52131633)
(-698519.118345852,39255.3719614522,1780292.2339186)
(-1130041.07334043,17068.1928263082,2896666.57299644)
(-1847252.44369259,8333.71204339007,4735613.72680889)
(-2563389.45280386,4241.47241098225,7294507.85744451)
(0,0,0)
(0,0,0)
(0,0,0)
(0,0,0)
(0,0,0)
(0,0,0)
(-193051.37428307,312019.240379659,65882.3956924904)
(-202626.978281715,303134.060233985,143634.769146098)
(-225287.683488142,284227.829339174,249039.46330306)
(-269203.463791783,253367.556855435,406898.181659204)
(-349848.273516717,209243.628838324,658589.643881039)
(-493796.822171819,154007.208061887,1072588.09792479)
(-744436.794413331,98058.9400076753,1758221.3242919)
(-1172330.13771318,59608.9514729889,2888010.70335839)
(-1874501.13312247,39301.9342329973,4731543.61429127)
(-2575739.25005937,21297.6320513345,7290226.70471027)
(0,0,0)
(0,0,0)
(0,0,0)
(0,0,0)
(0,0,0)
(0,0,0)
(-233020.502392667,488242.775115521,56796.9676568048)
(-242759.795189938,478277.679724572,124413.143356156)
(-266279.885816715,456988.388613166,217932.469898878)
(-313189.70266722,421875.797836558,362613.931584975)
(-401781.737533326,370357.790224396,603281.507732227)
(-561854.298321508,302553.813008589,1016589.20110703)
(-832397.348152409,227272.188853619,1719773.3004135)
(-1254141.42715108,165795.876563135,2867727.80247443)
(-1924399.08085221,117853.033977461,4713575.78358219)
(-2597502.70891181,63421.3393567796,7268954.78518854)
(0,0,0)
(0,0,0)
(0,0,0)
(0,0,0)
(0,0,0)
(0,0,0)
(-304573.398289798,746069.914327609,46746.2590777089)
(-314286.618130181,736328.694907812,102981.862024649)
(-338259.230549686,715567.665860258,182661.815327244)
(-387695.274192975,681279.36180633,310953.525550446)
(-484525.559530286,630444.343129146,535392.532175984)
(-664557.012250048,561311.422705727,941191.934728895)
(-966369.043862365,476627.931473257,1658205.23597162)
(-1378706.56758418,382950.688639022,2819756.99147992)
(-1996909.3746679,275344.696795456,4659174.70332982)
(-2628961.56457672,145953.714262978,7205603.89300034)
(0,0,0)
(0,0,0)
(0,0,0)
(0,0,0)
(0,0,0)
(0,0,0)
(-433667.155384141,1142745.23075256,36991.8389591873)
(-442876.247716501,1134044.33239057,82152.4491929328)
(-466061.780638628,1115488.68301786,148293.212673964)
(-515025.5014264,1084564.57649486,260033.499411837)
(-612885.537409409,1037204.79506469,466158.5848857)
(-796326.143210202,967460.038391183,856336.112410444)
(-1099049.53275443,867635.354496112,1564378.22214202)
(-1492703.01774667,727934.044645208,2712097.8838825)
(-2075503.51066992,533094.539825549,4529851.55152232)
(-2668566.11478173,284591.986747624,7059779.3938194)
(0,0,0)
(0,0,0)
(0,0,0)
(0,0,0)
(0,0,0)
(0,0,0)
(-670592.792586405,1785050.90918069,28287.1141582778)
(-678754.884694213,1777497.10069298,63589.2305500716)
(-699579.696688246,1761283.28727863,117374.322977539)
(-744315.778936193,1733612.61517051,212642.063238077)
(-835205.029482058,1688708.58628554,396343.301499295)
(-1007542.51640659,1615010.88612834,756334.970168727)
(-1291611.84320275,1491078.09949032,1424504.06837726)
(-1649571.44257356,1284811.42993275,2517198.12566328)
(-2192579.51686677,961417.355003486,4281454.82735211)
(-2733143.41652275,523853.99575665,6775336.23486585)
(0,0,0)
(0,0,0)
(0,0,0)
(0,0,0)
(0,0,0)
(0,0,0)
(-1103969.04687085,2868288.23860851,20731.7174430345)
(-1110513.01241586,2861366.28754251,47375.5430093787)
(-1127296.75618343,2846248.14459021,89707.4418812313)
(-1163676.16396067,2819285.14127292,167711.079739499)
(-1238356.13232404,2772225.51764877,322550.280700305)
(-1381586.05200441,2686867.69579238,632279.523040683)
(-1619445.7766852,2524699.77898634,1218103.62022986)
(-1909272.43177396,2218431.99483153,2193755.48710505)
(-2405208.9505425,1716395.911729,3843985.88092204)
(-2856687.36835302,972930.877984802,6251596.36704691)
(0,0,0)
(0,0,0)
(0,0,0)
(0,0,0)
(0,0,0)
(0,0,0)
(-1829751.43323617,4684128.58748984,13911.0843548428)
(-1834224.8460119,4677176.86587502,32325.3520342311)
(-1845616.04437251,4661416.86938336,62772.6716135952)
(-1870064.79549418,4631470.38734739,120652.221033291)
(-1919386.09696058,4575165.49727815,237098.338364486)
(-2012046.7801474,4466038.05455159,469974.759752671)
(-2167747.2843495,4250793.71407008,911628.109018437)
(-2399238.86973263,3837740.9603661,1691558.01321649)
(-2797418.80502363,3104906.85981021,3100465.87015891)
(-3072185.23365435,1866937.75444,5278644.22735807)
(0,0,0)
(0,0,0)
(0,0,0)
(0,0,0)
(0,0,0)
(0,0,0)
(-2555251.6240672,7232295.92921588,7084.28234116285)
(-2557507.61093231,7225110.55655488,16658.2025936106)
(-2563166.98731487,7208323.97703962,32918.0822522186)
(-2575179.10466925,7175206.74215413,64360.8321147296)
(-2599055.00476866,7110747.16776208,127834.166399455)
(-2643657.57152822,6982983.7576949,254546.034784348)
(-2721586.36010508,6728621.43593549,498304.673024012)
(-2852984.00829812,6230615.153051,958414.488637224)
(-3071477.91645534,5272628.63533521,1862170.62956755)
(-3093310.54170145,3410978.69273151,3411440.2329775)
(0,0,0)
(0,0,0)
(0,0,0)
(0,0,0)
(0,0,0)
(0,0,0)
(0,0,0)
(0,0,0)
(0,0,0)
(0,0,0)
(0,0,0)
(0,0,0)
(0,0,0)
(0,0,0)
(0,0,0)
(0,0,0)
(0,0,0)
(0,0,0)
(0,0,0)
(0,0,0)
(0,0,0)
(0,0,0)
(0,0,0)
(0,0,0)
(0,0,0)
(0,0,0)
(0,0,0)
(0,0,0)
(0,0,0)
(0,0,0)
(0,0,0)
(0,0,0)
(0,0,0)
(0,0,0)
(0,0,0)
(0,0,0)
(0,0,0)
(0,0,0)
(0,0,0)
(0,0,0)
(0,0,0)
(0,0,0)
(0,0,0)
(0,0,0)
(0,0,0)
(0,0,0)
(0,0,0)
(0,0,0)
(0,0,0)
(0,0,0)
(0,0,0)
(0,0,0)
(0,0,0)
(0,0,0)
(0,0,0)
(0,0,0)
(0,0,0)
(0,0,0)
(0,0,0)
(0,0,0)
(0,0,0)
(0,0,0)
(0,0,0)
(0,0,0)
(0,0,0)
(0,0,0)
(0,0,0)
(0,0,0)
(0,0,0)
(0,0,0)
(0,0,0)
(0,0,0)
(0,0,0)
(0,0,0)
(0,0,0)
(0,0,0)
(0,0,0)
(0,0,0)
(0,0,0)
(0,0,0)
(0,0,0)
(0,0,0)
(0,0,0)
(0,0,0)
(0,0,0)
(0,0,0)
(0,0,0)
(0,0,0)
(0,0,0)
(0,0,0)
(0,0,0)
(0,0,0)
(0,0,0)
(0,0,0)
(0,0,0)
(0,0,0)
(0,0,0)
(0,0,0)
(0,0,0)
(0,0,0)
(0,0,0)
(0,0,0)
(23991035.0646286,76597.6091216111,66899.9956742583)
(23975476.978034,73007.3163465661,143652.073616738)
(23939547.1707384,65348.800690263,242375.593033271)
(23872294.0717057,52863.4607360284,379923.995429072)
(23752536.8235093,35182.0143513885,581111.430271373)
(23539596.1192636,13968.0981690454,884055.655055151)
(23149045.812098,-5098.77863685971,1356940.59801897)
(22377230.0823121,-13553.3734223946,2176952.31578195)
(20635574.5121245,-11268.9166008358,4013485.7378566)
(15905686.5888772,-5542.05476735811,9852003.11148013)
(0,0,0)
(0,0,0)
(0,0,0)
(0,0,0)
(0,0,0)
(0,0,0)
(23975052.9245468,163496.558430628,63206.4757155697)
(23959436.0763363,156709.038816289,135815.569029965)
(23923173.3562685,142067.856321591,229700.097315801)
(23854687.4642008,117671.833491208,362137.61687228)
(23731679.3094761,81881.1417055018,559869.563735329)
(23512787.3185767,36586.2810557131,865012.411354814)
(23116255.7264057,-6674.23717283463,1348563.62109508)
(22347627.6001324,-25210.1889564109,2179302.35911206)
(20617152.6444633,-18883.0540242359,4019262.00433531)
(15897614.8306884,-8082.77977625216,9857549.04180776)
(0,0,0)
(0,0,0)
(0,0,0)
(0,0,0)
(0,0,0)
(0,0,0)
(23938792.5676675,272144.008328472,56259.2041073411)
(23923111.5108792,263063.654171117,120916.69554737)
(23886144.9199108,243249.9544585,205052.589967241)
(23814703.6244047,209378.173993187,326189.757224627)
(23683202.9867041,157255.990824051,514514.243841098)
(23446398.6739964,85883.9193904116,821771.705293955)
(23027181.8931355,10076.1411994078,1330153.23532862)
(22265860.1949708,-22220.3038812699,2185723.61352531)
(20569586.4186366,-10616.7721621113,4030120.37585987)
(15877872.0489263,-460.837172213016,9865637.73022589)
(0,0,0)
(0,0,0)
(0,0,0)
(0,0,0)
(0,0,0)
(0,0,0)
(23872155.4836891,416678.713045624,47039.9051568924)
(23856495.2225431,406750.251161987,100848.88638879)
(23818668.4310616,384986.736206975,170914.383717813)
(23742602.5071677,347348.712777033,273902.231054884)
(23595465.7647535,287584.764830876,443076.550717045)
(23318116.6184396,199815.325103511,745924.824198587)
(22829175.1986752,93268.8762711189,1297910.1382551)
(22079720.8224324,41190.1812402167,2197387.99950587)
(20473499.8715895,45292.8766962234,4040329.99416157)
(15840976.972072,31958.4703261161,9866181.60163518)
(0,0,0)
(0,0,0)
(0,0,0)
(0,0,0)
(0,0,0)
(0,0,0)
(23754945.9567392,616879.359748923,37030.5942234948)
(23739656.6321544,607630.460049105,78957.7310075564)
(23701673.0336084,587649.360940387,133113.438071896)
(23621642.9311073,553866.765088551,214007.776415852)
(23456569.1400602,502025.51103893,355222.926573141)
(23118446.5811228,429503.904223667,639281.350035911)
(22473189.2501552,343925.335500739,1245817.1927446)
(21734578.2677611,268942.126396492,2201531.00819879)
(20322895.555146,196728.161067919,4027041.38996895)
(15786097.4979758,106354.362489397,9834337.03120894)
(0,0,0)
(0,0,0)
(0,0,0)
(0,0,0)
(0,0,0)
(0,0,0)
(23546581.4454668,905628.171556528,27753.1832973132)
(23532339.4471155,898013.026305988,58905.5181641445)
(23496146.1357564,881843.99197547,99253.5666898616)
(23417558.2151835,855182.517554129,162104.693570187)
(23250582.8651417,814805.330219526,282607.067794284)
(22902831.8220429,756166.58056773,553537.022152865)
(22249460.0181378,674977.974255657,1170725.42846151)
(21543429.9041636,570957.649650853,2129327.57925268)
(20194637.1353952,415920.086221367,3936745.60398992)
(15723172.9995198,219965.891462421,9728145.55667109)
(0,0,0)
(0,0,0)
(0,0,0)
(0,0,0)
(0,0,0)
(0,0,0)
(23160187.3327483,1351502.33106505,20096.3111126115)
(23147764.8305129,1345622.88221193,42717.3359553289)
(23115671.5405627,1333467.53123061,72593.1554050322)
(23044329.8204585,1314168.45425524,121712.215264985)
(22888666.7526744,1285489.06117977,223907.298104055)
(22556200.766174,1240884.58084814,472196.611198889)
(21922608.659172,1163139.43235836,1066565.2466773)
(21285430.4535272,1025012.64039362,1974258.95578959)
(20004754.1838884,748725.005878164,3740870.93133339)
(15615837.4725001,400280.148774746,9508326.38095398)
(0,0,0)
(0,0,0)
(0,0,0)
(0,0,0)
(0,0,0)
(0,0,0)
(22387717.6466212,2142359.57103602,14206.6624928093)
(22377904.9530984,2137578.64220933,30583.5329369773)
(22352333.7794836,2127860.80648286,53310.3179734655)
(22294710.4199273,2112836.04495639,93006.7393401974)
(22166495.4761729,2091165.01489812,179229.773080648)
(21884563.6367062,2056370.20567786,394345.055496118)
(21330117.9908971,1976364.74379664,928306.572431343)
(20914465.2296091,1728424.54863611,1697907.59876156)
(19621548.3938397,1324134.18516549,3392491.67104781)
(15367283.4118267,757398.579603711,9108153.05599482)
(0,0,0)
(0,0,0)
(0,0,0)
(0,0,0)
(0,0,0)
(0,0,0)
(20641548.811755,3958366.20470125,9443.7172993536)
(20634944.9281787,3953706.31697272,20896.8643011111)
(20617883.4599381,3943722.49393366,38286.2684954443)
(20580225.2864396,3926284.59518692,71298.2322869204)
(20500004.1554274,3895475.79950018,144347.791252636)
(20336799.4905528,3834421.66766734,314200.654518724)
(20042465.5496284,3696968.08048754,680135.079805686)
(19628648.0932085,3384015.07257983,1293408.18887659)
(18460396.920371,2830828.46885943,2825648.77574373)
(14611157.0764637,1845767.46168851,8350688.17949665)
(0,0,0)
(0,0,0)
(0,0,0)
(0,0,0)
(0,0,0)
(0,0,0)
(15907819.2032361,9787211.9684319,4834.00492177894)
(15904533.4224154,9782277.72192867,10972.1625738516)
(15896172.1919164,9771204.62680708,20901.446424913)
(15878086.8822591,9750194.69338433,40475.957254959)
(15840791.9896827,9709688.42728278,83166.9309767837)
(15767484.2445711,9626614.55212372,176582.826376907)
(15631627.4817945,9450176.4055201,366911.255400503)
(15371244.5516406,9083543.53305762,739904.830939735)
(14611754.5061374,8344000.07566749,1840251.39749474)
(11880631.0558208,6504204.11335231,6504623.74426441)
(0,0,0)
(0,0,0)
(0,0,0)
(0,0,0)
(0,0,0)
(0,0,0)
(0,0,0)
(0,0,0)
(0,0,0)
(0,0,0)
(0,0,0)
(0,0,0)
(0,0,0)
(0,0,0)
(0,0,0)
(0,0,0)
(0,0,0)
(0,0,0)
(0,0,0)
(0,0,0)
(0,0,0)
(0,0,0)
(0,0,0)
(0,0,0)
(0,0,0)
(0,0,0)
(0,0,0)
(0,0,0)
(0,0,0)
(0,0,0)
(0,0,0)
(0,0,0)
(0,0,0)
(0,0,0)
(0,0,0)
(0,0,0)
(0,0,0)
(0,0,0)
(0,0,0)
(0,0,0)
(0,0,0)
(0,0,0)
(0,0,0)
(0,0,0)
(0,0,0)
(0,0,0)
(0,0,0)
(0,0,0)
(0,0,0)
(0,0,0)
(0,0,0)
(0,0,0)
(0,0,0)
(0,0,0)
(0,0,0)
(0,0,0)
(0,0,0)
(0,0,0)
(0,0,0)
(0,0,0)
(0,0,0)
(0,0,0)
(0,0,0)
(0,0,0)
(0,0,0)
(0,0,0)
(0,0,0)
(0,0,0)
(0,0,0)
(0,0,0)
(0,0,0)
(0,0,0)
(0,0,0)
(0,0,0)
(0,0,0)
(0,0,0)
(0,0,0)
(0,0,0)
(0,0,0)
(0,0,0)
(0,0,0)
(0,0,0)
(0,0,0)
(0,0,0)
(0,0,0)
(0,0,0)
(0,0,0)
(0,0,0)
(0,0,0)
(0,0,0)
(0,0,0)
(0,0,0)
(0,0,0)
(0,0,0)
(0,0,0)
(0,0,0)
(0,0,0)
(0,0,0)
(0,0,0)
(0,0,0)
(0,0,0)
(0,0,0)
(-417502.353458148,60628.4258676135,51158.3962633783)
(-434666.952033931,57011.0977771422,107540.632598385)
(-473657.292384353,49026.7844261136,174967.715339226)
(-544774.384597027,35257.063325059,260028.512361096)
(-666466.45550959,14282.9780981627,367998.217326024)
(-869474.372660175,-12915.3323936633,493233.445687661)
(-1201353.30523206,-37935.8036073013,584817.770669229)
(-1726569.87907408,-43170.5798459429,435037.71594561)
(-2479719.83487741,-29665.0725452209,-716753.460463033)
(-3039887.23990289,-13595.0331257869,-6054335.19451288)
(0,0,0)
(0,0,0)
(0,0,0)
(0,0,0)
(0,0,0)
(0,0,0)
(-435803.211417178,127283.067982586,47450.8978931839)
(-452682.677012342,120434.773001173,99395.3800620113)
(-491278.816927355,105089.299998054,161034.441730161)
(-562445.030055495,77704.6932739823,238968.710081804)
(-685959.004219827,33375.561470517,340763.844449616)
(-894440.492135014,-29858.502717243,468184.229529198)
(-1234091.25866082,-95784.7609355585,579629.57596814)
(-1754248.58833818,-106985.779558918,448570.368195904)
(-2493613.14631634,-66426.6619078144,-700652.847617605)
(-3044810.05798964,-27797.5587262236,-6040776.02929494)
(0,0,0)
(0,0,0)
(0,0,0)
(0,0,0)
(0,0,0)
(0,0,0)
(-476701.822587784,205548.496257021,40478.366025095)
(-493029.944310968,196490.678364694,83813.3198959693)
(-530905.083273075,175787.203172831,133414.823949347)
(-602696.120179001,137256.968226198,194511.697624982)
(-732566.9665031,69435.6744270792,277470.941919783)
(-962500.140824824,-42471.0943627078,402231.752430696)
(-1343678.09632452,-187962.909375648,568519.294375061)
(-1850173.94170058,-208374.873173827,489191.928705545)
(-2535712.49877422,-106718.975927904,-661967.435819303)
(-3058327.19328632,-37365.6753660315,-6012950.67292259)
(0,0,0)
(0,0,0)
(0,0,0)
(0,0,0)
(0,0,0)
(0,0,0)
(-549768.865978454,299419.89827707,31302.3516916917)
(-565228.546377748,289886.762122105,62879.4408993243)
(-601983.47424128,267944.914913928,94623.0385052922)
(-675172.399258471,226343.340079668,126560.977122156)
(-819455.105052522,148638.195422054,165528.729977392)
(-1112395.22936525,94.1546368714851,256724.732826912)
(-1684232.81016786,-262774.869726119,548194.106064619)
(-2164147.67600068,-304009.422149272,590946.557517397)
(-2641133.51704007,-105355.48956486,-592534.13617183)
(-3087251.28449563,-22944.7116069625,-5975477.43931901)
(0,0,0)
(0,0,0)
(0,0,0)
(0,0,0)
(0,0,0)
(0,0,0)
(-672350.398313768,408312.370474195,21653.2869000529)
(-686507.684387545,400158.909582262,40794.8600260798)
(-721199.563435649,382007.194083234,52854.5819449852)
(-794384.688944027,349720.110616056,48754.8355041762)
(-955745.143848518,296021.291109092,16935.4277700279)
(-1368971.38190499,213873.572418896,-6176.62293997945)
(-2719698.4812424,120155.195125532,507030.447650104)
(-3226632.84688512,77774.3033761411,789707.240815164)
(-2847940.13440579,68454.576653816,-510017.731807489)
(-3134675.30408725,43429.9119561529,-5952370.14926333)
(0,0,0)
(0,0,0)
(0,0,0)
(0,0,0)
(0,0,0)
(0,0,0)
(-874165.425766668,518893.311783427,13415.3339683761)
(-886570.133826555,513179.154412425,22554.0741245548)
(-917701.400300427,501175.171468063,20483.0368407243)
(-985787.298626058,481817.001262614,-5018.93595207852)
(-1142659.96677787,452803.055611055,-65308.4644902834)
(-1554810.82784767,409464.336700687,-100007.174837248)
(-2839752.65378748,348019.102612218,464590.993645554)
(-3304289.33316025,312871.963478152,780461.97491158)
(-2944254.34607846,225957.756805024,-534900.319721766)
(-3182068.4703093,112582.845344903,-5995562.37923715)
(0,0,0)
(0,0,0)
(0,0,0)
(0,0,0)
(0,0,0)
(0,0,0)
(-1204015.79028661,578736.065753357,7609.77310913479)
(-1214259.01454614,575534.652526659,10527.524098166)
(-1240461.20625473,569953.398609709,1131.4478181584)
(-1299820.54138472,564413.554759579,-34065.3397913341)
(-1443835.7321948,563213.8878255,-108724.283092352)
(-1847388.6469534,569140.530995173,-161561.66021527)
(-3187479.53508903,570509.966214848,429285.074487272)
(-3616628.26226808,653936.845358723,693528.312446154)
(-3089763.93693651,365448.254881343,-648194.660761035)
(-3260253.54832093,151704.726408032,-6107976.11695891)
(0,0,0)
(0,0,0)
(0,0,0)
(0,0,0)
(0,0,0)
(0,0,0)
(-1730658.45651291,395981.648377214,4379.92455442047)
(-1738378.47072311,394471.657853622,4975.7470931429)
(-1758380.0675358,393280.068093868,-4387.6713273895)
(-1804942.18356212,398238.777559352,-35310.8865935936)
(-1924087.82385451,424619.977529591,-102884.272226016)
(-2294233.24685898,508583.689605563,-160281.143227022)
(-3757641.37195663,688693.254803727,512544.335082028)
(-3063307.51515332,442565.7843821,404937.544865295)
(-3205817.15444541,162931.864703712,-861931.112627727)
(-3381343.38077405,1246.71290279887,-6259596.90247746)
(0,0,0)
(0,0,0)
(0,0,0)
(0,0,0)
(0,0,0)
(0,0,0)
(-2486281.34948134,-775778.976837697,2840.1904954942)
(-2491273.37215139,-777033.953337581,3813.50606103638)
(-2504060.42997114,-778273.931938375,560.800046773274)
(-2532666.10907936,-776052.774496149,-9006.84833455965)
(-2598268.9865452,-763846.079835324,-19018.244952798)
(-2755152.8030844,-734957.605374343,19724.7477085366)
(-3098201.35177013,-713899.090929686,266233.39888472)
(-3210983.2570195,-873423.953109935,125103.89064899)
(-3506686.48413113,-1017876.71365817,-1023754.72244271)
(-3562350.36926398,-884832.895065261,-6260918.26470276)
(0,0,0)
(0,0,0)
(0,0,0)
(0,0,0)
(0,0,0)
(0,0,0)
(-3044910.77731858,-6121363.40594882,1563.81371007519)
(-3047331.59306905,-6122964.30868158,2608.58858276629)
(-3053440.68515379,-6125604.03425744,2800.97201624784)
(-3066659.81753441,-6128415.01946586,3159.32082369394)
(-3094850.91727973,-6131545.32048933,9750.87248436471)
(-3153917.30076291,-6141198.14549118,40642.3619794107)
(-3263133.29330885,-6181726.39423228,106479.844429608)
(-3384850.76097927,-6287977.07922481,-19622.3127913872)
(-3563401.08414625,-6268085.46923355,-891008.562888148)
(-3438896.6198769,-5376718.5439208,-5376345.83429064)
(0,0,0)
(0,0,0)
(0,0,0)
(0,0,0)
(0,0,0)
(0,0,0)
(0,0,0)
(0,0,0)
(0,0,0)
(0,0,0)
(0,0,0)
(0,0,0)
(0,0,0)
(0,0,0)
(0,0,0)
(0,0,0)
(0,0,0)
(0,0,0)
(0,0,0)
(0,0,0)
(0,0,0)
(0,0,0)
(0,0,0)
(0,0,0)
(0,0,0)
(0,0,0)
(0,0,0)
(0,0,0)
(0,0,0)
(0,0,0)
(0,0,0)
(0,0,0)
(0,0,0)
(0,0,0)
(0,0,0)
(0,0,0)
(0,0,0)
(0,0,0)
(0,0,0)
(0,0,0)
(0,0,0)
(0,0,0)
(0,0,0)
(0,0,0)
(0,0,0)
(0,0,0)
(0,0,0)
(0,0,0)
(0,0,0)
(0,0,0)
(0,0,0)
(0,0,0)
(0,0,0)
(0,0,0)
(0,0,0)
(0,0,0)
(0,0,0)
(0,0,0)
(0,0,0)
(0,0,0)
(0,0,0)
(0,0,0)
(0,0,0)
(0,0,0)
(0,0,0)
(0,0,0)
(0,0,0)
(0,0,0)
(0,0,0)
(0,0,0)
(0,0,0)
(0,0,0)
(0,0,0)
(0,0,0)
(0,0,0)
(0,0,0)
(0,0,0)
(0,0,0)
(0,0,0)
(0,0,0)
(0,0,0)
(0,0,0)
(0,0,0)
(0,0,0)
(0,0,0)
(0,0,0)
(0,0,0)
(0,0,0)
(0,0,0)
(0,0,0)
(0,0,0)
(0,0,0)
(0,0,0)
(0,0,0)
(0,0,0)
(0,0,0)
(0,0,0)
(0,0,0)
(0,0,0)
(0,0,0)
(0,0,0)
(0,0,0)
(-493663.500942216,42416.3292911418,33744.8181929261)
(-508266.982363425,39059.9468593752,68284.9016630452)
(-540497.350941489,31455.8138347415,103669.146385439)
(-596862.623706673,17603.6809982507,138153.704496836)
(-687867.710955583,-5229.72052348451,164784.680466313)
(-827798.674834424,-37937.9099343397,161046.892574902)
(-1028826.62039401,-70719.2527651873,59239.460502042)
(-1278023.87913021,-70844.109626355,-318462.429815477)
(-1477384.0244673,-43510.458240154,-1277287.78198543)
(-1283839.09609396,-18462.5160238055,-3014873.40977056)
(0,0,0)
(0,0,0)
(0,0,0)
(0,0,0)
(0,0,0)
(0,0,0)
(-510348.571838261,86590.9077991679,30370.7819130559)
(-524110.740795072,80273.5426806853,60585.2498744746)
(-554550.272574192,65595.9825776215,89716.5367784329)
(-607907.774279042,37503.9489445768,115279.013055653)
(-694737.862772451,-13228.4278482568,132056.57893305)
(-830625.09443397,-97929.4767442714,128232.748041939)
(-1030341.48845626,-205379.623462171,59143.3485343633)
(-1271968.49114537,-202860.096437133,-291120.761847664)
(-1467591.37326977,-108448.897686926,-1252204.09544746)
(-1277823.28363716,-41243.8049710637,-2996409.58085269)
(0,0,0)
(0,0,0)
(0,0,0)
(0,0,0)
(0,0,0)
(0,0,0)
(-546860.840032253,132739.505998158,24010.4192454793)
(-559032.597120451,124522.392477253,45764.2222583939)
(-585894.223063363,104869.243249376,61480.101376926)
(-633041.567654254,64848.9293871245,64480.5684096328)
(-711181.67593237,-17452.5901995526,47319.4401901983)
(-841501.070007651,-192372.033189498,20762.9258182523)
(-1061524.14386535,-528501.067379507,61730.4172764218)
(-1272342.59700799,-522290.453765129,-196670.570088169)
(-1443828.16344199,-212076.441778127,-1184927.3613292)
(-1263145.78119122,-66269.3778064097,-2955083.20058897)
(0,0,0)
(0,0,0)
(0,0,0)
(0,0,0)
(0,0,0)
(0,0,0)
(-609768.471550105,177008.11167201,15730.9998978008)
(-619693.620406454,168756.407024178,25962.0593795824)
(-641298.374797267,148864.946409423,21281.2567755224)
(-678397.44892143,107239.517928022,-17884.2821024157)
(-739615.70698694,12420.8393480282,-127597.109715577)
(-860548.72268566,-256452.060442146,-315363.589142521)
(-1297931.606354,-1298201.26558973,68035.4052538368)
(-1365587.68745175,-1366474.71404368,113659.676983463)
(-1388426.8378847,-312128.152834883,-1038995.29111516)
(-1233462.06049313,-70367.6834260757,-2888686.20949798)
(0,0,0)
(0,0,0)
(0,0,0)
(0,0,0)
(0,0,0)
(0,0,0)
(-709088.3438185,206387.666972317,7358.39020442344)
(-716370.341103512,200040.519977789,5936.93396677889)
(-731454.361879141,185534.508853906,-20477.8300342122)
(-753256.681259169,158381.670401913,-112747.990192962)
(-768787.382738627,109160.933823997,-396445.845778822)
(-692786.940276642,28008.5285568277,-1357090.87640614)
(-7.97616410570626e-05,-2.16092994579599e-05,5.2968820892955e-05)