/*--------------------------------*- C++ -*----------------------------------*\
| =========                 |                                                 |
| \\      /  F ield         | foam-extend: Open Source CFD                    |
|  \\    /   O peration     | Version:     4.0                                |
|   \\  /    A nd           | Web:         http://www.foam-extend.org         |
|    \\/     M anipulation  |                                                 |
\*---------------------------------------------------------------------------*/
FoamFile
{
    version 2.0;
    format ascii;
    class volVectorField;
    location "2441";
    object      H;
}
// * * * * * * * * * * * * * * * * * * * * * * * * * * * * * * * * * * * * * //

dimensions      [0 1 -1 0 0 0 0];

internalField   nonuniform List<vector>
4096
(
(0,0,0)
(0,0,0)
(0,0,0)
(0,0,0)
(0,0,0)
(0,0,0)
(0,0,0)
(0,0,0)
(0,0,0)
(0,0,0)
(0,0,0)
(0,0,0)
(0,0,0)
(0,0,0)
(0,0,0)
(0,0,0)
(0,0,0)
(0,0,0)
(0,0,0)
(0,0,0)
(0,0,0)
(0,0,0)
(0,0,0)
(0,0,0)
(0,0,0)
(0,0,0)
(0,0,0)
(0,0,0)
(0,0,0)
(0,0,0)
(0,0,0)
(0,0,0)
(0,0,0)
(0,0,0)
(0,0,0)
(0,0,0)
(0,0,0)
(0,0,0)
(0,0,0)
(0,0,0)
(0,0,0)
(0,0,0)
(0,0,0)
(0,0,0)
(0,0,0)
(0,0,0)
(0,0,0)
(0,0,0)
(0,0,0)
(0,0,0)
(0,0,0)
(0,0,0)
(0,0,0)
(0,0,0)
(0,0,0)
(0,0,0)
(0,0,0)
(0,0,0)
(0,0,0)
(0,0,0)
(0,0,0)
(0,0,0)
(0,0,0)
(0,0,0)
(0,0,0)
(0,0,0)
(0,0,0)
(0,0,0)
(0,0,0)
(0,0,0)
(0,0,0)
(0,0,0)
(0,0,0)
(0,0,0)
(0,0,0)
(0,0,0)
(0,0,0)
(0,0,0)
(0,0,0)
(0,0,0)
(0,0,0)
(0,0,0)
(0,0,0)
(0,0,0)
(0,0,0)
(0,0,0)
(0,0,0)
(0,0,0)
(0,0,0)
(0,0,0)
(0,0,0)
(0,0,0)
(0,0,0)
(0,0,0)
(0,0,0)
(0,0,0)
(0,0,0)
(0,0,0)
(0,0,0)
(0,0,0)
(0,0,0)
(0,0,0)
(0,0,0)
(0,0,0)
(0,0,0)
(0,0,0)
(0,0,0)
(0,0,0)
(0,0,0)
(0,0,0)
(0,0,0)
(0,0,0)
(0,0,0)
(0,0,0)
(0,0,0)
(0,0,0)
(0,0,0)
(0,0,0)
(0,0,0)
(0,0,0)
(0,0,0)
(0,0,0)
(0,0,0)
(0,0,0)
(0,0,0)
(0,0,0)
(0,0,0)
(0,0,0)
(0,0,0)
(0,0,0)
(0,0,0)
(0,0,0)
(0,0,0)
(0,0,0)
(0,0,0)
(0,0,0)
(0,0,0)
(0,0,0)
(0,0,0)
(0,0,0)
(0,0,0)
(0,0,0)
(0,0,0)
(0,0,0)
(0,0,0)
(0,0,0)
(0,0,0)
(0,0,0)
(0,0,0)
(0,0,0)
(0,0,0)
(0,0,0)
(0,0,0)
(0,0,0)
(0,0,0)
(0,0,0)
(0,0,0)
(0,0,0)
(0,0,0)
(0,0,0)
(0,0,0)
(0,0,0)
(0,0,0)
(0,0,0)
(0,0,0)
(0,0,0)
(0,0,0)
(0,0,0)
(0,0,0)
(0,0,0)
(0,0,0)
(0,0,0)
(0,0,0)
(0,0,0)
(0,0,0)
(0,0,0)
(0,0,0)
(0,0,0)
(0,0,0)
(0,0,0)
(0,0,0)
(0,0,0)
(0,0,0)
(0,0,0)
(0,0,0)
(0,0,0)
(0,0,0)
(0,0,0)
(0,0,0)
(0,0,0)
(0,0,0)
(0,0,0)
(0,0,0)
(0,0,0)
(0,0,0)
(0,0,0)
(0,0,0)
(0,0,0)
(0,0,0)
(0,0,0)
(0,0,0)
(0,0,0)
(0,0,0)
(0,0,0)
(0,0,0)
(0,0,0)
(0,0,0)
(0,0,0)
(0,0,0)
(0,0,0)
(0,0,0)
(0,0,0)
(0,0,0)
(0,0,0)
(0,0,0)
(0,0,0)
(0,0,0)
(0,0,0)
(0,0,0)
(0,0,0)
(0,0,0)
(0,0,0)
(0,0,0)
(0,0,0)
(0,0,0)
(0,0,0)
(0,0,0)
(0,0,0)
(0,0,0)
(0,0,0)
(0,0,0)
(0,0,0)
(0,0,0)
(0,0,0)
(0,0,0)
(0,0,0)
(0,0,0)
(0,0,0)
(0,0,0)
(0,0,0)
(0,0,0)
(0,0,0)
(0,0,0)
(0,0,0)
(0,0,0)
(0,0,0)
(0,0,0)
(0,0,0)
(0,0,0)
(0,0,0)
(0,0,0)
(0,0,0)
(0,0,0)
(0,0,0)
(0,0,0)
(0,0,0)
(0,0,0)
(0,0,0)
(0,0,0)
(0,0,0)
(0,0,0)
(0,0,0)
(0,0,0)
(0,0,0)
(0,0,0)
(0,0,0)
(0,0,0)
(0,0,0)
(0,0,0)
(0,0,0)
(0,0,0)
(0,0,0)
(0,0,0)
(0,0,0)
(0,0,0)
(0,0,0)
(0,0,0)
(0,0,0)
(0,0,0)
(0,0,0)
(0,0,0)
(0,0,0)
(0,0,0)
(0,0,0)
(0,0,0)
(0,0,0)
(0,0,0)
(0,0,0)
(0,0,0)
(0,0,0)
(0,0,0)
(0,0,0)
(0,0,0)
(0,0,0)
(0,0,0)
(0,0,0)
(0,0,0)
(0,0,0)
(0,0,0)
(0,0,0)
(0,0,0)
(0,0,0)
(0,0,0)
(0,0,0)
(0,0,0)
(0,0,0)
(0,0,0)
(0,0,0)
(0,0,0)
(0,0,0)
(0,0,0)
(0,0,0)
(0,0,0)
(0,0,0)
(0,0,0)
(0,0,0)
(0,0,0)
(0,0,0)
(0,0,0)
(0,0,0)
(0,0,0)
(0,0,0)
(0,0,0)
(0,0,0)
(0,0,0)
(0,0,0)
(0,0,0)
(0,0,0)
(0,0,0)
(0,0,0)
(0,0,0)
(0,0,0)
(0,0,0)
(0,0,0)
(0,0,0)
(0,0,0)
(0,0,0)
(0,0,0)
(0,0,0)
(0,0,0)
(0,0,0)
(0,0,0)
(0,0,0)
(0,0,0)
(0,0,0)
(0,0,0)
(0,0,0)
(0,0,0)
(0,0,0)
(0,0,0)
(0,0,0)
(0,0,0)
(0,0,0)
(0,0,0)
(0,0,0)
(0,0,0)
(0,0,0)
(0,0,0)
(0,0,0)
(0,0,0)
(0,0,0)
(0,0,0)
(0,0,0)
(0,0,0)
(0,0,0)
(0,0,0)
(0,0,0)
(0,0,0)
(0,0,0)
(0,0,0)
(0,0,0)
(0,0,0)
(0,0,0)
(0,0,0)
(0,0,0)
(0,0,0)
(0,0,0)
(0,0,0)
(0,0,0)
(0,0,0)
(0,0,0)
(0,0,0)
(0,0,0)
(0,0,0)
(0,0,0)
(0,0,0)
(0,0,0)
(0,0,0)
(0,0,0)
(0,0,0)
(0,0,0)
(0,0,0)
(0,0,0)
(0,0,0)
(0,0,0)
(0,0,0)
(0,0,0)
(0,0,0)
(0,0,0)
(0,0,0)
(0,0,0)
(0,0,0)
(0,0,0)
(0,0,0)
(0,0,0)
(0,0,0)
(0,0,0)
(0,0,0)
(0,0,0)
(0,0,0)
(0,0,0)
(0,0,0)
(0,0,0)
(0,0,0)
(0,0,0)
(0,0,0)
(0,0,0)
(0,0,0)
(0,0,0)
(0,0,0)
(0,0,0)
(0,0,0)
(0,0,0)
(0,0,0)
(0,0,0)
(0,0,0)
(0,0,0)
(0,0,0)
(0,0,0)
(0,0,0)
(0,0,0)
(0,0,0)
(0,0,0)
(0,0,0)
(0,0,0)
(0,0,0)
(0,0,0)
(0,0,0)
(0,0,0)
(0,0,0)
(0,0,0)
(0,0,0)
(0,0,0)
(0,0,0)
(0,0,0)
(0,0,0)
(0,0,0)
(0,0,0)
(0,0,0)
(0,0,0)
(0,0,0)
(0,0,0)
(0,0,0)
(0,0,0)
(0,0,0)
(0,0,0)
(0,0,0)
(0,0,0)
(0,0,0)
(0,0,0)
(0,0,0)
(0,0,0)
(0,0,0)
(0,0,0)
(0,0,0)
(0,0,0)
(0,0,0)
(0,0,0)
(0,0,0)
(0,0,0)
(0,0,0)
(0,0,0)
(0,0,0)
(0,0,0)
(0,0,0)
(0,0,0)
(0,0,0)
(0,0,0)
(0,0,0)
(0,0,0)
(0,0,0)
(0,0,0)
(0,0,0)
(0,0,0)
(0,0,0)
(0,0,0)
(0,0,0)
(0,0,0)
(0,0,0)
(0,0,0)
(0,0,0)
(0,0,0)
(0,0,0)
(0,0,0)
(0,0,0)
(0,0,0)
(0,0,0)
(0,0,0)
(0,0,0)
(0,0,0)
(0,0,0)
(0,0,0)
(0,0,0)
(0,0,0)
(0,0,0)
(0,0,0)
(0,0,0)
(0,0,0)
(0,0,0)
(0,0,0)
(0,0,0)
(0,0,0)
(0,0,0)
(0,0,0)
(0,0,0)
(0,0,0)
(0,0,0)
(0,0,0)
(0,0,0)
(0,0,0)
(0,0,0)
(0,0,0)
(0,0,0)
(0,0,0)
(0,0,0)
(0,0,0)
(0,0,0)
(0,0,0)
(0,0,0)
(0,0,0)
(0,0,0)
(0,0,0)
(0,0,0)
(0,0,0)
(0,0,0)
(0,0,0)
(0,0,0)
(0,0,0)
(0,0,0)
(0,0,0)
(0,0,0)
(0,0,0)
(0,0,0)
(0,0,0)
(0,0,0)
(0,0,0)
(0,0,0)
(0,0,0)
(0,0,0)
(0,0,0)
(0,0,0)
(0,0,0)
(0,0,0)
(0,0,0)
(0,0,0)
(0,0,0)
(0,0,0)
(0,0,0)
(0,0,0)
(0,0,0)
(0,0,0)
(0,0,0)
(0,0,0)
(0,0,0)
(0,0,0)
(0,0,0)
(0,0,0)
(0,0,0)
(0,0,0)
(0,0,0)
(0,0,0)
(0,0,0)
(0,0,0)
(0,0,0)
(0,0,0)
(0,0,0)
(0,0,0)
(0,0,0)
(0,0,0)
(0,0,0)
(0,0,0)
(0,0,0)
(0,0,0)
(0,0,0)
(0,0,0)
(0,0,0)
(0,0,0)
(0,0,0)
(0,0,0)
(0,0,0)
(0,0,0)
(0,0,0)
(0,0,0)
(0,0,0)
(0,0,0)
(0,0,0)
(0,0,0)
(0,0,0)
(0,0,0)
(0,0,0)
(0,0,0)
(0,0,0)
(0,0,0)
(0,0,0)
(0,0,0)
(0,0,0)
(0,0,0)
(0,0,0)
(0,0,0)
(0,0,0)
(0,0,0)
(0,0,0)
(0,0,0)
(0,0,0)
(0,0,0)
(0,0,0)
(0,0,0)
(0,0,0)
(0,0,0)
(0,0,0)
(0,0,0)
(0,0,0)
(0,0,0)
(0,0,0)
(0,0,0)
(0,0,0)
(0,0,0)
(0,0,0)
(0,0,0)
(0,0,0)
(0,0,0)
(0,0,0)
(0,0,0)
(0,0,0)
(0,0,0)
(0,0,0)
(0,0,0)
(0,0,0)
(0,0,0)
(0,0,0)
(0,0,0)
(0,0,0)
(0,0,0)
(0,0,0)
(0,0,0)
(0,0,0)
(0,0,0)
(0,0,0)
(0,0,0)
(0,0,0)
(0,0,0)
(0,0,0)
(0,0,0)
(0,0,0)
(0,0,0)
(0,0,0)
(0,0,0)
(0,0,0)
(0,0,0)
(0,0,0)
(0,0,0)
(0,0,0)
(0,0,0)
(0,0,0)
(0,0,0)
(0,0,0)
(0,0,0)
(0,0,0)
(0,0,0)
(0,0,0)
(0,0,0)
(0,0,0)
(0,0,0)
(0,0,0)
(0,0,0)
(0,0,0)
(0,0,0)
(0,0,0)
(0,0,0)
(0,0,0)
(0,0,0)
(0,0,0)
(0,0,0)
(0,0,0)
(0,0,0)
(0,0,0)
(0,0,0)
(0,0,0)
(0,0,0)
(0,0,0)
(0,0,0)
(0,0,0)
(0,0,0)
(0,0,0)
(0,0,0)
(0,0,0)
(0,0,0)
(0,0,0)
(0,0,0)
(0,0,0)
(0,0,0)
(0,0,0)
(0,0,0)
(0,0,0)
(0,0,0)
(0,0,0)
(0,0,0)
(0,0,0)
(0,0,0)
(0,0,0)
(0,0,0)
(0,0,0)
(0,0,0)
(0,0,0)
(0,0,0)
(0,0,0)
(0,0,0)
(0,0,0)
(0,0,0)
(0,0,0)
(0,0,0)
(0,0,0)
(0,0,0)
(0,0,0)
(0,0,0)
(0,0,0)
(0,0,0)
(0,0,0)
(0,0,0)
(0,0,0)
(0,0,0)
(0,0,0)
(0,0,0)
(0,0,0)
(0,0,0)
(0,0,0)
(0,0,0)
(0,0,0)
(0,0,0)
(0,0,0)
(0,0,0)
(0,0,0)
(0,0,0)
(0,0,0)
(0,0,0)
(0,0,0)
(0,0,0)
(0,0,0)
(0,0,0)
(0,0,0)
(0,0,0)
(0,0,0)
(0,0,0)
(0,0,0)
(0,0,0)
(0,0,0)
(0,0,0)
(0,0,0)
(0,0,0)
(0,0,0)
(0,0,0)
(0,0,0)
(0,0,0)
(0,0,0)
(0,0,0)
(0,0,0)
(0,0,0)
(0,0,0)
(0,0,0)
(0,0,0)
(0,0,0)
(0,0,0)
(0,0,0)
(0,0,0)
(0,0,0)
(0,0,0)
(0,0,0)
(0,0,0)
(0,0,0)
(0,0,0)
(0,0,0)
(0,0,0)
(0,0,0)
(0,0,0)
(0,0,0)
(0,0,0)
(0,0,0)
(0,0,0)
(0,0,0)
(0,0,0)
(0,0,0)
(0,0,0)
(0,0,0)
(0,0,0)
(0,0,0)
(0,0,0)
(0,0,0)
(0,0,0)
(0,0,0)
(0,0,0)
(0,0,0)
(0,0,0)
(0,0,0)
(0,0,0)
(0,0,0)
(0,0,0)
(0,0,0)
(0,0,0)
(0,0,0)
(0,0,0)
(0,0,0)
(0,0,0)
(0,0,0)
(0,0,0)
(0,0,0)
(0,0,0)
(0,0,0)
(0,0,0)
(0,0,0)
(6.82966088435923e-13,1.04969881256962e-11,-1.28804104060503e-11)
(1.16455508228949e-12,2.36107178441922e-11,-1.22204732350444e-11)
(2.24751396750508e-12,3.96389687779599e-11,-1.11409951791337e-11)
(2.56950729507482e-12,6.1102313148585e-11,-9.72829056909019e-12)
(1.72709748565055e-12,9.38520554574744e-11,-7.88486382139829e-12)
(3.06207383066005e-13,1.49693120457402e-10,-5.79324487022434e-12)
(-1.08898357294217e-13,2.41312666294807e-10,-4.24350338122639e-12)
(-1.7423300137228e-13,3.93010110773359e-10,-3.04713798232652e-12)
(7.44554468956612e-13,6.42838511305811e-10,-1.89129685958893e-12)
(8.61127033645173e-13,9.89252200255076e-10,-9.53473299440628e-13)
(0,0,0)
(0,0,0)
(0,0,0)
(0,0,0)
(0,0,0)
(0,0,0)
(1.12232438031952e-12,9.89324805747725e-12,-2.65079092887559e-11)
(1.86303294507705e-12,2.25267143487526e-11,-2.5523416894857e-11)
(3.22816191161999e-12,3.82448378889659e-11,-2.3402459806125e-11)
(4.4340367479895e-12,5.92621678614247e-11,-2.03476197785332e-11)
(4.70118504785816e-12,9.17846776023826e-11,-1.66352364870635e-11)
(3.31429532959692e-12,1.47674311623126e-10,-1.24144862125158e-11)
(2.4310773292897e-12,2.39877905045896e-10,-8.81587136468683e-12)
(1.85414179409523e-12,3.92151775588343e-10,-5.7483871447593e-12)
(3.43511738954419e-12,6.42092662680129e-10,-3.55459477682434e-12)
(4.2934620464863e-12,9.88020710446492e-10,-1.67671637675417e-12)
(0,0,0)
(0,0,0)
(0,0,0)
(0,0,0)
(0,0,0)
(0,0,0)
(3.76941365141234e-13,9.07103591254892e-12,-4.36904818102706e-11)
(2.52485282760819e-12,2.02949586652699e-11,-4.24070283862655e-11)
(5.28878354615451e-12,3.47818867591835e-11,-3.96019520059706e-11)
(6.85262988060372e-12,5.50527633372617e-11,-3.54024260853651e-11)
(7.94945134556678e-12,8.73782831243227e-11,-3.00541820388325e-11)
(7.07036453893391e-12,1.43310297609318e-10,-2.37582138089159e-11)
(6.15224531447126e-12,2.36444487037697e-10,-1.73697930287167e-11)
(4.87457993765057e-12,3.90416148102299e-10,-1.24195533561821e-11)
(5.60397206863415e-12,6.41164976146799e-10,-8.510456762733e-12)
(5.83099857886628e-12,9.87412503744018e-10,-4.18184442267438e-12)
(0,0,0)
(0,0,0)
(0,0,0)
(0,0,0)
(0,0,0)
(0,0,0)
(1.39753597624132e-12,8.07908600514417e-12,-6.58629895448369e-11)
(3.38034476806903e-12,1.76295285484569e-11,-6.40635549198164e-11)
(7.2618910886205e-12,3.03468853321917e-11,-6.12926151323778e-11)
(9.35684194351411e-12,4.90035408367313e-11,-5.71242455049592e-11)
(1.10570013567298e-11,8.02481162089988e-11,-5.10775018299774e-11)
(1.14732937317726e-11,1.35814414117767e-10,-4.34978990586576e-11)
(9.78098689699392e-12,2.31213738614522e-10,-3.47393137861395e-11)
(7.39315450507053e-12,3.87658742689876e-10,-2.66099223141772e-11)
(7.19679034330492e-12,6.38732996759759e-10,-1.85390399853475e-11)
(6.49481750648207e-12,9.84912186435295e-10,-9.50634370749976e-12)
(0,0,0)
(0,0,0)
(0,0,0)
(0,0,0)
(0,0,0)
(0,0,0)
(3.73917850099819e-12,6.47841233441914e-12,-1.00261315736146e-10)
(5.73047279718023e-12,1.44736688501763e-11,-9.8380382102525e-11)
(9.08035005795889e-12,2.53359837511848e-11,-9.57275213939678e-11)
(1.22030116394162e-11,4.17277999807545e-11,-9.16878980117041e-11)
(1.51376228481184e-11,7.0804316951352e-11,-8.57775775900917e-11)
(1.59213837467685e-11,1.24931681127542e-10,-7.83365064205126e-11)
(1.31144045537385e-11,2.22041750347516e-10,-6.89674753860811e-11)
(1.04553748252712e-11,3.81087533398919e-10,-5.53108683048469e-11)
(9.25009582637267e-12,6.32057345941238e-10,-3.88044615447348e-11)
(8.51181481946376e-12,9.76973853200974e-10,-1.99874336493281e-11)
(0,0,0)
(0,0,0)
(0,0,0)
(0,0,0)
(0,0,0)
(0,0,0)
(5.84424056074369e-12,4.98963049946561e-12,-1.56199200381655e-10)
(9.52188751357897e-12,1.13521638091629e-11,-1.54868070456764e-10)
(1.33565067693933e-11,2.0237343421261e-11,-1.52312677589036e-10)
(1.64680223208226e-11,3.4364397843075e-11,-1.48156699785385e-10)
(1.93531786344426e-11,6.09341467260172e-11,-1.42437548132379e-10)
(1.97962526336408e-11,1.1338660372012e-10,-1.34272340480371e-10)
(1.66880547464284e-11,2.10594537682238e-10,-1.21545127735704e-10)
(1.37549727744887e-11,3.67676914480341e-10,-1.0137685294237e-10)
(1.14907979165427e-11,6.15751918930208e-10,-7.33767877680051e-11)
(1.01081546822287e-11,9.58551194092074e-10,-3.86545283063265e-11)
(0,0,0)
(0,0,0)
(0,0,0)
(0,0,0)
(0,0,0)
(0,0,0)
(7.71026627571325e-12,3.8684562561411e-12,-2.46288818760429e-10)
(1.25820720467721e-11,8.69696539629548e-12,-2.45368707688404e-10)
(1.75053010528771e-11,1.5838600943277e-11,-2.42868341010948e-10)
(2.03508930080004e-11,2.79695169717964e-11,-2.38255697973833e-10)
(2.21099629965053e-11,5.12668656999215e-11,-2.32101587887704e-10)
(2.21549895832603e-11,9.97359224505371e-11,-2.22688947720526e-10)
(2.07149828008856e-11,1.92653510104413e-10,-2.04270934131689e-10)
(1.89196690125636e-11,3.42302225937316e-10,-1.75827576298265e-10)
(1.69881778607109e-11,5.82832015848692e-10,-1.31443090935448e-10)
(1.46459167694235e-11,9.21116933506071e-10,-7.13037345589379e-11)
(0,0,0)
(0,0,0)
(0,0,0)
(0,0,0)
(0,0,0)
(0,0,0)
(8.27434619185666e-12,2.91776443546791e-12,-3.95448976281466e-10)
(1.4724436697291e-11,6.24542032462891e-12,-3.94890840933295e-10)
(2.04358891307583e-11,1.20405225667411e-11,-3.92541245323416e-10)
(2.39318022473293e-11,2.26400447491643e-11,-3.87735831668081e-10)
(2.57148430585751e-11,4.28010872510176e-11,-3.80689931434083e-10)
(2.65690635021238e-11,8.48348532950546e-11,-3.68934788437892e-10)
(2.64515881292942e-11,1.65550012861659e-10,-3.4536470103513e-10)
(2.52707425615513e-11,2.98984944518346e-10,-3.02893087855357e-10)
(2.31082917053092e-11,5.23437869070277e-10,-2.33879806736612e-10)
(2.00802168923277e-11,8.50044413350637e-10,-1.32167697688639e-10)
(0,0,0)
(0,0,0)
(0,0,0)
(0,0,0)
(0,0,0)
(0,0,0)
(9.22849565890732e-12,2.15739080053785e-12,-6.427308900106e-10)
(1.80566942984364e-11,3.93426923972011e-12,-6.41860805647188e-10)
(2.42887406504663e-11,8.17924721467748e-12,-6.39520543497777e-10)
(2.81893342635137e-11,1.65446846153937e-11,-6.34935802581642e-10)
(3.07445794193498e-11,3.19152443214947e-11,-6.266513106491e-10)
(3.2391276622572e-11,6.34711229590978e-11,-6.1114300788172e-10)
(3.17193303011208e-11,1.2415185187145e-10,-5.80478547846263e-10)
(3.01037196909238e-11,2.30701929938249e-10,-5.23236069022425e-10)
(2.84012448865797e-11,4.22111048048785e-10,-4.22796748185875e-10)
(2.58911835378905e-11,7.17494560700394e-10,-2.53924730515939e-10)
(0,0,0)
(0,0,0)
(0,0,0)
(0,0,0)
(0,0,0)
(0,0,0)
(1.00032400103583e-11,1.09166368537789e-12,-9.88173612423805e-10)
(1.90938396867461e-11,1.88549873194775e-12,-9.86493829449044e-10)
(2.47828352567298e-11,4.2951175339253e-12,-9.83736194833659e-10)
(2.85034499224129e-11,8.95835484656898e-12,-9.79170697643774e-10)
(3.18277783722689e-11,1.75786524585892e-11,-9.70493280140558e-10)
(3.48272869335857e-11,3.48237812678971e-11,-9.52495739398937e-10)
(3.37632926671575e-11,6.80575595905489e-11,-9.16098847493674e-10)
(3.179865586631e-11,1.3083441861984e-10,-8.47341827477521e-10)
(3.1148336377239e-11,2.53468159118451e-10,-7.16689079607429e-10)
(3.0291784347229e-11,4.63418489607525e-10,-4.6352393626948e-10)
(0,0,0)
(0,0,0)
(0,0,0)
(0,0,0)
(0,0,0)
(0,0,0)
(0,0,0)
(0,0,0)
(0,0,0)
(0,0,0)
(0,0,0)
(0,0,0)
(0,0,0)
(0,0,0)
(0,0,0)
(0,0,0)
(0,0,0)
(0,0,0)
(0,0,0)
(0,0,0)
(0,0,0)
(0,0,0)
(0,0,0)
(0,0,0)
(0,0,0)
(0,0,0)
(0,0,0)
(0,0,0)
(0,0,0)
(0,0,0)
(0,0,0)
(0,0,0)
(0,0,0)
(0,0,0)
(0,0,0)
(0,0,0)
(0,0,0)
(0,0,0)
(0,0,0)
(0,0,0)
(0,0,0)
(0,0,0)
(0,0,0)
(0,0,0)
(0,0,0)
(0,0,0)
(0,0,0)
(0,0,0)
(0,0,0)
(0,0,0)
(0,0,0)
(0,0,0)
(0,0,0)
(0,0,0)
(0,0,0)
(0,0,0)
(0,0,0)
(0,0,0)
(0,0,0)
(0,0,0)
(0,0,0)
(0,0,0)
(0,0,0)
(0,0,0)
(0,0,0)
(0,0,0)
(0,0,0)
(0,0,0)
(0,0,0)
(0,0,0)
(0,0,0)
(0,0,0)
(0,0,0)
(0,0,0)
(0,0,0)
(0,0,0)
(0,0,0)
(0,0,0)
(0,0,0)
(0,0,0)
(0,0,0)
(0,0,0)
(0,0,0)
(0,0,0)
(0,0,0)
(0,0,0)
(0,0,0)
(0,0,0)
(0,0,0)
(0,0,0)
(0,0,0)
(0,0,0)
(0,0,0)
(0,0,0)
(0,0,0)
(0,0,0)
(0,0,0)
(0,0,0)
(0,0,0)
(0,0,0)
(0,0,0)
(0,0,0)
(6.2676898564624e-13,1.89395485347862e-11,-2.40810707027002e-11)
(1.16908052181764e-12,4.26970261987809e-11,-2.2623077785461e-11)
(2.228940246433e-12,7.13236629114721e-11,-2.0208002752272e-11)
(2.5662258345443e-12,1.09871001735782e-10,-1.70849433087515e-11)
(1.70285638950481e-12,1.69461307149653e-10,-1.33966220153591e-11)
(7.75274728361557e-13,2.67211871013465e-10,-9.00206159568068e-12)
(1.29497492806018e-13,4.23143917970492e-10,-4.85099893390039e-12)
(-4.71738939224441e-13,6.86399778403871e-10,-2.51965869468235e-12)
(5.52579534109e-13,1.18482153193953e-09,-1.58333805951839e-12)
(1.13914354231219e-12,2.32038990421073e-09,-8.29224168096653e-13)
(0,0,0)
(0,0,0)
(0,0,0)
(0,0,0)
(0,0,0)
(0,0,0)
(9.60044131349532e-13,1.79305547552048e-11,-4.92589469203314e-11)
(1.97383153983091e-12,4.03407880058472e-11,-4.71881325923784e-11)
(3.63627301381782e-12,6.80718682261763e-11,-4.30942152862951e-11)
(4.93105798067178e-12,1.06211128061448e-10,-3.71447374773607e-11)
(4.88682925137872e-12,1.65322783165427e-10,-2.93670691260704e-11)
(4.07969449555798e-12,2.62934269454103e-10,-1.98233072093557e-11)
(2.79701111744381e-12,4.20772408338394e-10,-1.07276704305221e-11)
(1.39597691248098e-12,6.85730950935603e-10,-5.50853033223984e-12)
(2.4849255231561e-12,1.18462451954589e-09,-3.47716305682731e-12)
(3.22495237234011e-12,2.32003422526113e-09,-1.82521695020275e-12)
(0,0,0)
(0,0,0)
(0,0,0)
(0,0,0)
(0,0,0)
(0,0,0)
(8.54378485415752e-14,1.62890198080462e-11,-8.00859345808938e-11)
(2.38520656413175e-12,3.62488569870065e-11,-7.78368988818874e-11)
(5.52425905255294e-12,6.18431109515449e-11,-7.26573274080865e-11)
(7.55360833460944e-12,9.83258806211772e-11,-6.43571278931188e-11)
(8.78365003093013e-12,1.56096293806413e-10,-5.25340854379319e-11)
(8.17782725031036e-12,2.53835755743459e-10,-3.76216791684732e-11)
(6.43275406507733e-12,4.15948520648607e-10,-2.25753139449326e-11)
(3.72288875645085e-12,6.85353031976145e-10,-1.46770740091948e-11)
(3.7073391154174e-12,1.18515225851105e-09,-1.04800441394741e-11)
(4.14947146470419e-12,2.32025147341645e-09,-5.60277000381736e-12)
(0,0,0)
(0,0,0)
(0,0,0)
(0,0,0)
(0,0,0)
(0,0,0)
(1.19877502194519e-12,1.37227276135948e-11,-1.20629999258803e-10)
(3.76526467890793e-12,3.06528243095433e-11,-1.1807835574517e-10)
(8.10442304220071e-12,5.3203899177609e-11,-1.12676031251964e-10)
(1.05858391245107e-11,8.61183187289739e-11,-1.0333189412027e-10)
(1.29211978430331e-11,1.40592583830961e-10,-8.96140649693722e-11)
(1.35974414494904e-11,2.37472664008797e-10,-7.18931854606267e-11)
(1.08235836920382e-11,4.07052422317994e-10,-5.22042387180692e-11)
(5.89348146730082e-12,6.84247013155225e-10,-3.96874298308493e-11)
(4.83974488445664e-12,1.18449550620729e-09,-2.86400151967712e-11)
(4.92680703416504e-12,2.31822939538768e-09,-1.53560486295844e-11)
(0,0,0)
(0,0,0)
(0,0,0)
(0,0,0)
(0,0,0)
(0,0,0)
(3.34702670233122e-12,1.06515087571177e-11,-1.81774348666725e-10)
(6.19911712963466e-12,2.43610344997203e-11,-1.7918977026602e-10)
(1.01393670056188e-11,4.31344412686565e-11,-1.73952236434885e-10)
(1.3656093355476e-11,7.10755606031118e-11,-1.65198317778863e-10)
(1.75667219038873e-11,1.19678887947562e-10,-1.52805746964433e-10)
(1.80974301197622e-11,2.11743402571593e-10,-1.37860591652492e-10)
(1.09050101377806e-11,3.86703616234652e-10,-1.23952543802296e-10)
(7.35958698389971e-12,6.77063918660229e-10,-9.68486252767458e-11)
(6.73849494188244e-12,1.17683873988214e-09,-6.78650533179896e-11)
(6.94704027847087e-12,2.30724197165999e-09,-3.52486697107425e-11)
(0,0,0)
(0,0,0)
(0,0,0)
(0,0,0)
(0,0,0)
(0,0,0)
(5.63428487917664e-12,8.05029355615531e-12,-2.78001917685877e-10)
(9.62169305871618e-12,1.85281510324677e-11,-2.75618942916771e-10)
(1.35992714437214e-11,3.32903846863098e-11,-2.70648899429616e-10)
(1.71437515391099e-11,5.61516215226766e-11,-2.63124541053794e-10)
(2.08552520085458e-11,9.83006231692068e-11,-2.53012076294389e-10)
(2.07197211585142e-11,1.86660459475592e-10,-2.39074745148966e-10)
(1.44608075309616e-11,3.69327360675459e-10,-2.19812007396159e-10)
(1.11295961431918e-11,6.57218094979772e-10,-1.8262597725994e-10)
(9.68844153630601e-12,1.15074725684472e-09,-1.31396153241854e-10)
(8.88788696220292e-12,2.27669957418962e-09,-6.89094574986593e-11)
(0,0,0)
(0,0,0)
(0,0,0)
(0,0,0)
(0,0,0)
(0,0,0)
(7.74084702436116e-12,6.0945416688381e-12,-4.31051684954161e-10)
(1.2533250440983e-11,1.39869743017788e-11,-4.28860102185716e-10)
(1.66907363922997e-11,2.53401603713531e-11,-4.24478495062737e-10)
(1.95262551444928e-11,4.35915239684815e-11,-4.1816625050899e-10)
(2.11631012782545e-11,7.83202266852632e-11,-4.10132964663274e-10)
(1.86380451499385e-11,1.57720780849774e-10,-3.97238501437115e-10)
(1.9375122210219e-11,3.38658336948981e-10,-3.63192894447305e-10)
(1.78524650686251e-11,6.13283273596445e-10,-3.17490577225813e-10)
(1.62429682623723e-11,1.09295713293476e-09,-2.35093656385626e-10)
(1.44147023663245e-11,2.21092692421277e-09,-1.26633083265843e-10)
(0,0,0)
(0,0,0)
(0,0,0)
(0,0,0)
(0,0,0)
(0,0,0)
(8.47658447861601e-12,4.52014237011234e-12,-6.90033202951117e-10)
(1.46859921723223e-11,1.02260121166391e-11,-6.88291904582845e-10)
(1.94917508274899e-11,1.91345174190323e-11,-6.84425776708543e-10)
(2.29812621471033e-11,3.51410440155278e-11,-6.78350885548949e-10)
(2.48455429918781e-11,6.72639210988592e-11,-6.69151667449277e-10)
(2.43627064353448e-11,1.40401525366159e-10,-6.53517516124208e-10)
(2.53781359397631e-11,2.93687848480419e-10,-6.16801125394664e-10)
(2.45404760227324e-11,5.32663985299691e-10,-5.40964823875782e-10)
(2.27230036789851e-11,9.86469201260763e-10,-4.16304494787336e-10)
(2.04623718532913e-11,2.0855880749167e-09,-2.36274621635728e-10)
(0,0,0)
(0,0,0)
(0,0,0)
(0,0,0)
(0,0,0)
(0,0,0)
(9.42413841065484e-12,3.11413117436981e-12,-1.18420208771712e-09)
(1.77652026567979e-11,6.65985466606827e-12,-1.18274938517009e-09)
(2.35881294150853e-11,1.32157406588738e-11,-1.17924596405364e-09)
(2.74911720998003e-11,2.61836459332029e-11,-1.1726890739167e-09)
(2.95728685148917e-11,5.22432949470455e-11,-1.16003231016347e-09)
(3.0374158278295e-11,1.08224112094646e-10,-1.13618415795121e-09)
(3.05711437581867e-11,2.183785593498e-10,-1.08618815359635e-09)
(2.95319101727692e-11,4.08734820333463e-10,-9.86015322701135e-10)
(2.81721161469595e-11,8.07454900190101e-10,-8.09402682943677e-10)
(2.60425241148387e-11,1.84970794460759e-09,-5.05416234175072e-10)
(0,0,0)
(0,0,0)
(0,0,0)
(0,0,0)
(0,0,0)
(0,0,0)
(9.41512072097507e-12,1.84760581555449e-12,-2.31728902854981e-09)
(1.82217038033095e-11,3.57185936164239e-12,-2.31537094626858e-09)
(2.4512455600768e-11,7.13323221866901e-12,-2.31149073420411e-09)
(2.87843872657668e-11,1.43943305832088e-11,-2.30430830053924e-09)
(3.14088900892283e-11,2.91928247680415e-11,-2.28989629815302e-09)
(3.32541762962073e-11,5.96125281815528e-11,-2.26055953680196e-09)
(3.30638322415432e-11,1.18625429845841e-10,-2.20018740659098e-09)
(3.1980326616103e-11,2.3245949000619e-10,-2.08140001124085e-09)
(3.14513521577436e-11,5.04059697924706e-10,-1.84938852531834e-09)
(3.01863376853633e-11,1.34472658599714e-09,-1.34523878805804e-09)
(0,0,0)
(0,0,0)
(0,0,0)
(0,0,0)
(0,0,0)
(0,0,0)
(0,0,0)
(0,0,0)
(0,0,0)
(0,0,0)
(0,0,0)
(0,0,0)
(0,0,0)
(0,0,0)
(0,0,0)
(0,0,0)
(0,0,0)
(0,0,0)
(0,0,0)
(0,0,0)
(0,0,0)
(0,0,0)
(0,0,0)
(0,0,0)
(0,0,0)
(0,0,0)
(0,0,0)
(0,0,0)
(0,0,0)
(0,0,0)
(0,0,0)
(0,0,0)
(0,0,0)
(0,0,0)
(0,0,0)
(0,0,0)
(0,0,0)
(0,0,0)
(0,0,0)
(0,0,0)
(0,0,0)
(0,0,0)
(0,0,0)
(0,0,0)
(0,0,0)
(0,0,0)
(0,0,0)
(0,0,0)
(0,0,0)
(0,0,0)
(0,0,0)
(0,0,0)
(0,0,0)
(0,0,0)
(0,0,0)
(0,0,0)
(0,0,0)
(0,0,0)
(0,0,0)
(0,0,0)
(0,0,0)
(0,0,0)
(0,0,0)
(0,0,0)
(0,0,0)
(0,0,0)
(0,0,0)
(0,0,0)
(0,0,0)
(0,0,0)
(0,0,0)
(0,0,0)
(0,0,0)
(0,0,0)
(0,0,0)
(0,0,0)
(0,0,0)
(0,0,0)
(0,0,0)
(0,0,0)
(0,0,0)
(0,0,0)
(0,0,0)
(0,0,0)
(0,0,0)
(0,0,0)
(0,0,0)
(0,0,0)
(0,0,0)
(0,0,0)
(0,0,0)
(0,0,0)
(0,0,0)
(0,0,0)
(0,0,0)
(0,0,0)
(0,0,0)
(0,0,0)
(0,0,0)
(0,0,0)
(0,0,0)
(0,0,0)
(1.77769847697917e-13,2.5321905289793e-11,-3.28266448229925e-11)
(1.11024368118845e-12,5.6514463265129e-11,-3.11139740461317e-11)
(2.35767548898186e-12,9.38017167185389e-11,-2.74931132643728e-11)
(2.53777821558784e-12,1.43735160093806e-10,-2.25284250808442e-11)
(1.446819953774e-12,2.18219240669081e-10,-1.61700097489029e-11)
(9.0181362603734e-13,3.3208056562251e-10,-8.45890557762813e-12)
(1.69666885458775e-13,4.98835558679452e-10,-9.49531230049782e-13)
(-7.39232106302139e-13,7.40123479413014e-10,2.11533017441431e-12)
(-4.52196348221638e-15,1.08225417221531e-09,1.60694167966896e-12)
(6.65598323599335e-13,1.49590916385062e-09,6.85577383025269e-13)
(0,0,0)
(0,0,0)
(0,0,0)
(0,0,0)
(0,0,0)
(0,0,0)
(5.30764750183625e-13,2.39873978974986e-11,-6.70204708080309e-11)
(1.97184525210495e-12,5.29193181390635e-11,-6.44536087157181e-11)
(3.9155524780951e-12,8.88693347498226e-11,-5.85592839448199e-11)
(5.03863707034255e-12,1.3795050835064e-10,-4.92037930043034e-11)
(4.56955669429107e-12,2.11248282481787e-10,-3.54175804982434e-11)
(4.08257142718009e-12,3.25738823180327e-10,-1.76254478729349e-11)
(2.40175870791855e-12,4.97490135623079e-10,-1.26558644714149e-13)
(-2.57471401989261e-13,7.42352890103625e-10,5.35872345320261e-12)
(3.05240450915735e-13,1.08504627773374e-09,3.45776599521944e-12)
(1.18248726732678e-12,1.4986681361111e-09,1.10914454343125e-12)
(0,0,0)
(0,0,0)
(0,0,0)
(0,0,0)
(0,0,0)
(0,0,0)
(4.02694342064705e-13,2.19112418941723e-11,-1.08625067226811e-10)
(2.8016677689007e-12,4.73986758826793e-11,-1.05173695002875e-10)
(5.86327131226999e-12,7.99410684967805e-11,-9.73123092076539e-11)
(7.93812777092967e-12,1.25460035887418e-10,-8.43561141085705e-11)
(9.3749537370433e-12,1.95358979802727e-10,-6.33477157691098e-11)
(9.49455376129897e-12,3.10954417561496e-10,-3.32333085473599e-11)
(7.4306124608562e-12,4.95478631737839e-10,2.8737382536632e-13)
(6.31877706490366e-13,7.48797926547324e-10,5.14565348236699e-12)
(-5.13182715387232e-13,1.09147970957654e-09,4.66553896232829e-13)
(5.68779489036885e-13,1.50346736196935e-09,-1.60084097784002e-12)
(0,0,0)
(0,0,0)
(0,0,0)
(0,0,0)
(0,0,0)
(0,0,0)
(1.71835036423165e-12,1.82201662451168e-11,-1.6262327295705e-10)
(4.65472999668756e-12,3.95511010877503e-11,-1.58863337676699e-10)
(8.82974381855214e-12,6.73149256394891e-11,-1.49972304353385e-10)
(1.19107680989216e-11,1.05871791948719e-10,-1.34623566711949e-10)
(1.61140142179445e-11,1.67530281060293e-10,-1.09645290871179e-10)
(1.96377561439385e-11,2.79561269494709e-10,-7.09069394599814e-11)
(1.86555808883838e-11,4.89692944938941e-10,-1.81450786140782e-11)
(2.02916132855119e-12,7.61615785527966e-10,-1.68376155124042e-11)
(-7.87455357298923e-13,1.10106566867121e-09,-1.95403725815077e-11)
(5.58182131589133e-13,1.50770046092934e-09,-1.32239360105773e-11)
(0,0,0)
(0,0,0)
(0,0,0)
(0,0,0)
(0,0,0)
(0,0,0)
(3.36366350227128e-12,1.38837491381366e-11,-2.37155006761151e-10)
(6.79446676675906e-12,3.03157823328311e-11,-2.33439854119231e-10)
(1.12295049306696e-11,5.19541978048531e-11,-2.24964330587627e-10)
(1.61874616216014e-11,8.07824956327816e-11,-2.10504155709833e-10)
(2.39998313715228e-11,1.27158061437309e-10,-1.89019339498017e-10)
(2.92723253645893e-11,2.17557393423218e-10,-1.6292959182641e-10)
(1.1773471705982e-12,4.34709148874064e-10,-1.67157958018866e-10)
(-1.77816129461667e-12,7.74658750666788e-10,-1.09174377568237e-10)
(2.13594373838622e-13,1.10499008073436e-09,-7.57600764340341e-11)
(2.24076803762336e-12,1.50157625820095e-09,-4.02810856917151e-11)
(0,0,0)
(0,0,0)
(0,0,0)
(0,0,0)
(0,0,0)
(0,0,0)
(5.20706199757352e-12,9.83861773605821e-12,-3.46695339459659e-10)
(9.19282630186647e-12,2.14483293285385e-11,-3.43280100216533e-10)
(1.40251373827596e-11,3.68205607485184e-11,-3.36112950609856e-10)
(1.95913843353208e-11,5.62798597875995e-11,-3.24854698665308e-10)
(2.68983173459266e-11,8.88243291237302e-11,-3.0993970662004e-10)
(3.03966620316605e-11,1.70585086865249e-10,-2.9090451551451e-10)
(7.94380112153478e-12,4.36242226893319e-10,-2.8688639932347e-10)
(3.83459350798278e-12,7.64301938949046e-10,-2.27304455118699e-10)
(4.99186970370355e-12,1.08036200132471e-09,-1.60019101916767e-10)
(5.75107943940092e-12,1.46813189569166e-09,-8.2920607446654e-11)
(0,0,0)
(0,0,0)
(0,0,0)
(0,0,0)
(0,0,0)
(0,0,0)
(7.1236635552124e-12,6.57146182900007e-12,-5.07239429645897e-10)
(1.1912605502236e-11,1.42747379041749e-11,-5.04511197094616e-10)
(1.65841347913092e-11,2.44460122124058e-11,-4.99647869430331e-10)
(1.99434492516136e-11,3.60351319998112e-11,-4.93422104801265e-10)
(1.93249436386656e-11,5.26743062749995e-11,-4.90529143905154e-10)
(1.91169364382877e-12,1.0375934494234e-10,-4.92933541294476e-10)
(1.86432934574711e-11,4.04598146266467e-10,-4.23643448742569e-10)
(1.60748325242943e-11,7.14948919383217e-10,-4.08141405529925e-10)
(1.42703268173126e-11,1.0108035624323e-09,-2.85570997811508e-10)
(1.3120468396949e-11,1.38896034527859e-09,-1.47354882204884e-10)
(0,0,0)
(0,0,0)
(0,0,0)
(0,0,0)
(0,0,0)
(0,0,0)
(8.14129730625908e-12,4.27247465610495e-12,-7.43932460928371e-10)
(1.43860217487872e-11,9.5692032819542e-12,-7.41784089449094e-10)
(1.93356364272336e-11,1.7144602316992e-11,-7.37924585451637e-10)
(2.27394421308834e-11,2.90451846273363e-11,-7.33062867617062e-10)
(2.42320178177032e-11,5.4823270212443e-11,-7.30224950215183e-10)
(1.98237289777327e-11,1.33431971987345e-10,-7.30149569959189e-10)
(2.48511235517392e-11,3.67165088055915e-10,-7.08457757339507e-10)
(2.38093118992299e-11,5.9225902588144e-10,-6.03940882252667e-10)
(2.1707431598443e-11,8.74399318256048e-10,-4.40823299563111e-10)
(2.00678805272983e-11,1.24262674017061e-09,-2.37530560911126e-10)
(0,0,0)
(0,0,0)
(0,0,0)
(0,0,0)
(0,0,0)
(0,0,0)
(9.2379612223648e-12,2.55819817878706e-12,-1.08072619616937e-09)
(1.73497768447483e-11,6.19116020578518e-12,-1.07920716654048e-09)
(2.31137477189897e-11,1.2166378292996e-11,-1.07547182223358e-09)
(2.66237236962466e-11,2.38395641915604e-11,-1.06918302458853e-09)
(2.87751864821822e-11,5.05618749381827e-11,-1.05971043941976e-09)
(2.89897378362709e-11,1.16848392572926e-10,-1.04159708696772e-09)
(3.01514423671016e-11,2.5759249685256e-10,-9.93462207457679e-10)
(2.91946007414364e-11,4.28554118159019e-10,-8.72084962817183e-10)
(2.75808696443608e-11,6.71760275946922e-10,-6.74626780833494e-10)
(2.56076485500864e-11,1.00535240707118e-09,-3.87076373556207e-10)
(0,0,0)
(0,0,0)
(0,0,0)
(0,0,0)
(0,0,0)
(0,0,0)
(9.34464425458207e-12,1.47420216035144e-12,-1.49219371406375e-09)
(1.79133511002143e-11,3.44158034529578e-12,-1.49018890814769e-09)
(2.44632541548757e-11,6.91308039108152e-12,-1.48575815277681e-09)
(2.87667154625755e-11,1.40368906589846e-11,-1.47789266456592e-09)
(3.12649535065031e-11,3.03190924406764e-11,-1.46395109411035e-09)
(3.24945742660636e-11,6.64437985170492e-11,-1.43460132237138e-09)
(3.29018667376819e-11,1.34191707185386e-10,-1.36949053680759e-09)
(3.24283306986149e-11,2.30952209459126e-10,-1.236154254315e-09)
(3.13613128227496e-11,3.84643354925445e-10,-1.00505565445698e-09)