/*--------------------------------*- C++ -*----------------------------------*\
| =========                 |                                                 |
| \\      /  F ield         | foam-extend: Open Source CFD                    |
|  \\    /   O peration     | Version:     4.0                                |
|   \\  /    A nd           | Web:         http://www.foam-extend.org         |
|    \\/     M anipulation  |                                                 |
\*---------------------------------------------------------------------------*/
FoamFile
{
    version 2.0;
    format ascii;
    class volVectorField;
    location "3056";
    object      H;
}
// * * * * * * * * * * * * * * * * * * * * * * * * * * * * * * * * * * * * * //

dimensions      [0 1 -1 0 0 0 0];

internalField   nonuniform List<vector>
4096
(
(0,0,0)
(0,0,0)
(0,0,0)
(0,0,0)
(0,0,0)
(0,0,0)
(0,0,0)
(0,0,0)
(0,0,0)
(0,0,0)
(0,0,0)
(0,0,0)
(0,0,0)
(0,0,0)
(0,0,0)
(0,0,0)
(0,0,0)
(0,0,0)
(0,0,0)
(0,0,0)
(0,0,0)
(0,0,0)
(0,0,0)
(0,0,0)
(0,0,0)
(0,0,0)
(0,0,0)
(0,0,0)
(0,0,0)
(0,0,0)
(0,0,0)
(0,0,0)
(0,0,0)
(0,0,0)
(0,0,0)
(0,0,0)
(0,0,0)
(0,0,0)
(0,0,0)
(0,0,0)
(0,0,0)
(0,0,0)
(0,0,0)
(0,0,0)
(0,0,0)
(0,0,0)
(0,0,0)
(0,0,0)
(0,0,0)
(0,0,0)
(0,0,0)
(0,0,0)
(0,0,0)
(0,0,0)
(0,0,0)
(0,0,0)
(0,0,0)
(0,0,0)
(0,0,0)
(0,0,0)
(0,0,0)
(0,0,0)
(0,0,0)
(0,0,0)
(0,0,0)
(0,0,0)
(0,0,0)
(0,0,0)
(0,0,0)
(0,0,0)
(0,0,0)
(0,0,0)
(0,0,0)
(0,0,0)
(0,0,0)
(0,0,0)
(0,0,0)
(0,0,0)
(0,0,0)
(0,0,0)
(0,0,0)
(0,0,0)
(0,0,0)
(0,0,0)
(0,0,0)
(0,0,0)
(0,0,0)
(0,0,0)
(0,0,0)
(0,0,0)
(0,0,0)
(0,0,0)
(0,0,0)
(0,0,0)
(0,0,0)
(0,0,0)
(0,0,0)
(0,0,0)
(0,0,0)
(0,0,0)
(0,0,0)
(0,0,0)
(0,0,0)
(0,0,0)
(0,0,0)
(0,0,0)
(0,0,0)
(0,0,0)
(0,0,0)
(0,0,0)
(0,0,0)
(0,0,0)
(0,0,0)
(0,0,0)
(0,0,0)
(0,0,0)
(0,0,0)
(0,0,0)
(0,0,0)
(0,0,0)
(0,0,0)
(0,0,0)
(0,0,0)
(0,0,0)
(0,0,0)
(0,0,0)
(0,0,0)
(0,0,0)
(0,0,0)
(0,0,0)
(0,0,0)
(0,0,0)
(0,0,0)
(0,0,0)
(0,0,0)
(0,0,0)
(0,0,0)
(0,0,0)
(0,0,0)
(0,0,0)
(0,0,0)
(0,0,0)
(0,0,0)
(0,0,0)
(0,0,0)
(0,0,0)
(0,0,0)
(0,0,0)
(0,0,0)
(0,0,0)
(0,0,0)
(0,0,0)
(0,0,0)
(0,0,0)
(0,0,0)
(0,0,0)
(0,0,0)
(0,0,0)
(0,0,0)
(0,0,0)
(0,0,0)
(0,0,0)
(0,0,0)
(0,0,0)
(0,0,0)
(0,0,0)
(0,0,0)
(0,0,0)
(0,0,0)
(0,0,0)
(0,0,0)
(0,0,0)
(0,0,0)
(0,0,0)
(0,0,0)
(0,0,0)
(0,0,0)
(0,0,0)
(0,0,0)
(0,0,0)
(0,0,0)
(0,0,0)
(0,0,0)
(0,0,0)
(0,0,0)
(0,0,0)
(0,0,0)
(0,0,0)
(0,0,0)
(0,0,0)
(0,0,0)
(0,0,0)
(0,0,0)
(0,0,0)
(0,0,0)
(0,0,0)
(0,0,0)
(0,0,0)
(0,0,0)
(0,0,0)
(0,0,0)
(0,0,0)
(0,0,0)
(0,0,0)
(0,0,0)
(0,0,0)
(0,0,0)
(0,0,0)
(0,0,0)
(0,0,0)
(0,0,0)
(0,0,0)
(0,0,0)
(0,0,0)
(0,0,0)
(0,0,0)
(0,0,0)
(0,0,0)
(0,0,0)
(0,0,0)
(0,0,0)
(0,0,0)
(0,0,0)
(0,0,0)
(0,0,0)
(0,0,0)
(0,0,0)
(0,0,0)
(0,0,0)
(0,0,0)
(0,0,0)
(0,0,0)
(0,0,0)
(0,0,0)
(0,0,0)
(0,0,0)
(0,0,0)
(0,0,0)
(0,0,0)
(0,0,0)
(0,0,0)
(0,0,0)
(0,0,0)
(0,0,0)
(0,0,0)
(0,0,0)
(0,0,0)
(0,0,0)
(0,0,0)
(0,0,0)
(0,0,0)
(0,0,0)
(0,0,0)
(0,0,0)
(0,0,0)
(0,0,0)
(0,0,0)
(0,0,0)
(0,0,0)
(0,0,0)
(0,0,0)
(0,0,0)
(0,0,0)
(0,0,0)
(0,0,0)
(0,0,0)
(0,0,0)
(0,0,0)
(0,0,0)
(0,0,0)
(0,0,0)
(0,0,0)
(0,0,0)
(0,0,0)
(0,0,0)
(0,0,0)
(0,0,0)
(0,0,0)
(0,0,0)
(0,0,0)
(0,0,0)
(0,0,0)
(0,0,0)
(0,0,0)
(0,0,0)
(0,0,0)
(0,0,0)
(0,0,0)
(0,0,0)
(0,0,0)
(0,0,0)
(0,0,0)
(0,0,0)
(0,0,0)
(0,0,0)
(0,0,0)
(0,0,0)
(0,0,0)
(0,0,0)
(0,0,0)
(0,0,0)
(0,0,0)
(0,0,0)
(0,0,0)
(0,0,0)
(0,0,0)
(0,0,0)
(0,0,0)
(0,0,0)
(0,0,0)
(0,0,0)
(0,0,0)
(0,0,0)
(0,0,0)
(0,0,0)
(0,0,0)
(0,0,0)
(0,0,0)
(0,0,0)
(0,0,0)
(0,0,0)
(0,0,0)
(0,0,0)
(0,0,0)
(0,0,0)
(0,0,0)
(0,0,0)
(0,0,0)
(0,0,0)
(0,0,0)
(0,0,0)
(0,0,0)
(0,0,0)
(0,0,0)
(0,0,0)
(0,0,0)
(0,0,0)
(0,0,0)
(0,0,0)
(0,0,0)
(0,0,0)
(0,0,0)
(0,0,0)
(0,0,0)
(0,0,0)
(0,0,0)
(0,0,0)
(0,0,0)
(0,0,0)
(0,0,0)
(0,0,0)
(0,0,0)
(0,0,0)
(0,0,0)
(0,0,0)
(0,0,0)
(0,0,0)
(0,0,0)
(0,0,0)
(0,0,0)
(0,0,0)
(0,0,0)
(0,0,0)
(0,0,0)
(0,0,0)
(0,0,0)
(0,0,0)
(0,0,0)
(0,0,0)
(0,0,0)
(0,0,0)
(0,0,0)
(0,0,0)
(0,0,0)
(0,0,0)
(0,0,0)
(0,0,0)
(0,0,0)
(0,0,0)
(0,0,0)
(0,0,0)
(0,0,0)
(0,0,0)
(0,0,0)
(0,0,0)
(0,0,0)
(0,0,0)
(0,0,0)
(0,0,0)
(0,0,0)
(0,0,0)
(0,0,0)
(0,0,0)
(0,0,0)
(0,0,0)
(0,0,0)
(0,0,0)
(0,0,0)
(0,0,0)
(0,0,0)
(0,0,0)
(0,0,0)
(0,0,0)
(0,0,0)
(0,0,0)
(0,0,0)
(0,0,0)
(0,0,0)
(0,0,0)
(0,0,0)
(0,0,0)
(0,0,0)
(0,0,0)
(0,0,0)
(0,0,0)
(0,0,0)
(0,0,0)
(0,0,0)
(0,0,0)
(0,0,0)
(0,0,0)
(0,0,0)
(0,0,0)
(0,0,0)
(0,0,0)
(0,0,0)
(0,0,0)
(0,0,0)
(0,0,0)
(0,0,0)
(0,0,0)
(0,0,0)
(0,0,0)
(0,0,0)
(0,0,0)
(0,0,0)
(0,0,0)
(0,0,0)
(0,0,0)
(0,0,0)
(0,0,0)
(0,0,0)
(0,0,0)
(0,0,0)
(0,0,0)
(0,0,0)
(0,0,0)
(0,0,0)
(0,0,0)
(0,0,0)
(0,0,0)
(0,0,0)
(0,0,0)
(0,0,0)
(0,0,0)
(0,0,0)
(0,0,0)
(0,0,0)
(0,0,0)
(0,0,0)
(0,0,0)
(0,0,0)
(0,0,0)
(0,0,0)
(0,0,0)
(0,0,0)
(0,0,0)
(0,0,0)
(0,0,0)
(0,0,0)
(0,0,0)
(0,0,0)
(0,0,0)
(0,0,0)
(0,0,0)
(0,0,0)
(0,0,0)
(0,0,0)
(0,0,0)
(0,0,0)
(0,0,0)
(0,0,0)
(0,0,0)
(0,0,0)
(0,0,0)
(0,0,0)
(0,0,0)
(0,0,0)
(0,0,0)
(0,0,0)
(0,0,0)
(0,0,0)
(0,0,0)
(0,0,0)
(0,0,0)
(0,0,0)
(0,0,0)
(0,0,0)
(0,0,0)
(0,0,0)
(0,0,0)
(0,0,0)
(0,0,0)
(0,0,0)
(0,0,0)
(0,0,0)
(0,0,0)
(0,0,0)
(0,0,0)
(0,0,0)
(0,0,0)
(0,0,0)
(0,0,0)
(0,0,0)
(0,0,0)
(0,0,0)
(0,0,0)
(0,0,0)
(0,0,0)
(0,0,0)
(0,0,0)
(0,0,0)
(0,0,0)
(0,0,0)
(0,0,0)
(0,0,0)
(0,0,0)
(0,0,0)
(0,0,0)
(0,0,0)
(0,0,0)
(0,0,0)
(0,0,0)
(0,0,0)
(0,0,0)
(0,0,0)
(0,0,0)
(0,0,0)
(0,0,0)
(0,0,0)
(0,0,0)
(0,0,0)
(0,0,0)
(0,0,0)
(0,0,0)
(0,0,0)
(0,0,0)
(0,0,0)
(0,0,0)
(0,0,0)
(0,0,0)
(0,0,0)
(0,0,0)
(0,0,0)
(0,0,0)
(0,0,0)
(0,0,0)
(0,0,0)
(0,0,0)
(0,0,0)
(0,0,0)
(0,0,0)
(0,0,0)
(0,0,0)
(0,0,0)
(0,0,0)
(0,0,0)
(0,0,0)
(0,0,0)
(0,0,0)
(0,0,0)
(0,0,0)
(0,0,0)
(0,0,0)
(0,0,0)
(0,0,0)
(0,0,0)
(0,0,0)
(0,0,0)
(0,0,0)
(0,0,0)
(0,0,0)
(0,0,0)
(0,0,0)
(0,0,0)
(0,0,0)
(0,0,0)
(0,0,0)
(0,0,0)
(0,0,0)
(0,0,0)
(0,0,0)
(0,0,0)
(0,0,0)
(0,0,0)
(0,0,0)
(0,0,0)
(0,0,0)
(0,0,0)
(0,0,0)
(0,0,0)
(0,0,0)
(0,0,0)
(0,0,0)
(0,0,0)
(0,0,0)
(0,0,0)
(0,0,0)
(0,0,0)
(0,0,0)
(0,0,0)
(0,0,0)
(0,0,0)
(0,0,0)
(0,0,0)
(0,0,0)
(0,0,0)
(0,0,0)
(0,0,0)
(0,0,0)
(0,0,0)
(0,0,0)
(0,0,0)
(0,0,0)
(0,0,0)
(0,0,0)
(0,0,0)
(0,0,0)
(0,0,0)
(0,0,0)
(0,0,0)
(0,0,0)
(0,0,0)
(0,0,0)
(0,0,0)
(0,0,0)
(0,0,0)
(0,0,0)
(0,0,0)
(0,0,0)
(0,0,0)
(0,0,0)
(0,0,0)
(0,0,0)
(0,0,0)
(0,0,0)
(0,0,0)
(0,0,0)
(0,0,0)
(0,0,0)
(0,0,0)
(0,0,0)
(0,0,0)
(0,0,0)
(0,0,0)
(0,0,0)
(0,0,0)
(0,0,0)
(0,0,0)
(0,0,0)
(0,0,0)
(0,0,0)
(0,0,0)
(0,0,0)
(0,0,0)
(0,0,0)
(0,0,0)
(0,0,0)
(0,0,0)
(0,0,0)
(0,0,0)
(0,0,0)
(0,0,0)
(0,0,0)
(0,0,0)
(0,0,0)
(0,0,0)
(0,0,0)
(0,0,0)
(0,0,0)
(0,0,0)
(0,0,0)
(0,0,0)
(0,0,0)
(0,0,0)
(0,0,0)
(0,0,0)
(0,0,0)
(0,0,0)
(0,0,0)
(0,0,0)
(0,0,0)
(0,0,0)
(0,0,0)
(0,0,0)
(0,0,0)
(0,0,0)
(0,0,0)
(0,0,0)
(0,0,0)
(0,0,0)
(0,0,0)
(0,0,0)
(0,0,0)
(0,0,0)
(0,0,0)
(0,0,0)
(0,0,0)
(0,0,0)
(0,0,0)
(0,0,0)
(0,0,0)
(0,0,0)
(0,0,0)
(0,0,0)
(0,0,0)
(0,0,0)
(0,0,0)
(0,0,0)
(0,0,0)
(0,0,0)
(0,0,0)
(0,0,0)
(0,0,0)
(0,0,0)
(0,0,0)
(0,0,0)
(0,0,0)
(0,0,0)
(0,0,0)
(0,0,0)
(0,0,0)
(0,0,0)
(0,0,0)
(0,0,0)
(0,0,0)
(0,0,0)
(0,0,0)
(0,0,0)
(0,0,0)
(0,0,0)
(0,0,0)
(0,0,0)
(0,0,0)
(0,0,0)
(0,0,0)
(0,0,0)
(0,0,0)
(0,0,0)
(0,0,0)
(0,0,0)
(0,0,0)
(0,0,0)
(0,0,0)
(0,0,0)
(0,0,0)
(0,0,0)
(0,0,0)
(0,0,0)
(0,0,0)
(0,0,0)
(0,0,0)
(0,0,0)
(0,0,0)
(0,0,0)
(0,0,0)
(0,0,0)
(0,0,0)
(0,0,0)
(0,0,0)
(0,0,0)
(0,0,0)
(0,0,0)
(0,0,0)
(0,0,0)
(0,0,0)
(0,0,0)
(0,0,0)
(0,0,0)
(0,0,0)
(0,0,0)
(0,0,0)
(0,0,0)
(0,0,0)
(0,0,0)
(0,0,0)
(0,0,0)
(0,0,0)
(0,0,0)
(0,0,0)
(0,0,0)
(0,0,0)
(0,0,0)
(0,0,0)
(0,0,0)
(0,0,0)
(0,0,0)
(0,0,0)
(0,0,0)
(0,0,0)
(0,0,0)
(0,0,0)
(0,0,0)
(0,0,0)
(0,0,0)
(0,0,0)
(0,0,0)
(0,0,0)
(0,0,0)
(0,0,0)
(0,0,0)
(0,0,0)
(0,0,0)
(0,0,0)
(0,0,0)
(0,0,0)
(0,0,0)
(0,0,0)
(0,0,0)
(1.37661267268586e-13,-3.95912045896568e-12,4.11658591059713e-12)
(6.32223858027796e-13,-9.16732710863312e-12,3.99045502784538e-12)
(3.40137287743396e-13,-1.69617987330837e-11,4.27357790607363e-12)
(-4.20503317566571e-13,-2.81639778967488e-11,3.90252260751316e-12)
(-2.70410082361794e-13,-4.37243312520545e-11,2.80718247734633e-12)
(1.03334841109324e-12,-6.82046371628599e-11,2.02418361715142e-12)
(2.51317741714637e-12,-1.08358562456023e-10,1.19042553186561e-12)
(2.12845003276263e-12,-1.75365796947561e-10,9.81514865812789e-13)
(6.28841456668873e-14,-2.83540722696656e-10,9.54543300401992e-13)
(-1.80230335192423e-12,-4.34225510823404e-10,6.81196110961e-13)
(0,0,0)
(0,0,0)
(0,0,0)
(0,0,0)
(0,0,0)
(0,0,0)
(-4.1942181735963e-13,-4.00981386914203e-12,9.89168402071897e-12)
(-2.74236968404876e-13,-9.15996550122279e-12,9.35196093122164e-12)
(-7.42224789906318e-13,-1.66695027063293e-11,9.01394016009828e-12)
(-1.31280168206052e-12,-2.74039509983855e-11,7.92275670090867e-12)
(-1.19613126227473e-12,-4.29059845909066e-11,6.11133354829476e-12)
(7.17213344435424e-13,-6.7157062743433e-11,4.32772812832795e-12)
(2.44972580942964e-12,-1.07180926465836e-10,2.64608401748426e-12)
(2.14624805702794e-12,-1.73944789422561e-10,1.87403260669365e-12)
(-3.56850161724434e-13,-2.82470217843884e-10,1.44452614541927e-12)
(-2.84894382479493e-12,-4.33410763315305e-10,9.63342224917228e-13)
(0,0,0)
(0,0,0)
(0,0,0)
(0,0,0)
(0,0,0)
(0,0,0)
(-8.37928139807191e-13,-3.94367293644692e-12,1.78161468656191e-11)
(-1.31043604547956e-12,-8.86435392644664e-12,1.72136476356238e-11)
(-2.5480261033047e-12,-1.56368482281438e-11,1.62037976295186e-11)
(-3.39969022627832e-12,-2.55930583051479e-11,1.43709829175829e-11)
(-4.04481559690647e-12,-4.06946450815789e-11,1.20450394874037e-11)
(-1.64033001573538e-12,-6.50668760907657e-11,9.24855135998449e-12)
(5.24204079008494e-13,-1.0540336001263e-10,6.49268989993797e-12)
(8.87006677068544e-13,-1.72177538842365e-10,4.66248050206164e-12)
(-3.47658785072889e-13,-2.81099182843869e-10,3.38911435069024e-12)
(-2.72208811219894e-12,-4.32349942359315e-10,2.08847198310054e-12)
(0,0,0)
(0,0,0)
(0,0,0)
(0,0,0)
(0,0,0)
(0,0,0)
(-6.22563237022987e-13,-3.82609639866477e-12,2.83075098218535e-11)
(-2.10532456180984e-12,-8.48545234984863e-12,2.80587363217724e-11)
(-4.5937480631928e-12,-1.45159349971214e-11,2.71700476938565e-11)
(-5.97188290341761e-12,-2.35929358166161e-11,2.48834125269465e-11)
(-6.0856323607095e-12,-3.78735543301652e-11,2.16751269182622e-11)
(-3.590339173639e-12,-6.20329090677041e-11,1.81517529796639e-11)
(-2.678763863594e-12,-1.0277128076026e-10,1.4842808198147e-11)
(-2.07278465338804e-12,-1.70166141777928e-10,1.17049745802031e-11)
(-1.34351085993696e-12,-2.79168791572573e-10,8.45216860149849e-12)
(-2.63943538003092e-12,-4.30455281920678e-10,4.87736143428041e-12)
(0,0,0)
(0,0,0)
(0,0,0)
(0,0,0)
(0,0,0)
(0,0,0)
(-2.80843792470744e-13,-3.48834356916961e-12,4.3444877220689e-11)
(-1.80696131056189e-12,-7.90481529731629e-12,4.3085909259814e-11)
(-3.85080156380293e-12,-1.29277589062092e-11,4.20603626335807e-11)
(-4.68529856786092e-12,-2.0777612694173e-11,3.98723686355225e-11)
(-5.04644326992226e-12,-3.42150590041251e-11,3.69346092005493e-11)
(-3.81696814515389e-12,-5.80967484824638e-11,3.37246626491333e-11)
(-4.43493158838001e-12,-9.92476038377861e-11,3.02014045029779e-11)
(-4.95584784790186e-12,-1.67263487642157e-10,2.44079230787806e-11)
(-3.63667285028334e-12,-2.75568841309646e-10,1.71413195832397e-11)
(-4.0049826450619e-12,-4.2590288354831e-10,9.17889363408955e-12)
(0,0,0)
(0,0,0)
(0,0,0)
(0,0,0)
(0,0,0)
(0,0,0)
(3.32298903279732e-15,-3.07471077493806e-12,6.67881916856518e-11)
(-3.33002598105674e-13,-7.14209721428705e-12,6.61870339956518e-11)
(-1.17835887382083e-12,-1.10734779155719e-11,6.49816609529188e-11)
(-1.43366024696361e-12,-1.74995796831396e-11,6.31798069323736e-11)
(-3.79657859685824e-12,-2.98278103232441e-11,6.09589338697509e-11)
(-4.53160633920752e-12,-5.30053578867648e-11,5.77340007749339e-11)
(-6.03934045346675e-12,-9.43376212110395e-11,5.25340453252379e-11)
(-6.63084475952603e-12,-1.61627601602699e-10,4.40096247636954e-11)
(-5.85048366951469e-12,-2.6840372975036e-10,3.17947947237372e-11)
(-6.6194777059184e-12,-4.17370938463255e-10,1.68477356454805e-11)
(0,0,0)
(0,0,0)
(0,0,0)
(0,0,0)
(0,0,0)
(0,0,0)
(3.30302397509872e-13,-2.61578242776653e-12,1.05672516450271e-10)
(1.75377866014241e-13,-5.85792850121549e-12,1.05090071049276e-10)
(4.3317409634832e-13,-8.87854247907595e-12,1.036057107747e-10)
(1.38581473379159e-12,-1.42047392790543e-11,1.01706152658007e-10)
(-7.74470567745155e-13,-2.51510076297958e-11,9.98943845723997e-11)
(-2.16971013173493e-12,-4.65654638654293e-11,9.62272686390783e-11)
(-4.10181972560124e-12,-8.62582585672021e-11,8.8561064267998e-11)
(-5.19530213005332e-12,-1.50562238545875e-10,7.65478336417861e-11)
(-6.57263238748585e-12,-2.54199076375667e-10,5.72779189743622e-11)
(-7.51514052997159e-12,-4.01208952760041e-10,3.08582943638262e-11)
(0,0,0)
(0,0,0)
(0,0,0)
(0,0,0)
(0,0,0)
(0,0,0)
(-2.45444964839326e-13,-1.91326847416429e-12,1.69906179554016e-10)
(3.84699875429212e-14,-4.09037951218293e-12,1.69278396862967e-10)
(1.83155580984229e-12,-6.59339110857031e-12,1.67801107065901e-10)
(4.0901305516718e-12,-1.15328107460953e-11,1.66277839251929e-10)
(3.01119671185413e-12,-2.10434409988535e-11,1.6420399457319e-10)
(5.54254823590119e-13,-3.97925056500146e-11,1.59600668285182e-10)
(-2.67909553913012e-12,-7.42532229236994e-11,1.49777036308943e-10)
(-5.69209023442204e-12,-1.31166614449312e-10,1.31626045473738e-10)
(-8.35115382369157e-12,-2.27868857979737e-10,1.01749591327021e-10)
(-9.4110619357422e-12,-3.70191548316386e-10,5.74704077829419e-11)
(0,0,0)
(0,0,0)
(0,0,0)
(0,0,0)
(0,0,0)
(0,0,0)
(-3.8105620805292e-14,-8.42906944055508e-13,2.75000091338537e-10)
(7.93697733800921e-13,-2.34012519454489e-12,2.75254979564569e-10)
(2.22573806976164e-12,-4.63194760859096e-12,2.7454363878599e-10)
(4.21721931880711e-12,-8.31883888232248e-12,2.73117012863066e-10)
(4.85854054568547e-12,-1.52263453513171e-11,2.7046448451989e-10)
(2.17819609816621e-12,-2.95107672315304e-11,2.64877655342392e-10)
(-2.27271096084911e-12,-5.55151758357558e-11,2.52330823553995e-10)
(-6.02560885251391e-12,-1.00716852888686e-10,2.2752230584617e-10)
(-8.23991916432429e-12,-1.83492652775681e-10,1.83877606749335e-10)
(-9.00566704974379e-12,-3.1252310725749e-10,1.10444246023037e-10)
(0,0,0)
(0,0,0)
(0,0,0)
(0,0,0)
(0,0,0)
(0,0,0)
(8.95724640660223e-13,-1.89753560404189e-13,4.23482947573322e-10)
(2.49583391141959e-12,-8.95523776189181e-13,4.24698139586332e-10)
(4.05774177205334e-12,-2.49540004867041e-12,4.2504941147124e-10)
(5.10679363004513e-12,-4.44344408907541e-12,4.23503389517486e-10)
(5.73698333630159e-12,-7.96881723461409e-12,4.20196720371269e-10)
(2.70992899362144e-12,-1.56763205417983e-11,4.13656399917496e-10)
(-1.54970438279912e-12,-3.00830478615907e-11,3.98929989090065e-10)
(-5.39040664820057e-12,-5.69693564938048e-11,3.69108305675682e-10)
(-7.44567051899371e-12,-1.10258089522546e-10,3.11894260449752e-10)
(-7.88344579243843e-12,-2.0175714461693e-10,2.01255909676937e-10)
(0,0,0)
(0,0,0)
(0,0,0)
(0,0,0)
(0,0,0)
(0,0,0)
(0,0,0)
(0,0,0)
(0,0,0)
(0,0,0)
(0,0,0)
(0,0,0)
(0,0,0)
(0,0,0)
(0,0,0)
(0,0,0)
(0,0,0)
(0,0,0)
(0,0,0)
(0,0,0)
(0,0,0)
(0,0,0)
(0,0,0)
(0,0,0)
(0,0,0)
(0,0,0)
(0,0,0)
(0,0,0)
(0,0,0)
(0,0,0)
(0,0,0)
(0,0,0)
(0,0,0)
(0,0,0)
(0,0,0)
(0,0,0)
(0,0,0)
(0,0,0)
(0,0,0)
(0,0,0)
(0,0,0)
(0,0,0)
(0,0,0)
(0,0,0)
(0,0,0)
(0,0,0)
(0,0,0)
(0,0,0)
(0,0,0)
(0,0,0)
(0,0,0)
(0,0,0)
(0,0,0)
(0,0,0)
(0,0,0)
(0,0,0)
(0,0,0)
(0,0,0)
(0,0,0)
(0,0,0)
(0,0,0)
(0,0,0)
(0,0,0)
(0,0,0)
(0,0,0)
(0,0,0)
(0,0,0)
(0,0,0)
(0,0,0)
(0,0,0)
(0,0,0)
(0,0,0)
(0,0,0)
(0,0,0)
(0,0,0)
(0,0,0)
(0,0,0)
(0,0,0)
(0,0,0)
(0,0,0)
(0,0,0)
(0,0,0)
(0,0,0)
(0,0,0)
(0,0,0)
(0,0,0)
(0,0,0)
(0,0,0)
(0,0,0)
(0,0,0)
(0,0,0)
(0,0,0)
(0,0,0)
(0,0,0)
(0,0,0)
(0,0,0)
(0,0,0)
(0,0,0)
(0,0,0)
(0,0,0)
(0,0,0)
(0,0,0)
(3.14485560195925e-13,-8.6640688142143e-12,8.13436075119069e-12)
(3.41739372384657e-13,-1.85980403421767e-11,7.89956640810631e-12)
(4.18896559550671e-13,-3.20817810756918e-11,7.48128423953419e-12)
(-8.51900857782292e-14,-5.16050478484579e-11,6.19977989973394e-12)
(-3.05757883358623e-13,-7.91625016793728e-11,4.45052509284454e-12)
(8.1953207700428e-13,-1.22210074311901e-10,3.07194964244224e-12)
(1.54445209312222e-12,-1.90313881503045e-10,1.74723280724545e-12)
(7.34414072969944e-13,-3.0674477634536e-10,1.14490623493775e-12)
(-7.3427351807448e-13,-5.24224551809936e-10,7.52576786256179e-13)
(-1.93585474953669e-12,-1.01902474008355e-09,3.42040047621207e-13)
(0,0,0)
(0,0,0)
(0,0,0)
(0,0,0)
(0,0,0)
(0,0,0)
(5.41603394417084e-14,-8.55410155586403e-12,1.92786775995903e-11)
(-2.31827772043756e-13,-1.80422246857003e-11,1.81473915447952e-11)
(-6.83695808922046e-13,-3.1044014617789e-11,1.68192236760268e-11)
(-1.3122712226875e-12,-5.01980044397989e-11,1.42574521595261e-11)
(-1.62386535162691e-12,-7.78573358115497e-11,1.07379810828145e-11)
(3.08670802594858e-13,-1.20765061778655e-10,6.93037133268425e-12)
(1.44421076686113e-12,-1.89292246694919e-10,3.44368166226817e-12)
(8.08503938484824e-13,-3.05830571539935e-10,1.64609070114596e-12)
(-1.24670124073547e-12,-5.23499226639691e-10,6.66167829124587e-13)
(-2.94642255579673e-12,-1.01872408644526e-09,2.76088489229243e-13)
(0,0,0)
(0,0,0)
(0,0,0)
(0,0,0)
(0,0,0)
(0,0,0)
(-3.5300544759311e-13,-7.46955252554233e-12,3.37557667602103e-11)
(-6.79487615968637e-13,-1.61571483473082e-11,3.22623551499018e-11)
(-1.83612462236827e-12,-2.8020696355061e-11,3.02860272509392e-11)
(-3.07386928463677e-12,-4.6159967439503e-11,2.7000126621209e-11)
(-4.0694182209549e-12,-7.32701036847427e-11,2.21577113676819e-11)
(-1.91843557874948e-12,-1.16563102560418e-10,1.55048100181002e-11)
(-2.77665775465902e-13,-1.86781407304879e-10,8.59965212909493e-12)
(1.48975763818035e-13,-3.04238384105933e-10,4.94025963858677e-12)
(-9.77407688891371e-13,-5.22204827734555e-10,3.25877420730304e-12)
(-2.52827656782225e-12,-1.01767258265038e-09,1.94858484704857e-12)
(0,0,0)
(0,0,0)
(0,0,0)
(0,0,0)
(0,0,0)
(0,0,0)
(-7.11542566437184e-13,-6.20282433052014e-12,5.32039303496823e-11)
(-1.79727298642811e-12,-1.40497287112011e-11,5.20144228016769e-11)
(-3.89528898720274e-12,-2.46502864259138e-11,4.99449135209414e-11)
(-5.57892041717136e-12,-4.11354082269394e-11,4.59148694507585e-11)
(-6.22075374815648e-12,-6.64084691708734e-11,3.9526356404663e-11)
(-4.21755497734042e-12,-1.08993829898041e-10,3.13444467898573e-11)
(-3.06460716812776e-12,-1.81859555549422e-10,2.2675096540996e-11)
(-1.72263281041043e-12,-3.02080802179088e-10,1.70139667179688e-11)
(-1.36865395505945e-12,-5.19909954547439e-10,1.24572922762578e-11)
(-2.31447231731707e-12,-1.01481119871024e-09,6.94085284919824e-12)
(0,0,0)
(0,0,0)
(0,0,0)
(0,0,0)
(0,0,0)
(0,0,0)
(-3.35508625827465e-13,-5.11470617689453e-12,8.03484927159488e-11)
(-1.54413276735875e-12,-1.21512088083172e-11,7.90708289880384e-11)
(-3.51708855638483e-12,-2.11561924806873e-11,7.68779333475911e-11)
(-5.02557214393275e-12,-3.52518905992053e-11,7.30745888101511e-11)
(-6.22374539936492e-12,-5.79377123765804e-11,6.7353144233952e-11)
(-5.38510059475088e-12,-9.81000809374023e-11,6.06226778715217e-11)
(-3.55143279088231e-12,-1.72494631998442e-10,5.47787098699446e-11)
(-3.32513039168486e-12,-2.97523858693618e-10,4.25769987806728e-11)
(-2.83935846066464e-12,-5.1425585686416e-10,2.9623667655798e-11)
(-3.35803409649391e-12,-1.00777717626633e-09,1.5489758915971e-11)
(0,0,0)
(0,0,0)
(0,0,0)
(0,0,0)
(0,0,0)
(0,0,0)
(1.45552331862124e-13,-4.25801762994922e-12,1.20379859538458e-10)
(-4.11798268448714e-13,-1.02849098417732e-11,1.19123219160304e-10)
(-1.57144028977568e-12,-1.75821002269876e-11,1.17141501074458e-10)
(-2.50762758841508e-12,-2.89988588255124e-11,1.14126150027049e-10)
(-5.24844819547619e-12,-4.89531855701733e-11,1.09854600202687e-10)
(-5.77154491089005e-12,-8.73544397223178e-11,1.0342974800905e-10)
(-5.59428253572054e-12,-1.64603706645296e-10,9.4654772280146e-11)
(-5.48137777647036e-12,-2.87858262364549e-10,7.90944695713362e-11)
(-5.10807796600733e-12,-5.01404908522608e-10,5.68274956289396e-11)
(-5.93372776299735e-12,-9.92720651159673e-10,2.99704516616955e-11)
(0,0,0)
(0,0,0)
(0,0,0)
(0,0,0)
(0,0,0)
(0,0,0)
(2.10233844901181e-13,-3.52598332146181e-12,1.84972667914874e-10)
(-1.07810848440094e-13,-8.27827724920255e-12,1.84148614149316e-10)
(4.75808425392382e-14,-1.39992456360342e-11,1.82383159542129e-10)
(5.25654286432919e-13,-2.27592890128484e-11,1.79742410795998e-10)
(-1.21492126533707e-12,-3.94419477538162e-11,1.77126925795314e-10)
(-1.27646397604609e-12,-7.3950431428984e-11,1.71765892001565e-10)
(-4.09362474290345e-12,-1.49868165243094e-10,1.56703387323161e-10)
(-5.32101155931856e-12,-2.67892187799206e-10,1.37674255706475e-10)
(-6.48322617289997e-12,-4.75754387269809e-10,1.01929782743193e-10)
(-7.67425060946801e-12,-9.63313478067453e-10,5.47438173818041e-11)
(0,0,0)
(0,0,0)
(0,0,0)
(0,0,0)
(0,0,0)
(0,0,0)
(-6.88023803898557e-13,-2.43601889575946e-12,2.96554518397547e-10)
(-2.34494533027595e-13,-5.84742004383992e-12,2.9572699625561e-10)
(1.39338012383856e-12,-1.04089240702917e-11,2.93892484472959e-10)
(2.95000336663211e-12,-1.81351289937104e-11,2.91655521260263e-10)
(1.79742735230088e-12,-3.3486256086931e-11,2.88740559270035e-10)
(9.61483813741266e-14,-6.54977730096627e-11,2.82575489383086e-10)
(-3.26615179182106e-12,-1.29844404098234e-10,2.66804484059793e-10)
(-6.26539764847228e-12,-2.32048476270967e-10,2.34335474856347e-10)
(-8.44817548351471e-12,-4.28909205394741e-10,1.80514668254948e-10)
(-9.60909521206893e-12,-9.08574718417193e-10,1.02569368466272e-10)
(0,0,0)
(0,0,0)
(0,0,0)
(0,0,0)
(0,0,0)
(0,0,0)
(-9.46147230488754e-13,-1.15909301156423e-12,5.09502114124787e-10)
(6.04370940245406e-14,-3.47945937053696e-12,5.09163221366682e-10)
(1.51581643276893e-12,-7.08624121736325e-12,5.07886247269244e-10)
(2.9943528687443e-12,-1.30333825279182e-11,5.05710163655411e-10)
(3.18784160649054e-12,-2.52536025155244e-11,5.01575108714361e-10)
(8.90581196816184e-13,-5.00219563765098e-11,4.9268906918741e-10)
(-2.89632122717555e-12,-9.62140930936293e-11,4.71378160918141e-10)
(-6.12840615057355e-12,-1.77644877319822e-10,4.28024313544221e-10)
(-8.04112169115654e-12,-3.51092218956291e-10,3.51543230508267e-10)
(-9.3273836675036e-12,-8.06253400777783e-10,2.19936041505998e-10)
(0,0,0)
(0,0,0)
(0,0,0)
(0,0,0)
(0,0,0)
(0,0,0)
(-5.0922093275357e-13,-4.35253741033721e-13,1.00209326176344e-09)
(1.24903825032199e-12,-1.63414033866912e-12,1.00235053956804e-09)
(3.10836367713445e-12,-3.88255468614339e-12,1.00189990222042e-09)
(3.970018687186e-12,-7.19229439537912e-12,9.99685622313566e-10)
(4.30848655545374e-12,-1.38824790390395e-11,9.94414448371116e-10)
(1.76001927923947e-12,-2.71568750719667e-11,9.83069970582442e-10)
(-1.81106883003482e-12,-5.19742500130153e-11,9.57459772406248e-10)
(-5.14571791603734e-12,-1.00991558480151e-10,9.05953045646162e-10)
(-7.0654092687298e-12,-2.19453422151567e-10,8.04917679227378e-10)
(-8.38468073232602e-12,-5.86419312986123e-10,5.85738435840968e-10)
(0,0,0)
(0,0,0)
(0,0,0)
(0,0,0)
(0,0,0)
(0,0,0)
(0,0,0)
(0,0,0)
(0,0,0)
(0,0,0)
(0,0,0)
(0,0,0)
(0,0,0)
(0,0,0)
(0,0,0)
(0,0,0)
(0,0,0)
(0,0,0)
(0,0,0)
(0,0,0)
(0,0,0)
(0,0,0)
(0,0,0)
(0,0,0)
(0,0,0)
(0,0,0)
(0,0,0)
(0,0,0)
(0,0,0)
(0,0,0)
(0,0,0)
(0,0,0)
(0,0,0)
(0,0,0)
(0,0,0)
(0,0,0)
(0,0,0)
(0,0,0)
(0,0,0)
(0,0,0)
(0,0,0)
(0,0,0)
(0,0,0)
(0,0,0)
(0,0,0)
(0,0,0)
(0,0,0)
(0,0,0)
(0,0,0)
(0,0,0)
(0,0,0)
(0,0,0)
(0,0,0)
(0,0,0)
(0,0,0)
(0,0,0)
(0,0,0)
(0,0,0)
(0,0,0)
(0,0,0)
(0,0,0)
(0,0,0)
(0,0,0)
(0,0,0)
(0,0,0)
(0,0,0)
(0,0,0)
(0,0,0)
(0,0,0)
(0,0,0)
(0,0,0)
(0,0,0)
(0,0,0)
(0,0,0)
(0,0,0)
(0,0,0)
(0,0,0)
(0,0,0)
(0,0,0)
(0,0,0)
(0,0,0)
(0,0,0)
(0,0,0)
(0,0,0)
(0,0,0)
(0,0,0)
(0,0,0)
(0,0,0)
(0,0,0)
(0,0,0)
(0,0,0)
(0,0,0)
(0,0,0)
(0,0,0)
(0,0,0)
(0,0,0)
(0,0,0)
(0,0,0)
(0,0,0)
(0,0,0)
(0,0,0)
(0,0,0)
(4.39312644624695e-13,-1.21630576627056e-11,1.16999544040345e-11)
(2.04205884166595e-13,-2.53360415672973e-11,1.15552317649253e-11)
(6.62634442413061e-13,-4.28028901866944e-11,1.02689583058012e-11)
(2.57021312049863e-13,-6.72377604190957e-11,8.03510750781566e-12)
(-2.32348300607772e-13,-1.01578960413809e-10,5.40324256703792e-12)
(6.99236379142082e-13,-1.53133037906799e-10,2.62348815195288e-12)
(1.12514385669601e-12,-2.27524965450683e-10,2.51030269442313e-13)
(2.1253871595836e-13,-3.34730290178284e-10,-5.31721376750841e-13)
(-1.04906194918857e-12,-4.84277143656284e-10,-4.3978598148584e-13)
(-1.8944683410812e-12,-6.64175026756342e-10,-2.84910799507922e-13)
(0,0,0)
(0,0,0)
(0,0,0)
(0,0,0)
(0,0,0)
(0,0,0)
(1.0089736382944e-13,-1.18581870711511e-11,2.69437370464294e-11)
(-7.88736241897503e-13,-2.40248823494736e-11,2.54322616374097e-11)
(-1.14524255680199e-12,-4.06812949870524e-11,2.27938356975867e-11)
(-1.83083714569296e-12,-6.44720842368518e-11,1.86319779703486e-11)
(-2.40348772781858e-12,-9.86078597800853e-11,1.29813388618027e-11)
(-4.0659874555133e-13,-1.50410584367899e-10,5.76665809638498e-12)
(7.30962337623467e-13,-2.26550636418272e-10,-8.94679689584285e-13)
(1.96239377121215e-13,-3.3478283058153e-10,-2.71162664812687e-12)
(-2.15102080556432e-12,-4.84205386024778e-10,-2.13103085681364e-12)
(-3.72183786120343e-12,-6.64252439415701e-10,-9.75860404232119e-13)
(0,0,0)
(0,0,0)
(0,0,0)
(0,0,0)
(0,0,0)
(0,0,0)
(-1.263220340083e-13,-1.02651611933451e-11,4.6578756343982e-11)
(-8.10579352180899e-13,-2.12053974742311e-11,4.42087515326145e-11)
(-1.92063392140597e-12,-3.67026687346841e-11,4.08690025196381e-11)
(-3.25601324407114e-12,-5.91306001985106e-11,3.5605169327164e-11)
(-4.27815138564484e-12,-9.17181599818036e-11,2.70200973920344e-11)
(-2.58255035188931e-12,-1.43876109270445e-10,1.41503243549243e-11)
(-1.54012504049304e-12,-2.2488373953534e-10,-6.39665844406185e-13)
(-3.27120731859852e-13,-3.35830219527421e-10,-3.03023788620225e-12)
(-1.96209151471936e-12,-4.85101270470362e-10,-1.12759398716405e-12)
(-3.4410756615883e-12,-6.64653945632961e-10,1.2471161887346e-13)
(0,0,0)
(0,0,0)
(0,0,0)
(0,0,0)
(0,0,0)
(0,0,0)
(-6.10153172486376e-13,-8.23438555271003e-12,7.23502010231365e-11)
(-1.62628360774308e-12,-1.80230452405859e-11,7.03055882665191e-11)
(-3.35933886298328e-12,-3.17570022674062e-11,6.67796535988519e-11)
(-5.07392499989344e-12,-5.10947815658616e-11,6.02690139662168e-11)
(-6.5096009273538e-12,-7.9778281043024e-11,4.91258715099756e-11)
(-6.44195368821242e-12,-1.29643566603222e-10,3.19421632209759e-11)
(-6.76840089584771e-12,-2.20675686860733e-10,8.37111475095375e-12)
(-1.7229018544583e-12,-3.38964991856789e-10,7.59109263821865e-12)
(-1.5063122104517e-12,-4.86555177316066e-10,8.87936345262233e-12)
(-2.40764191333692e-12,-6.63726449435766e-10,5.8422615454442e-12)
(0,0,0)
(0,0,0)
(0,0,0)
(0,0,0)
(0,0,0)
(0,0,0)
(8.54665544306525e-14,-6.54903198355493e-12,1.06257757309169e-10)
(-1.21753609262761e-12,-1.48384637844151e-11,1.04427313929616e-10)
(-3.28783627398243e-12,-2.60031281845497e-11,1.01042055730703e-10)
(-5.55715934135699e-12,-4.07385729083796e-11,9.4782277076619e-11)
(-8.47780584174386e-12,-6.25070648197593e-11,8.50716868471631e-11)
(-1.02867738093106e-11,-1.02064106781937e-10,7.32397788583294e-11)
(7.59352944172133e-13,-1.94812428312311e-10,7.51521987599852e-11)
(-3.73955961195307e-14,-3.41939086159744e-10,4.91588605389236e-11)
(-1.55639806065436e-12,-4.85028322024158e-10,3.40370816323727e-11)
(-2.92480028756359e-12,-6.58077157909801e-10,1.79135039064473e-11)
(0,0,0)
(0,0,0)
(0,0,0)
(0,0,0)
(0,0,0)
(0,0,0)
(6.70158401767752e-13,-5.27202375635503e-12,1.53594405825003e-10)
(-4.3671277543691e-13,-1.16858052865385e-11,1.52059161903153e-10)
(-2.13894383316387e-12,-1.99233442459642e-11,1.49320994617572e-10)
(-4.4756475755319e-12,-3.02670350375889e-11,1.4440139341199e-10)
(-8.33483381890602e-12,-4.58316472577474e-11,1.3736573747799e-10)
(-1.04005774756737e-11,-8.14489790001246e-11,1.27629617956551e-10)
(-4.76952122806566e-12,-1.96573680073176e-10,1.22742057115144e-10)
(-3.1804784003124e-12,-3.3554832340151e-10,9.97100953833118e-11)
(-3.90155525099855e-12,-4.71821747018323e-10,7.02761675484089e-11)
(-5.37044919402335e-12,-6.40820634005981e-10,3.65217769131185e-11)
(0,0,0)
(0,0,0)
(0,0,0)
(0,0,0)
(0,0,0)
(0,0,0)
(-5.56768135149036e-14,-4.10068655329142e-12,2.22047172539309e-10)
(-7.7321344854684e-13,-8.72637022734744e-12,2.20862184783961e-10)
(-9.01991976886703e-13,-1.43884614419195e-11,2.18853290219512e-10)
(-1.4830207319375e-12,-2.06293395099755e-11,2.15991349896908e-10)
(-1.80957913841016e-12,-2.90214911040064e-11,2.14747221400174e-10)
(5.33338228355722e-12,-5.06491894257215e-11,2.14950768455032e-10)
(-5.0882542713949e-12,-1.76977672130471e-10,1.82191022025203e-10)
(-5.42025012521172e-12,-3.12738731109889e-10,1.77823346689521e-10)
(-6.14244268590716e-12,-4.40590343119951e-10,1.24303201702373e-10)
(-7.66919287812963e-12,-6.049887232685e-10,6.39570947242779e-11)
(0,0,0)
(0,0,0)
(0,0,0)
(0,0,0)
(0,0,0)
(0,0,0)
(-1.13742754524074e-12,-2.66122905461173e-12,3.2284371130834e-10)
(-7.67943423505374e-13,-5.73098584956702e-12,3.21732962266852e-10)
(3.07660482804399e-13,-1.00211947487427e-11,3.2028472620824e-10)
(7.63218891920228e-13,-1.62981801745336e-11,3.1848048121674e-10)
(-2.70156332821075e-13,-2.86952018017707e-11,3.17718966827331e-10)
(3.91337071731633e-13,-6.30696450262108e-11,3.17542405044648e-10)
(-4.42745359342772e-12,-1.62212687673101e-10,3.07092842792904e-10)
(-6.84818999874361e-12,-2.58771462206624e-10,2.62221676081009e-10)
(-8.31986213342647e-12,-3.80495338127389e-10,1.91593558853972e-10)
(-9.36104438444945e-12,-5.41022456874048e-10,1.03485967956238e-10)
(0,0,0)
(0,0,0)
(0,0,0)
(0,0,0)
(0,0,0)
(0,0,0)
(-1.33109374353937e-12,-1.27800075772481e-12,4.66720948567702e-10)
(-5.07907840807686e-13,-3.202250559344e-12,4.65780244419898e-10)
(4.88213516642316e-13,-6.5252499785477e-12,4.64956132544466e-10)
(1.28831967675766e-12,-1.24295146092144e-11,4.63231686564481e-10)
(7.02757657504107e-13,-2.49224977679891e-11,4.59836765292209e-10)
(-6.63591838526838e-13,-5.43195564116249e-11,4.52540568450855e-10)
(-3.78231693349085e-12,-1.13665448004566e-10,4.31013561818823e-10)
(-6.3006419559059e-12,-1.86783118186939e-10,3.78407989057266e-10)
(-8.0727294923093e-12,-2.92185160867708e-10,2.93113147906551e-10)
(-9.22542995356332e-12,-4.37871964037369e-10,1.68695985711813e-10)
(0,0,0)
(0,0,0)
(0,0,0)
(0,0,0)
(0,0,0)
(0,0,0)
(-1.20175247957344e-12,-3.92948429578585e-13,6.44128939024055e-10)
(6.55352594239001e-14,-1.49499348486024e-12,6.43417618312372e-10)
(1.44008889791853e-12,-3.5395976767107e-12,6.42855790406302e-10)
(2.04889823450641e-12,-7.11059830480762e-12,6.40996132564632e-10)
(1.77048530523039e-12,-1.44981779523633e-11,6.35589068777996e-10)
(2.13342382573388e-13,-3.03935021121088e-11,6.23351729455127e-10)