/*--------------------------------*- C++ -*----------------------------------*\
| =========                 |                                                 |
| \\      /  F ield         | foam-extend: Open Source CFD                    |
|  \\    /   O peration     | Version:     4.0                                |
|   \\  /    A nd           | Web:         http://www.foam-extend.org         |
|    \\/     M anipulation  |                                                 |
\*---------------------------------------------------------------------------*/
FoamFile
{
    version 2.0;
    format ascii;
    class volVectorField;
    location "1619";
    object      H;
}
// * * * * * * * * * * * * * * * * * * * * * * * * * * * * * * * * * * * * * //

dimensions      [0 1 -1 0 0 0 0];

internalField   nonuniform List<vector>
4096
(
(0,0,0)
(0,0,0)
(0,0,0)
(0,0,0)
(0,0,0)
(0,0,0)
(0,0,0)
(0,0,0)
(0,0,0)
(0,0,0)
(0,0,0)
(0,0,0)
(0,0,0)
(0,0,0)
(0,0,0)
(0,0,0)
(0,0,0)
(0,0,0)
(0,0,0)
(0,0,0)
(0,0,0)
(0,0,0)
(0,0,0)
(0,0,0)
(0,0,0)
(0,0,0)
(0,0,0)
(0,0,0)
(0,0,0)
(0,0,0)
(0,0,0)
(0,0,0)
(0,0,0)
(0,0,0)
(0,0,0)
(0,0,0)
(0,0,0)
(0,0,0)
(0,0,0)
(0,0,0)
(0,0,0)
(0,0,0)
(0,0,0)
(0,0,0)
(0,0,0)
(0,0,0)
(0,0,0)
(0,0,0)
(0,0,0)
(0,0,0)
(0,0,0)
(0,0,0)
(0,0,0)
(0,0,0)
(0,0,0)
(0,0,0)
(0,0,0)
(0,0,0)
(0,0,0)
(0,0,0)
(0,0,0)
(0,0,0)
(0,0,0)
(0,0,0)
(0,0,0)
(0,0,0)
(0,0,0)
(0,0,0)
(0,0,0)
(0,0,0)
(0,0,0)
(0,0,0)
(0,0,0)
(0,0,0)
(0,0,0)
(0,0,0)
(0,0,0)
(0,0,0)
(0,0,0)
(0,0,0)
(0,0,0)
(0,0,0)
(0,0,0)
(0,0,0)
(0,0,0)
(0,0,0)
(0,0,0)
(0,0,0)
(0,0,0)
(0,0,0)
(0,0,0)
(0,0,0)
(0,0,0)
(0,0,0)
(0,0,0)
(0,0,0)
(0,0,0)
(0,0,0)
(0,0,0)
(0,0,0)
(0,0,0)
(0,0,0)
(0,0,0)
(0,0,0)
(0,0,0)
(0,0,0)
(0,0,0)
(0,0,0)
(0,0,0)
(0,0,0)
(0,0,0)
(0,0,0)
(0,0,0)
(0,0,0)
(0,0,0)
(0,0,0)
(0,0,0)
(0,0,0)
(0,0,0)
(0,0,0)
(0,0,0)
(0,0,0)
(0,0,0)
(0,0,0)
(0,0,0)
(0,0,0)
(0,0,0)
(0,0,0)
(0,0,0)
(0,0,0)
(0,0,0)
(0,0,0)
(0,0,0)
(0,0,0)
(0,0,0)
(0,0,0)
(0,0,0)
(0,0,0)
(0,0,0)
(0,0,0)
(0,0,0)
(0,0,0)
(0,0,0)
(0,0,0)
(0,0,0)
(0,0,0)
(0,0,0)
(0,0,0)
(0,0,0)
(0,0,0)
(0,0,0)
(0,0,0)
(0,0,0)
(0,0,0)
(0,0,0)
(0,0,0)
(0,0,0)
(0,0,0)
(0,0,0)
(0,0,0)
(0,0,0)
(0,0,0)
(0,0,0)
(0,0,0)
(0,0,0)
(0,0,0)
(0,0,0)
(0,0,0)
(0,0,0)
(0,0,0)
(0,0,0)
(0,0,0)
(0,0,0)
(0,0,0)
(0,0,0)
(0,0,0)
(0,0,0)
(0,0,0)
(0,0,0)
(0,0,0)
(0,0,0)
(0,0,0)
(0,0,0)
(0,0,0)
(0,0,0)
(0,0,0)
(0,0,0)
(0,0,0)
(0,0,0)
(0,0,0)
(0,0,0)
(0,0,0)
(0,0,0)
(0,0,0)
(0,0,0)
(0,0,0)
(0,0,0)
(0,0,0)
(0,0,0)
(0,0,0)
(0,0,0)
(0,0,0)
(0,0,0)
(0,0,0)
(0,0,0)
(0,0,0)
(0,0,0)
(0,0,0)
(0,0,0)
(0,0,0)
(0,0,0)
(0,0,0)
(0,0,0)
(0,0,0)
(0,0,0)
(0,0,0)
(0,0,0)
(0,0,0)
(0,0,0)
(0,0,0)
(0,0,0)
(0,0,0)
(0,0,0)
(0,0,0)
(0,0,0)
(0,0,0)
(0,0,0)
(0,0,0)
(0,0,0)
(0,0,0)
(0,0,0)
(0,0,0)
(0,0,0)
(0,0,0)
(0,0,0)
(0,0,0)
(0,0,0)
(0,0,0)
(0,0,0)
(0,0,0)
(0,0,0)
(0,0,0)
(0,0,0)
(0,0,0)
(0,0,0)
(0,0,0)
(0,0,0)
(0,0,0)
(0,0,0)
(0,0,0)
(0,0,0)
(0,0,0)
(0,0,0)
(0,0,0)
(0,0,0)
(0,0,0)
(0,0,0)
(0,0,0)
(0,0,0)
(0,0,0)
(0,0,0)
(0,0,0)
(0,0,0)
(0,0,0)
(0,0,0)
(0,0,0)
(0,0,0)
(0,0,0)
(0,0,0)
(0,0,0)
(0,0,0)
(0,0,0)
(0,0,0)
(0,0,0)
(0,0,0)
(0,0,0)
(0,0,0)
(0,0,0)
(0,0,0)
(0,0,0)
(0,0,0)
(0,0,0)
(0,0,0)
(0,0,0)
(0,0,0)
(0,0,0)
(0,0,0)
(0,0,0)
(0,0,0)
(0,0,0)
(0,0,0)
(0,0,0)
(0,0,0)
(0,0,0)
(0,0,0)
(0,0,0)
(0,0,0)
(0,0,0)
(0,0,0)
(0,0,0)
(0,0,0)
(0,0,0)
(0,0,0)
(0,0,0)
(0,0,0)
(0,0,0)
(0,0,0)
(0,0,0)
(0,0,0)
(0,0,0)
(0,0,0)
(0,0,0)
(0,0,0)
(0,0,0)
(0,0,0)
(0,0,0)
(0,0,0)
(0,0,0)
(0,0,0)
(0,0,0)
(0,0,0)
(0,0,0)
(0,0,0)
(0,0,0)
(0,0,0)
(0,0,0)
(0,0,0)
(0,0,0)
(0,0,0)
(0,0,0)
(0,0,0)
(0,0,0)
(0,0,0)
(0,0,0)
(0,0,0)
(0,0,0)
(0,0,0)
(0,0,0)
(0,0,0)
(0,0,0)
(0,0,0)
(0,0,0)
(0,0,0)
(0,0,0)
(0,0,0)
(0,0,0)
(0,0,0)
(0,0,0)
(0,0,0)
(0,0,0)
(0,0,0)
(0,0,0)
(0,0,0)
(0,0,0)
(0,0,0)
(0,0,0)
(0,0,0)
(0,0,0)
(0,0,0)
(0,0,0)
(0,0,0)
(0,0,0)
(0,0,0)
(0,0,0)
(0,0,0)
(0,0,0)
(0,0,0)
(0,0,0)
(0,0,0)
(0,0,0)
(0,0,0)
(0,0,0)
(0,0,0)
(0,0,0)
(0,0,0)
(0,0,0)
(0,0,0)
(0,0,0)
(0,0,0)
(0,0,0)
(0,0,0)
(0,0,0)
(0,0,0)
(0,0,0)
(0,0,0)
(0,0,0)
(0,0,0)
(0,0,0)
(0,0,0)
(0,0,0)
(0,0,0)
(0,0,0)
(0,0,0)
(0,0,0)
(0,0,0)
(0,0,0)
(0,0,0)
(0,0,0)
(0,0,0)
(0,0,0)
(0,0,0)
(0,0,0)
(0,0,0)
(0,0,0)
(0,0,0)
(0,0,0)
(0,0,0)
(0,0,0)
(0,0,0)
(0,0,0)
(0,0,0)
(0,0,0)
(0,0,0)
(0,0,0)
(0,0,0)
(0,0,0)
(0,0,0)
(0,0,0)
(0,0,0)
(0,0,0)
(0,0,0)
(0,0,0)
(0,0,0)
(0,0,0)
(0,0,0)
(0,0,0)
(0,0,0)
(0,0,0)
(0,0,0)
(0,0,0)
(0,0,0)
(0,0,0)
(0,0,0)
(0,0,0)
(0,0,0)
(0,0,0)
(0,0,0)
(0,0,0)
(0,0,0)
(0,0,0)
(0,0,0)
(0,0,0)
(0,0,0)
(0,0,0)
(0,0,0)
(0,0,0)
(0,0,0)
(0,0,0)
(0,0,0)
(0,0,0)
(0,0,0)
(0,0,0)
(0,0,0)
(0,0,0)
(0,0,0)
(0,0,0)
(0,0,0)
(0,0,0)
(0,0,0)
(0,0,0)
(0,0,0)
(0,0,0)
(0,0,0)
(0,0,0)
(0,0,0)
(0,0,0)
(0,0,0)
(0,0,0)
(0,0,0)
(0,0,0)
(0,0,0)
(0,0,0)
(0,0,0)
(0,0,0)
(0,0,0)
(0,0,0)
(0,0,0)
(0,0,0)
(0,0,0)
(0,0,0)
(0,0,0)
(0,0,0)
(0,0,0)
(0,0,0)
(0,0,0)
(0,0,0)
(0,0,0)
(0,0,0)
(0,0,0)
(0,0,0)
(0,0,0)
(0,0,0)
(0,0,0)
(0,0,0)
(0,0,0)
(0,0,0)
(0,0,0)
(0,0,0)
(0,0,0)
(0,0,0)
(0,0,0)
(0,0,0)
(0,0,0)
(0,0,0)
(0,0,0)
(0,0,0)
(0,0,0)
(0,0,0)
(0,0,0)
(0,0,0)
(0,0,0)
(0,0,0)
(0,0,0)
(0,0,0)
(0,0,0)
(0,0,0)
(0,0,0)
(0,0,0)
(0,0,0)
(0,0,0)
(0,0,0)
(0,0,0)
(0,0,0)
(0,0,0)
(0,0,0)
(0,0,0)
(0,0,0)
(0,0,0)
(0,0,0)
(0,0,0)
(0,0,0)
(0,0,0)
(0,0,0)
(0,0,0)
(0,0,0)
(0,0,0)
(0,0,0)
(0,0,0)
(0,0,0)
(0,0,0)
(0,0,0)
(0,0,0)
(0,0,0)
(0,0,0)
(0,0,0)
(0,0,0)
(0,0,0)
(0,0,0)
(0,0,0)
(0,0,0)
(0,0,0)
(0,0,0)
(0,0,0)
(0,0,0)
(0,0,0)
(0,0,0)
(0,0,0)
(0,0,0)
(0,0,0)
(0,0,0)
(0,0,0)
(0,0,0)
(0,0,0)
(0,0,0)
(0,0,0)
(0,0,0)
(0,0,0)
(0,0,0)
(0,0,0)
(0,0,0)
(0,0,0)
(0,0,0)
(0,0,0)
(0,0,0)
(0,0,0)
(0,0,0)
(0,0,0)
(0,0,0)
(0,0,0)
(0,0,0)
(0,0,0)
(0,0,0)
(0,0,0)
(0,0,0)
(0,0,0)
(0,0,0)
(0,0,0)
(0,0,0)
(0,0,0)
(0,0,0)
(0,0,0)
(0,0,0)
(0,0,0)
(0,0,0)
(0,0,0)
(0,0,0)
(0,0,0)
(0,0,0)
(0,0,0)
(0,0,0)
(0,0,0)
(0,0,0)
(0,0,0)
(0,0,0)
(0,0,0)
(0,0,0)
(0,0,0)
(0,0,0)
(0,0,0)
(0,0,0)
(0,0,0)
(0,0,0)
(0,0,0)
(0,0,0)
(0,0,0)
(0,0,0)
(0,0,0)
(0,0,0)
(0,0,0)
(0,0,0)
(0,0,0)
(0,0,0)
(0,0,0)
(0,0,0)
(0,0,0)
(0,0,0)
(0,0,0)
(0,0,0)
(0,0,0)
(0,0,0)
(0,0,0)
(0,0,0)
(0,0,0)
(0,0,0)
(0,0,0)
(0,0,0)
(0,0,0)
(0,0,0)
(0,0,0)
(0,0,0)
(0,0,0)
(0,0,0)
(0,0,0)
(0,0,0)
(0,0,0)
(0,0,0)
(0,0,0)
(0,0,0)
(0,0,0)
(0,0,0)
(0,0,0)
(0,0,0)
(0,0,0)
(0,0,0)
(0,0,0)
(0,0,0)
(0,0,0)
(0,0,0)
(0,0,0)
(0,0,0)
(0,0,0)
(0,0,0)
(0,0,0)
(0,0,0)
(0,0,0)
(0,0,0)
(0,0,0)
(0,0,0)
(0,0,0)
(0,0,0)
(0,0,0)
(0,0,0)
(0,0,0)
(0,0,0)
(0,0,0)
(0,0,0)
(0,0,0)
(0,0,0)
(0,0,0)
(0,0,0)
(0,0,0)
(0,0,0)
(0,0,0)
(0,0,0)
(0,0,0)
(0,0,0)
(0,0,0)
(0,0,0)
(0,0,0)
(0,0,0)
(0,0,0)
(0,0,0)
(0,0,0)
(0,0,0)
(0,0,0)
(0,0,0)
(0,0,0)
(0,0,0)
(0,0,0)
(0,0,0)
(0,0,0)
(0,0,0)
(0,0,0)
(0,0,0)
(0,0,0)
(0,0,0)
(0,0,0)
(0,0,0)
(0,0,0)
(0,0,0)
(0,0,0)
(0,0,0)
(0,0,0)
(0,0,0)
(0,0,0)
(0,0,0)
(0,0,0)
(0,0,0)
(0,0,0)
(0,0,0)
(0,0,0)
(0,0,0)
(0,0,0)
(0,0,0)
(0,0,0)
(0,0,0)
(0,0,0)
(0,0,0)
(0,0,0)
(0,0,0)
(0,0,0)
(0,0,0)
(0,0,0)
(0,0,0)
(0,0,0)
(0,0,0)
(0,0,0)
(0,0,0)
(0,0,0)
(0,0,0)
(0,0,0)
(0,0,0)
(0,0,0)
(0,0,0)
(0,0,0)
(0,0,0)
(0,0,0)
(0,0,0)
(0,0,0)
(0,0,0)
(0,0,0)
(0,0,0)
(0,0,0)
(0,0,0)
(0,0,0)
(0,0,0)
(0,0,0)
(0,0,0)
(0,0,0)
(0,0,0)
(0,0,0)
(0,0,0)
(0,0,0)
(0,0,0)
(0,0,0)
(0,0,0)
(0,0,0)
(0,0,0)
(0,0,0)
(0,0,0)
(0,0,0)
(0,0,0)
(0,0,0)
(0,0,0)
(0,0,0)
(0,0,0)
(0,0,0)
(0,0,0)
(0,0,0)
(0,0,0)
(0,0,0)
(0,0,0)
(0,0,0)
(0,0,0)
(0,0,0)
(0,0,0)
(0,0,0)
(0,0,0)
(0,0,0)
(0,0,0)
(0,0,0)
(0,0,0)
(0,0,0)
(0,0,0)
(0,0,0)
(0,0,0)
(0,0,0)
(0,0,0)
(0,0,0)
(0,0,0)
(0,0,0)
(0,0,0)
(0,0,0)
(0,0,0)
(0,0,0)
(0,0,0)
(0,0,0)
(0,0,0)
(0,0,0)
(0,0,0)
(0,0,0)
(0,0,0)
(0,0,0)
(0,0,0)
(0,0,0)
(0,0,0)
(0,0,0)
(0,0,0)
(0,0,0)
(-2.79190691535846e-12,-4.2021544830398e-12,7.68595780114483e-12)
(-4.65234500822569e-12,-7.68760892464094e-12,7.16854988307467e-12)
(-5.58569400445554e-12,-1.50571974323187e-11,6.40638262608246e-12)
(-6.80442026462015e-12,-2.59993534647797e-11,5.00423798431016e-12)
(-8.68441451371996e-12,-4.13621370504273e-11,3.65386632483692e-12)
(-1.05882029134823e-11,-6.61262779259757e-11,2.4999164440038e-12)
(-1.14428370617139e-11,-1.05556426822675e-10,1.37258815060249e-12)
(-1.14296744447828e-11,-1.72621952867214e-10,5.72393908193782e-13)
(-9.85131808259272e-12,-2.84426830200694e-10,-1.20042979951166e-14)
(-8.52539303175848e-12,-4.40602412499496e-10,2.00966090242193e-15)
(0,0,0)
(0,0,0)
(0,0,0)
(0,0,0)
(0,0,0)
(0,0,0)
(-5.14755387651725e-12,-3.82937598556044e-12,1.4712117664422e-11)
(-8.81184505754187e-12,-7.29705224272718e-12,1.38356059937911e-11)
(-1.08124463395711e-11,-1.42798816523658e-11,1.2512373875681e-11)
(-1.26397060087122e-11,-2.54845227013354e-11,1.04191444853268e-11)
(-1.55343599633841e-11,-4.13822059547122e-11,8.20334921877092e-12)
(-1.82163636169453e-11,-6.61474287734243e-11,5.7075145554768e-12)
(-2.03086518249968e-11,-1.05984256476987e-10,3.61202096375237e-12)
(-2.11310790289907e-11,-1.73275011641436e-10,1.96713350687434e-12)
(-1.84889639336619e-11,-2.8524136187562e-10,6.07347854352531e-13)
(-1.59828014833803e-11,-4.41127039013015e-10,5.74178828913733e-14)
(0,0,0)
(0,0,0)
(0,0,0)
(0,0,0)
(0,0,0)
(0,0,0)
(-7.0300001428203e-12,-3.64167436952149e-12,2.26642200100923e-11)
(-1.20338693828036e-11,-7.03219111165566e-12,2.16329551970586e-11)
(-1.47913199948237e-11,-1.32805723210886e-11,1.97605115551199e-11)
(-1.73248995730358e-11,-2.44071054227763e-11,1.70337834565644e-11)
(-2.08839650038772e-11,-4.03965110121393e-11,1.37279307835099e-11)
(-2.37492977081179e-11,-6.54038603260153e-11,1.00643684133823e-11)
(-2.56309863260728e-11,-1.06015325077524e-10,6.77867550080995e-12)
(-2.58280648580278e-11,-1.73975545900956e-10,4.46039263814701e-12)
(-2.28032990980922e-11,-2.86222601350089e-10,2.63946414672115e-12)
(-2.04687913808973e-11,-4.41861103700166e-10,9.01459549336926e-13)
(0,0,0)
(0,0,0)
(0,0,0)
(0,0,0)
(0,0,0)
(0,0,0)
(-7.39733054049962e-12,-3.6732059095457e-12,3.42362812033865e-11)
(-1.40209019854954e-11,-6.48217762710419e-12,3.32155715631712e-11)
(-1.78645078435494e-11,-1.17240262318392e-11,3.12639907305451e-11)
(-2.08414630311154e-11,-2.23410246036981e-11,2.83096740468087e-11)
(-2.46791554005197e-11,-3.82454494172204e-11,2.45233403448962e-11)
(-2.75799261994809e-11,-6.31944395606294e-11,1.9573323134259e-11)
(-2.79757981035491e-11,-1.04791970772686e-10,1.45178683624901e-11)
(-2.67157976697383e-11,-1.74003997008842e-10,1.08426330101152e-11)
(-2.3243083206546e-11,-2.86332966176397e-10,7.19455675485914e-12)
(-2.13126968552132e-11,-4.41970611967957e-10,3.1975943131559e-12)
(0,0,0)
(0,0,0)
(0,0,0)
(0,0,0)
(0,0,0)
(0,0,0)
(-7.11051029854575e-12,-3.43787064062641e-12,4.98404611910384e-11)
(-1.45364367585261e-11,-5.79378532172521e-12,4.89197497794934e-11)
(-1.89016885584156e-11,-9.95721950254393e-12,4.72471443501728e-11)
(-2.26891453416197e-11,-1.93575962576556e-11,4.48030672656504e-11)
(-2.67758865629011e-11,-3.40579203765065e-11,4.12151748217001e-11)
(-2.90436854606014e-11,-5.84919523699846e-11,3.59188404936837e-11)
(-2.74034491875236e-11,-1.01164959675641e-10,2.9813333350127e-11)
(-2.4458320447739e-11,-1.71493504310077e-10,2.33140136626331e-11)
(-2.0558956703428e-11,-2.83760268808088e-10,1.62873843831517e-11)
(-1.82955818187901e-11,-4.39707817025395e-10,8.48291978779771e-12)
(0,0,0)
(0,0,0)
(0,0,0)
(0,0,0)
(0,0,0)
(0,0,0)
(-4.77061967595639e-12,-2.84614896039099e-12,7.22920897933465e-11)
(-1.15919841068034e-11,-4.95279777116715e-12,7.20090500196061e-11)
(-1.72708715611608e-11,-8.2127993113067e-12,7.09036760226251e-11)
(-2.24681430193996e-11,-1.57978170379793e-11,6.93613872303489e-11)
(-2.66577308496224e-11,-2.88761076522588e-11,6.65266057841681e-11)
(-2.81531128447196e-11,-5.26739106833614e-11,6.12977333195851e-11)
(-2.61351486890791e-11,-9.56827393702591e-11,5.40767380877393e-11)
(-2.22418484376194e-11,-1.6514627241084e-10,4.4445778985384e-11)
(-1.88598613617761e-11,-2.76426957298009e-10,3.21652033748143e-11)
(-1.66045268661795e-11,-4.31386268391496e-10,1.70501778260102e-11)
(0,0,0)
(0,0,0)
(0,0,0)
(0,0,0)
(0,0,0)
(0,0,0)
(-3.45751304894392e-12,-2.3532634996517e-12,1.09887950463792e-10)
(-9.46591578201321e-12,-4.0320960817658e-12,1.10182272072181e-10)
(-1.50548340624663e-11,-6.68360640047176e-12,1.097743501427e-10)
(-2.00666302598216e-11,-1.27510746065078e-11,1.09049005003905e-10)
(-2.36300598044643e-11,-2.41046958134595e-11,1.07090036573963e-10)
(-2.43911650060083e-11,-4.64384432008209e-11,1.02079368871136e-10)
(-2.34583897488248e-11,-8.74469995086107e-11,9.25084864925577e-11)
(-2.02645220481586e-11,-1.5333247335211e-10,7.85398226131828e-11)
(-1.72884702593303e-11,-2.61364356773182e-10,5.84620072555759e-11)
(-1.56672651017954e-11,-4.13805295135298e-10,3.17637192499846e-11)
(0,0,0)
(0,0,0)
(0,0,0)
(0,0,0)
(0,0,0)
(0,0,0)
(-2.94411464360961e-12,-2.22758156579268e-12,1.76512965486078e-10)
(-7.2958337236817e-12,-3.63333630555952e-12,1.76819528551858e-10)
(-1.17410106669374e-11,-5.77921542605742e-12,1.76738432298256e-10)
(-1.66642928937381e-11,-1.07125549595219e-11,1.7627095865466e-10)
(-2.05175928104153e-11,-2.03076944554901e-11,1.74130347353276e-10)
(-2.19723465296938e-11,-3.9858646094021e-11,1.68638132410608e-10)
(-2.15494098874846e-11,-7.52526375883668e-11,1.569032915804e-10)
(-1.91981467162496e-11,-1.339900669796e-10,1.36658666019961e-10)
(-1.67869231844909e-11,-2.34922059852468e-10,1.0547353198456e-10)
(-1.58226400570816e-11,-3.816546559713e-10,5.97354940610487e-11)
(0,0,0)
(0,0,0)
(0,0,0)
(0,0,0)
(0,0,0)
(0,0,0)
(-7.45324706435975e-13,-1.82644852699746e-12,2.88718629861219e-10)
(-3.0604164066865e-12,-2.90594669291949e-12,2.88865142116874e-10)
(-6.7852963159317e-12,-4.59273628609618e-12,2.88669316829027e-10)
(-1.24086093630058e-11,-8.02325017323913e-12,2.8781184803884e-10)
(-1.76650411337457e-11,-1.52689258487028e-11,2.84807385877466e-10)
(-1.98097776527017e-11,-2.9917012215626e-11,2.77731172436651e-10)
(-2.059428165729e-11,-5.62409503147975e-11,2.63065128427751e-10)
(-1.93156006179266e-11,-1.03326755450907e-10,2.36584303747003e-10)
(-1.74926531924473e-11,-1.89294351168968e-10,1.90935158806471e-10)
(-1.68922688874252e-11,-3.21653565833712e-10,1.14639005319129e-10)
(0,0,0)
(0,0,0)
(0,0,0)
(0,0,0)
(0,0,0)
(0,0,0)
(-5.41479584536799e-13,-7.99433173116167e-13,4.45310450574071e-10)
(-2.66573306860413e-12,-1.28515632718447e-12,4.44929780626224e-10)
(-6.36521283309524e-12,-2.29376760372494e-12,4.44160084345916e-10)
(-1.25451226741995e-11,-3.90348696538522e-12,4.42856161444975e-10)
(-1.86822668755391e-11,-7.70959738217316e-12,4.39344643248031e-10)
(-2.11989804380478e-11,-1.58045756790486e-11,4.31368551749742e-10)
(-2.28398696643069e-11,-3.03888722668767e-11,4.14335289103065e-10)
(-2.10105891434367e-11,-5.81248364374763e-11,3.82263071429542e-10)
(-1.92320976678355e-11,-1.13220222523893e-10,3.22839877602095e-10)
(-1.82612215442747e-11,-2.07304332837272e-10,2.08540578389119e-10)
(0,0,0)
(0,0,0)
(0,0,0)
(0,0,0)
(0,0,0)
(0,0,0)
(0,0,0)
(0,0,0)
(0,0,0)
(0,0,0)
(0,0,0)
(0,0,0)
(0,0,0)
(0,0,0)
(0,0,0)
(0,0,0)
(0,0,0)
(0,0,0)
(0,0,0)
(0,0,0)
(0,0,0)
(0,0,0)
(0,0,0)
(0,0,0)
(0,0,0)
(0,0,0)
(0,0,0)
(0,0,0)
(0,0,0)
(0,0,0)
(0,0,0)
(0,0,0)
(0,0,0)
(0,0,0)
(0,0,0)
(0,0,0)
(0,0,0)
(0,0,0)
(0,0,0)
(0,0,0)
(0,0,0)
(0,0,0)
(0,0,0)
(0,0,0)
(0,0,0)
(0,0,0)
(0,0,0)
(0,0,0)
(0,0,0)
(0,0,0)
(0,0,0)
(0,0,0)
(0,0,0)
(0,0,0)
(0,0,0)
(0,0,0)
(0,0,0)
(0,0,0)
(0,0,0)
(0,0,0)
(0,0,0)
(0,0,0)
(0,0,0)
(0,0,0)
(0,0,0)
(0,0,0)
(0,0,0)
(0,0,0)
(0,0,0)
(0,0,0)
(0,0,0)
(0,0,0)
(0,0,0)
(0,0,0)
(0,0,0)
(0,0,0)
(0,0,0)
(0,0,0)
(0,0,0)
(0,0,0)
(0,0,0)
(0,0,0)
(0,0,0)
(0,0,0)
(0,0,0)
(0,0,0)
(0,0,0)
(0,0,0)
(0,0,0)
(0,0,0)
(0,0,0)
(0,0,0)
(0,0,0)
(0,0,0)
(0,0,0)
(0,0,0)
(0,0,0)
(0,0,0)
(0,0,0)
(0,0,0)
(0,0,0)
(0,0,0)
(-2.64727749476523e-12,-8.64348360545375e-12,1.3289827161429e-11)
(-4.28073443314908e-12,-1.67854560225698e-11,1.25911331580449e-11)
(-4.96086514265639e-12,-3.06133556141579e-11,1.10752903773958e-11)
(-5.96887936859084e-12,-5.02872128505276e-11,8.50923203774728e-12)
(-7.51039572863516e-12,-7.80327325560118e-11,6.11171684272616e-12)
(-9.43972377260068e-12,-1.20262009606791e-10,3.95467015691311e-12)
(-1.02148131649367e-11,-1.87882860127191e-10,1.6680223760074e-12)
(-1.01922174646258e-11,-3.04532558729483e-10,3.66472392077195e-13)
(-9.05080036675364e-12,-5.2754990558637e-10,-2.31241424280722e-13)
(-7.99875685784848e-12,-1.0370494185142e-09,-1.23589837953887e-13)
(0,0,0)
(0,0,0)
(0,0,0)
(0,0,0)
(0,0,0)
(0,0,0)
(-4.45874382192501e-12,-8.26464583820204e-12,2.68154628819732e-11)
(-7.75347407049651e-12,-1.59310724921986e-11,2.53380016544398e-11)
(-9.71852628048227e-12,-2.91573574261254e-11,2.29355523248271e-11)
(-1.15013280207195e-11,-4.91912013949503e-11,1.90440643157223e-11)
(-1.40242202426625e-11,-7.69721034562519e-11,1.4122174861219e-11)
(-1.68644384726777e-11,-1.19187014236435e-10,8.60172001568957e-12)
(-1.86326957676829e-11,-1.8798920919944e-10,3.80500912853666e-12)
(-1.90707591167773e-11,-3.05519375446979e-10,1.16345112599373e-12)
(-1.69577944873322e-11,-5.29015061150867e-10,6.2817267058161e-15)
(-1.51913189132683e-11,-1.03837506674408e-09,-2.44407075203957e-13)
(0,0,0)
(0,0,0)
(0,0,0)
(0,0,0)
(0,0,0)
(0,0,0)
(-5.96720378976106e-12,-7.51599755942182e-12,4.26213606102776e-11)
(-1.07114392254153e-11,-1.45519259578161e-11,4.07724567602464e-11)
(-1.36211379855045e-11,-2.64331466679894e-11,3.74405621294823e-11)
(-1.60851277190574e-11,-4.5809339344318e-11,3.22793339278627e-11)
(-1.93714642287138e-11,-7.31404942696256e-11,2.48134468537888e-11)
(-2.26730255609494e-11,-1.16350487970167e-10,1.59767673473918e-11)
(-2.45360577681992e-11,-1.87801367860423e-10,7.72256621748686e-12)
(-2.39786852587356e-11,-3.07435595606454e-10,3.8139846577938e-12)
(-2.09549296745865e-11,-5.31519664516895e-10,2.31519356725609e-12)
(-1.94578235637839e-11,-1.04066756646624e-09,9.84574951524486e-13)
(0,0,0)
(0,0,0)
(0,0,0)
(0,0,0)
(0,0,0)
(0,0,0)
(-6.61195616920427e-12,-6.6279688484558e-12,6.35126893259266e-11)
(-1.27577134582487e-11,-1.24894569245096e-11,6.1879738366767e-11)
(-1.66769978891146e-11,-2.2437421794831e-11,5.82770602025148e-11)
(-2.00385576752418e-11,-3.99662738841444e-11,5.21183564242866e-11)
(-2.39166672305973e-11,-6.63653206687382e-11,4.35436325403759e-11)
(-2.72269586183315e-11,-1.0992924506661e-10,3.24120832347588e-11)
(-2.79275738482262e-11,-1.85153211034336e-10,2.0248327873102e-11)
(-2.5578214113359e-11,-3.08522626088213e-10,1.40849769524898e-11)
(-2.18188181328271e-11,-5.32645950255867e-10,9.93929294432502e-12)
(-2.03778974841352e-11,-1.04154054418699e-09,5.03036824772056e-12)
(0,0,0)
(0,0,0)
(0,0,0)
(0,0,0)
(0,0,0)
(0,0,0)
(-6.78152056723698e-12,-5.47456580466808e-12,9.05173086827813e-11)
(-1.37048188797656e-11,-1.02597336284216e-11,8.96652118094685e-11)
(-1.82020316651325e-11,-1.8103193285702e-11,8.70809156496443e-11)
(-2.26610321173438e-11,-3.30812028398436e-11,8.17126089586208e-11)
(-2.66613649591165e-11,-5.67116210173349e-11,7.36954341937104e-11)
(-2.87562200036881e-11,-9.80475287575457e-11,6.31967742901012e-11)
(-2.63863498053401e-11,-1.75971303563661e-10,5.22097684424372e-11)
(-2.37789230672621e-11,-3.05781253636279e-10,3.91677041149035e-11)
(-2.00878036181971e-11,-5.2959088249068e-10,2.74139151859567e-11)
(-1.81342106655459e-11,-1.0380974452723e-09,1.44763221965819e-11)
(0,0,0)
(0,0,0)
(0,0,0)
(0,0,0)
(0,0,0)
(0,0,0)
(-4.98046536295454e-12,-4.25948352877401e-12,1.29395638684125e-10)
(-1.14073117992244e-11,-8.32882695432572e-12,1.29710592061306e-10)
(-1.72577756797224e-11,-1.41734510904147e-11,1.28480146402032e-10)
(-2.26801040046829e-11,-2.59457350778082e-11,1.24948304714075e-10)
(-2.62002702238357e-11,-4.60599612617825e-11,1.18496439615654e-10)
(-2.71675850954347e-11,-8.56564391639735e-11,1.09047994298823e-10)
(-2.47399294483257e-11,-1.67274386127528e-10,9.64739282766968e-11)
(-2.17750718857023e-11,-2.96451065217486e-10,7.8998413019325e-11)
(-1.88074363378218e-11,-5.17649452346732e-10,5.68201091338056e-11)
(-1.71353222960518e-11,-1.02396840324618e-09,3.00263547014912e-11)
(0,0,0)
(0,0,0)
(0,0,0)
(0,0,0)
(0,0,0)
(0,0,0)
(-3.87751659119224e-12,-3.37525342642079e-12,1.94310171408828e-10)
(-9.45675362873795e-12,-6.51548870175788e-12,1.94925783444206e-10)
(-1.52338798980853e-11,-1.08313792591565e-11,1.94710708586073e-10)
(-2.01461814768761e-11,-1.96634978944653e-11,1.93077007633415e-10)
(-2.24163934595942e-11,-3.63262230600144e-11,1.89127001439201e-10)
(-2.1400079734212e-11,-7.22579103829814e-11,1.81394873508017e-10)
(-2.16840877896201e-11,-1.52670589846761e-10,1.63284911432926e-10)
(-1.95291130632448e-11,-2.75735490188513e-10,1.41631129987938e-10)
(-1.70324791746454e-11,-4.91341357080386e-10,1.04312928123084e-10)
(-1.60541850150014e-11,-9.93679068233146e-10,5.62018013259752e-11)
(0,0,0)
(0,0,0)
(0,0,0)
(0,0,0)
(0,0,0)
(0,0,0)
(-3.65181074818474e-12,-2.91623587689305e-12,3.09656301973962e-10)
(-7.94212708271956e-12,-5.39676490474328e-12,3.09778796066397e-10)
(-1.24600161633003e-11,-8.56511807187475e-12,3.0986416752454e-10)
(-1.72129863786369e-11,-1.58400010898094e-11,3.09125774680808e-10)
(-2.00641464745519e-11,-3.14203789997911e-11,3.05807550006351e-10)
(-2.01791395778574e-11,-6.54710854746646e-11,2.97897629198362e-10)
(-2.03164716006067e-11,-1.33533042540142e-10,2.79531670574941e-10)
(-1.86763242097046e-11,-2.39737237893434e-10,2.43744164881038e-10)
(-1.66765939443527e-11,-4.43855533970329e-10,1.87018248227635e-10)
(-1.60882361342056e-11,-9.37467138029708e-10,1.06188864726885e-10)
(0,0,0)
(0,0,0)
(0,0,0)
(0,0,0)
(0,0,0)
(0,0,0)
(-1.91885231597151e-12,-2.19030057754317e-12,5.31704144436175e-10)
(-4.4853814845744e-12,-4.23270273358543e-12,5.31893897020358e-10)
(-8.22679620811367e-12,-6.60828510965232e-12,5.31953199259048e-10)
(-1.35239104094811e-11,-1.19566602132282e-11,5.30825019754381e-10)
(-1.81481561594511e-11,-2.44592898885848e-11,5.26401130519861e-10)
(-1.92561701804006e-11,-5.07232300265311e-11,5.15280636586258e-10)
(-1.9965535024469e-11,-9.94669064923203e-11,4.91467969837187e-10)
(-1.88683746908354e-11,-1.84215648144873e-10,4.45340068962855e-10)
(-1.72706283502521e-11,-3.63493611522439e-10,3.6476327959143e-10)
(-1.66024965646397e-11,-8.31105391461288e-10,2.27391654062133e-10)
(0,0,0)
(0,0,0)
(0,0,0)
(0,0,0)
(0,0,0)
(0,0,0)
(-9.60242809805952e-13,-1.01579008769805e-12,1.04065518506105e-09)
(-3.18119311548056e-12,-2.14767669745262e-12,1.04107233117314e-09)
(-7.35505753588002e-12,-3.64436771217699e-12,1.04096426838231e-09)
(-1.29370914426401e-11,-6.33164240196208e-12,1.03906909139953e-09)
(-1.84157727594276e-11,-1.31604989740481e-11,1.03373066880788e-09)
(-1.99702934704247e-11,-2.75835308458403e-11,1.02058121194879e-09)
(-2.11565242576702e-11,-5.39236882675281e-11,9.92385426403498e-10)
(-1.97122317534249e-11,-1.04545825407318e-10,9.37663352516867e-10)
(-1.81530209787575e-11,-2.26673646888231e-10,8.32035216961409e-10)
(-1.70249759923154e-11,-6.0368535005238e-10,6.04273147196191e-10)
(0,0,0)
(0,0,0)
(0,0,0)
(0,0,0)
(0,0,0)
(0,0,0)
(0,0,0)
(0,0,0)
(0,0,0)
(0,0,0)
(0,0,0)
(0,0,0)
(0,0,0)
(0,0,0)
(0,0,0)
(0,0,0)
(0,0,0)
(0,0,0)
(0,0,0)
(0,0,0)
(0,0,0)
(0,0,0)
(0,0,0)
(0,0,0)
(0,0,0)
(0,0,0)
(0,0,0)
(0,0,0)
(0,0,0)
(0,0,0)
(0,0,0)
(0,0,0)
(0,0,0)
(0,0,0)
(0,0,0)
(0,0,0)
(0,0,0)
(0,0,0)
(0,0,0)
(0,0,0)
(0,0,0)
(0,0,0)
(0,0,0)
(0,0,0)
(0,0,0)
(0,0,0)
(0,0,0)
(0,0,0)
(0,0,0)
(0,0,0)
(0,0,0)
(0,0,0)
(0,0,0)
(0,0,0)
(0,0,0)
(0,0,0)
(0,0,0)
(0,0,0)
(0,0,0)
(0,0,0)
(0,0,0)
(0,0,0)
(0,0,0)
(0,0,0)
(0,0,0)
(0,0,0)
(0,0,0)
(0,0,0)
(0,0,0)
(0,0,0)
(0,0,0)
(0,0,0)
(0,0,0)
(0,0,0)
(0,0,0)
(0,0,0)
(0,0,0)
(0,0,0)
(0,0,0)
(0,0,0)
(0,0,0)
(0,0,0)
(0,0,0)
(0,0,0)
(0,0,0)
(0,0,0)
(0,0,0)
(0,0,0)
(0,0,0)
(0,0,0)
(0,0,0)
(0,0,0)
(0,0,0)
(0,0,0)
(0,0,0)
(0,0,0)
(0,0,0)
(0,0,0)
(0,0,0)
(0,0,0)
(0,0,0)
(0,0,0)
(-2.32742125863792e-12,-1.27694031007705e-11,1.83421793721432e-11)
(-3.61927518321407e-12,-2.51488514557874e-11,1.72407938494487e-11)
(-3.8508049904326e-12,-4.32535121879958e-11,1.48462227426437e-11)
(-4.66737562893866e-12,-6.79379622969647e-11,1.14892191816462e-11)
(-6.41397814281079e-12,-1.02371073860076e-10,8.16759116900792e-12)
(-8.22807136202299e-12,-1.52557118761612e-10,4.19283406073921e-12)
(-8.80691410932178e-12,-2.25535179104915e-10,-1.05697382440068e-13)
(-8.60768693048606e-12,-3.31664802087499e-10,-1.84974467555737e-12)
(-7.69329638844403e-12,-4.8398583968754e-10,-1.91217353739488e-12)
(-6.79669846585253e-12,-6.68406984427909e-10,-1.19132564190484e-12)
(0,0,0)
(0,0,0)
(0,0,0)
(0,0,0)
(0,0,0)
(0,0,0)
(-3.72993087350299e-12,-1.22802057593677e-11,3.7381140541433e-11)
(-6.73017127544277e-12,-2.38864432412376e-11,3.51596051548544e-11)
(-8.55124903010622e-12,-4.12143177346919e-11,3.1126654330233e-11)
(-9.96130061648352e-12,-6.5813288675817e-11,2.50499855837978e-11)
(-1.23353745835816e-11,-9.97256386557137e-11,1.74049816953437e-11)
(-1.49042538517658e-11,-1.50100870050344e-10,7.72969164603217e-12)
(-1.61789791056126e-11,-2.25727394460855e-10,-1.47074266983618e-12)
(-1.59973695566158e-11,-3.33726895843658e-10,-4.1776155471011e-12)
(-1.42025023192094e-11,-4.86567569106791e-10,-3.46007026588229e-12)
(-1.31432262665522e-11,-6.70960376654611e-10,-1.89801571855803e-12)
(0,0,0)
(0,0,0)
(0,0,0)
(0,0,0)
(0,0,0)
(0,0,0)
(-5.00632865229765e-12,-1.09037062612849e-11,5.93177673136457e-11)
(-9.44201362664438e-12,-2.1482662286228e-11,5.65066787271584e-11)
(-1.24556346568694e-11,-3.7139640936634e-11,5.12399839658924e-11)
(-1.44623061054709e-11,-6.01845135227144e-11,4.29953318597784e-11)
(-1.73099583235349e-11,-9.26296595426632e-11,3.10466612069124e-11)
(-2.08400673347927e-11,-1.44260699180314e-10,1.46460304456692e-11)
(-2.32756330333271e-11,-2.26599516886496e-10,-3.20098850187188e-12)
(-2.13928636873792e-11,-3.38762255287701e-10,-5.78047730489648e-12)
(-1.84980253192459e-11,-4.91657886264393e-10,-3.04081317007226e-12)
(-1.76002708919388e-11,-6.75560851345055e-10,-8.92035660471742e-13)
(0,0,0)
(0,0,0)
(0,0,0)
(0,0,0)
(0,0,0)
(0,0,0)
(-6.13240825414166e-12,-9.02960134195149e-12,8.659045934968e-11)
(-1.13847585891365e-11,-1.78621583662973e-11,8.35778708996748e-11)
(-1.48525226204697e-11,-3.08846172218992e-11,7.76782650221453e-11)
(-1.8348904836484e-11,-5.02849376079931e-11,6.81211843699428e-11)
(-2.24388175754913e-11,-7.92022603009884e-11,5.39212754376687e-11)
(-2.69449195659567e-11,-1.29912676015322e-10,3.21677924826158e-11)
(-3.09461303986311e-11,-2.25150178201418e-10,2.69433703306066e-12)
(-2.41739025568835e-11,-3.46335287416268e-10,2.18074222906216e-12)
(-1.99649612011524e-11,-4.97593847300988e-10,4.95026388000133e-12)
(-1.8790628151155e-11,-6.79601841366906e-10,3.88032659683521e-12)
(0,0,0)
(0,0,0)
(0,0,0)
(0,0,0)
(0,0,0)
(0,0,0)
(-7.14450596991021e-12,-6.71040861234671e-12,1.19918459842946e-10)
(-1.30514293934136e-11,-1.34906786728748e-11,1.1773978036901e-10)
(-1.67634671699341e-11,-2.33558289640401e-11,1.13330108934899e-10)
(-2.1779325114717e-11,-3.82026484134294e-11,1.05117175470552e-10)
(-2.68143648099841e-11,-6.00748564616853e-11,9.23424588396264e-11)
(-3.01603037503325e-11,-1.00413027283021e-10,7.52388290730631e-11)
(-2.20412029145716e-11,-1.9870235578191e-10,6.81128154432914e-11)
(-2.13553225576609e-11,-3.527166260648e-10,4.28691268054554e-11)
(-1.90916407710851e-11,-5.0001516326902e-10,3.00480036954087e-11)
(-1.77869304955107e-11,-6.7811789740604e-10,1.61905639521806e-11)
(0,0,0)
(0,0,0)
(0,0,0)
(0,0,0)
(0,0,0)
(0,0,0)
(-6.1796488417171e-12,-4.71035724289182e-12,1.64878685542506e-10)
(-1.19902043928556e-11,-9.76556322219485e-12,1.64224885749133e-10)
(-1.70680058234258e-11,-1.6189609174555e-11,1.61885999313414e-10)
(-2.25104760884899e-11,-2.60654429597389e-11,1.56658395228647e-10)
(-2.64855631095123e-11,-4.13675627882981e-11,1.4761918172515e-10)
(-2.7992047854322e-11,-7.76579618254009e-11,1.34525761669373e-10)
(-2.18682104714098e-11,-1.97615142817804e-10,1.23641051289294e-10)
(-2.03123430296796e-11,-3.48235321918385e-10,9.79987808176562e-11)
(-1.83217771713411e-11,-4.88955566128252e-10,6.90896416757657e-11)
(-1.73983026082228e-11,-6.626416786024e-10,3.59136870845126e-11)
(0,0,0)
(0,0,0)
(0,0,0)
(0,0,0)
(0,0,0)
(0,0,0)
(-4.95214617546452e-12,-3.28831457980899e-12,2.32929046767021e-10)
(-1.03604025679851e-11,-6.56523155228873e-12,2.33146035397671e-10)
(-1.58664401330298e-11,-1.05691566679602e-11,2.3284132471762e-10)
(-2.00196720869912e-11,-1.6052155451942e-11,2.31135707020972e-10)
(-1.95901095883771e-11,-2.37881037267139e-11,2.29191142496404e-10)
(-1.00769425678316e-11,-4.5035280082799e-11,2.28083476741492e-10)
(-1.9167853650751e-11,-1.78895066590266e-10,1.90010253534442e-10)
(-1.8209163494295e-11,-3.23560038886063e-10,1.84536259460092e-10)
(-1.64071754870387e-11,-4.57130687051752e-10,1.27791176827067e-10)
(-1.60643138926362e-11,-6.26683145997415e-10,6.56622895047402e-11)
(0,0,0)
(0,0,0)
(0,0,0)
(0,0,0)
(0,0,0)
(0,0,0)
(-4.50024013927312e-12,-2.52079666120919e-12,3.37180978617444e-10)
(-9.19156071229765e-12,-4.74449862977838e-12,3.37198982870908e-10)
(-1.36784562819757e-11,-7.61703857794634e-12,3.37529032132696e-10)
(-1.77781025801524e-11,-1.31229492591306e-11,3.37338782080495e-10)
(-1.91153147778583e-11,-2.57274519810453e-11,3.36858433951574e-10)
(-1.65610364025816e-11,-6.18656232588957e-11,3.36216143644068e-10)
(-1.85951019545292e-11,-1.68380090675268e-10,3.24741671074733e-10)
(-1.74719973056145e-11,-2.69268016913091e-10,2.74859942338465e-10)
(-1.62091328912659e-11,-3.95824608930568e-10,1.99292387621896e-10)
(-1.62611179754164e-11,-5.6071413224566e-10,1.07184972617702e-10)
(0,0,0)
(0,0,0)
(0,0,0)
(0,0,0)
(0,0,0)
(0,0,0)
(-3.28311538994281e-12,-1.84323763223257e-12,4.88821719238573e-10)
(-6.62970975979415e-12,-3.81935178098366e-12,4.88929445796698e-10)
(-1.0062534100752e-11,-6.02431166381452e-12,4.88941786768857e-10)
(-1.4725038986011e-11,-1.14075097540133e-11,4.88143878885575e-10)
(-1.83264531396421e-11,-2.44916718782975e-11,4.85029670259981e-10)
(-1.85832026122743e-11,-5.52610124660454e-11,4.76540296956457e-10)
(-1.93808523751558e-11,-1.18772398083966e-10,4.5378263546627e-10)
(-1.79614080578001e-11,-1.95085818111479e-10,3.97071274210526e-10)
(-1.67189674548383e-11,-3.04345082746887e-10,3.05894164475822e-10)
(-1.66308839113775e-11,-4.53528955767726e-10,1.74833039130546e-10)
(0,0,0)
(0,0,0)
(0,0,0)
(0,0,0)
(0,0,0)
(0,0,0)
(-2.39317901015605e-12,-8.77720602544768e-13,6.73312185954066e-10)
(-5.22080702250585e-12,-1.9542951000004e-12,6.73875256785822e-10)
(-9.10424826465195e-12,-3.34376906886493e-12,6.74111235675151e-10)
(-1.39303112536279e-11,-6.81380536839468e-12,6.72640583517912e-10)
(-1.84268148737969e-11,-1.48340763885023e-11,6.6740445679024e-10)