/*--------------------------------*- C++ -*----------------------------------*\
| =========                 |                                                 |
| \\      /  F ield         | foam-extend: Open Source CFD                    |
|  \\    /   O peration     | Version:     4.0                                |
|   \\  /    A nd           | Web:         http://www.foam-extend.org         |
|    \\/     M anipulation  |                                                 |
\*---------------------------------------------------------------------------*/
FoamFile
{
    version 2.0;
    format ascii;
    class volVectorField;
    location "4033";
    object      E;
}
// * * * * * * * * * * * * * * * * * * * * * * * * * * * * * * * * * * * * * //

dimensions      [0 1 -1 0 0 0 0];

internalField   nonuniform List<vector>
4096
(
(0,0,0)
(0,0,0)
(0,0,0)
(0,0,0)
(0,0,0)
(0,0,0)
(0,0,0)
(0,0,0)
(0,0,0)
(0,0,0)
(0,0,0)
(0,0,0)
(0,0,0)
(0,0,0)
(0,0,0)
(0,0,0)
(0,0,0)
(0,0,0)
(0,0,0)
(0,0,0)
(0,0,0)
(0,0,0)
(0,0,0)
(0,0,0)
(0,0,0)
(0,0,0)
(0,0,0)
(0,0,0)
(0,0,0)
(0,0,0)
(0,0,0)
(0,0,0)
(0,0,0)
(0,0,0)
(0,0,0)
(0,0,0)
(0,0,0)
(0,0,0)
(0,0,0)
(0,0,0)
(0,0,0)
(0,0,0)
(0,0,0)
(0,0,0)
(0,0,0)
(0,0,0)
(0,0,0)
(0,0,0)
(0,0,0)
(0,0,0)
(0,0,0)
(0,0,0)
(0,0,0)
(0,0,0)
(0,0,0)
(0,0,0)
(0,0,0)
(0,0,0)
(0,0,0)
(0,0,0)
(0,0,0)
(0,0,0)
(0,0,0)
(0,0,0)
(0,0,0)
(0,0,0)
(0,0,0)
(0,0,0)
(0,0,0)
(0,0,0)
(0,0,0)
(0,0,0)
(0,0,0)
(0,0,0)
(0,0,0)
(0,0,0)
(0,0,0)
(0,0,0)
(0,0,0)
(0,0,0)
(0,0,0)
(0,0,0)
(0,0,0)
(0,0,0)
(0,0,0)
(0,0,0)
(0,0,0)
(0,0,0)
(0,0,0)
(0,0,0)
(0,0,0)
(0,0,0)
(0,0,0)
(0,0,0)
(0,0,0)
(0,0,0)
(0,0,0)
(0,0,0)
(0,0,0)
(0,0,0)
(0,0,0)
(0,0,0)
(0,0,0)
(0,0,0)
(0,0,0)
(0,0,0)
(0,0,0)
(0,0,0)
(0,0,0)
(0,0,0)
(0,0,0)
(0,0,0)
(0,0,0)
(0,0,0)
(0,0,0)
(0,0,0)
(0,0,0)
(0,0,0)
(0,0,0)
(0,0,0)
(0,0,0)
(0,0,0)
(0,0,0)
(0,0,0)
(0,0,0)
(0,0,0)
(0,0,0)
(0,0,0)
(0,0,0)
(0,0,0)
(0,0,0)
(0,0,0)
(0,0,0)
(0,0,0)
(0,0,0)
(0,0,0)
(0,0,0)
(0,0,0)
(0,0,0)
(0,0,0)
(0,0,0)
(0,0,0)
(0,0,0)
(0,0,0)
(0,0,0)
(0,0,0)
(0,0,0)
(0,0,0)
(0,0,0)
(0,0,0)
(0,0,0)
(0,0,0)
(0,0,0)
(0,0,0)
(0,0,0)
(0,0,0)
(0,0,0)
(0,0,0)
(0,0,0)
(0,0,0)
(0,0,0)
(0,0,0)
(0,0,0)
(0,0,0)
(0,0,0)
(0,0,0)
(0,0,0)
(0,0,0)
(0,0,0)
(0,0,0)
(0,0,0)
(0,0,0)
(0,0,0)
(0,0,0)
(0,0,0)
(0,0,0)
(0,0,0)
(0,0,0)
(0,0,0)
(0,0,0)
(0,0,0)
(0,0,0)
(0,0,0)
(0,0,0)
(0,0,0)
(0,0,0)
(0,0,0)
(0,0,0)
(0,0,0)
(0,0,0)
(0,0,0)
(0,0,0)
(0,0,0)
(0,0,0)
(0,0,0)
(0,0,0)
(0,0,0)
(0,0,0)
(0,0,0)
(0,0,0)
(0,0,0)
(0,0,0)
(0,0,0)
(0,0,0)
(0,0,0)
(0,0,0)
(0,0,0)
(0,0,0)
(0,0,0)
(0,0,0)
(0,0,0)
(0,0,0)
(0,0,0)
(0,0,0)
(0,0,0)
(0,0,0)
(0,0,0)
(0,0,0)
(0,0,0)
(0,0,0)
(0,0,0)
(0,0,0)
(0,0,0)
(0,0,0)
(0,0,0)
(0,0,0)
(0,0,0)
(0,0,0)
(0,0,0)
(0,0,0)
(0,0,0)
(0,0,0)
(0,0,0)
(0,0,0)
(0,0,0)
(0,0,0)
(0,0,0)
(0,0,0)
(0,0,0)
(0,0,0)
(0,0,0)
(0,0,0)
(0,0,0)
(0,0,0)
(0,0,0)
(0,0,0)
(0,0,0)
(0,0,0)
(0,0,0)
(0,0,0)
(0,0,0)
(0,0,0)
(0,0,0)
(0,0,0)
(0,0,0)
(0,0,0)
(0,0,0)
(0,0,0)
(0,0,0)
(0,0,0)
(0,0,0)
(0,0,0)
(0,0,0)
(0,0,0)
(0,0,0)
(0,0,0)
(0,0,0)
(0,0,0)
(0,0,0)
(0,0,0)
(0,0,0)
(0,0,0)
(0,0,0)
(0,0,0)
(0,0,0)
(0,0,0)
(0,0,0)
(0,0,0)
(0,0,0)
(0,0,0)
(0,0,0)
(0,0,0)
(0,0,0)
(0,0,0)
(0,0,0)
(0,0,0)
(0,0,0)
(0,0,0)
(0,0,0)
(0,0,0)
(0,0,0)
(0,0,0)
(0,0,0)
(0,0,0)
(0,0,0)
(0,0,0)
(0,0,0)
(0,0,0)
(0,0,0)
(0,0,0)
(0,0,0)
(0,0,0)
(0,0,0)
(0,0,0)
(0,0,0)
(0,0,0)
(0,0,0)
(0,0,0)
(0,0,0)
(0,0,0)
(0,0,0)
(0,0,0)
(0,0,0)
(0,0,0)
(0,0,0)
(0,0,0)
(0,0,0)
(0,0,0)
(0,0,0)
(0,0,0)
(0,0,0)
(0,0,0)
(0,0,0)
(0,0,0)
(0,0,0)
(0,0,0)
(0,0,0)
(0,0,0)
(0,0,0)
(0,0,0)
(0,0,0)
(0,0,0)
(0,0,0)
(0,0,0)
(0,0,0)
(0,0,0)
(0,0,0)
(0,0,0)
(0,0,0)
(0,0,0)
(0,0,0)
(0,0,0)
(0,0,0)
(0,0,0)
(0,0,0)
(0,0,0)
(0,0,0)
(0,0,0)
(0,0,0)
(0,0,0)
(0,0,0)
(0,0,0)
(0,0,0)
(0,0,0)
(0,0,0)
(0,0,0)
(0,0,0)
(0,0,0)
(0,0,0)
(0,0,0)
(0,0,0)
(0,0,0)
(0,0,0)
(0,0,0)
(0,0,0)
(0,0,0)
(0,0,0)
(0,0,0)
(0,0,0)
(0,0,0)
(0,0,0)
(0,0,0)
(0,0,0)
(0,0,0)
(0,0,0)
(0,0,0)
(0,0,0)
(0,0,0)
(0,0,0)
(0,0,0)
(0,0,0)
(0,0,0)
(0,0,0)
(0,0,0)
(0,0,0)
(0,0,0)
(0,0,0)
(0,0,0)
(0,0,0)
(0,0,0)
(0,0,0)
(0,0,0)
(0,0,0)
(0,0,0)
(0,0,0)
(0,0,0)
(0,0,0)
(0,0,0)
(0,0,0)
(0,0,0)
(0,0,0)
(0,0,0)
(0,0,0)
(0,0,0)
(0,0,0)
(0,0,0)
(0,0,0)
(0,0,0)
(0,0,0)
(0,0,0)
(0,0,0)
(0,0,0)
(0,0,0)
(0,0,0)
(0,0,0)
(0,0,0)
(0,0,0)
(0,0,0)
(0,0,0)
(0,0,0)
(0,0,0)
(0,0,0)
(0,0,0)
(0,0,0)
(0,0,0)
(0,0,0)
(0,0,0)
(0,0,0)
(0,0,0)
(0,0,0)
(0,0,0)
(0,0,0)
(0,0,0)
(0,0,0)
(0,0,0)
(0,0,0)
(0,0,0)
(0,0,0)
(0,0,0)
(0,0,0)
(0,0,0)
(0,0,0)
(0,0,0)
(0,0,0)
(0,0,0)
(0,0,0)
(0,0,0)
(0,0,0)
(0,0,0)
(0,0,0)
(0,0,0)
(0,0,0)
(0,0,0)
(0,0,0)
(0,0,0)
(0,0,0)
(0,0,0)
(0,0,0)
(0,0,0)
(0,0,0)
(0,0,0)
(0,0,0)
(0,0,0)
(0,0,0)
(0,0,0)
(0,0,0)
(0,0,0)
(0,0,0)
(0,0,0)
(0,0,0)
(0,0,0)
(0,0,0)
(0,0,0)
(0,0,0)
(0,0,0)
(0,0,0)
(0,0,0)
(0,0,0)
(0,0,0)
(0,0,0)
(0,0,0)
(0,0,0)
(0,0,0)
(0,0,0)
(0,0,0)
(0,0,0)
(0,0,0)
(0,0,0)
(0,0,0)
(0,0,0)
(0,0,0)
(0,0,0)
(0,0,0)
(0,0,0)
(0,0,0)
(0,0,0)
(0,0,0)
(0,0,0)
(0,0,0)
(0,0,0)
(0,0,0)
(0,0,0)
(0,0,0)
(0,0,0)
(0,0,0)
(0,0,0)
(0,0,0)
(0,0,0)
(0,0,0)
(0,0,0)
(0,0,0)
(0,0,0)
(0,0,0)
(0,0,0)
(0,0,0)
(0,0,0)
(0,0,0)
(0,0,0)
(0,0,0)
(0,0,0)
(0,0,0)
(0,0,0)
(0,0,0)
(0,0,0)
(0,0,0)
(0,0,0)
(0,0,0)
(0,0,0)
(0,0,0)
(0,0,0)
(0,0,0)
(0,0,0)
(0,0,0)
(0,0,0)
(0,0,0)
(0,0,0)
(0,0,0)
(0,0,0)
(0,0,0)
(0,0,0)
(0,0,0)
(0,0,0)
(0,0,0)
(0,0,0)
(0,0,0)
(0,0,0)
(0,0,0)
(0,0,0)
(0,0,0)
(0,0,0)
(0,0,0)
(0,0,0)
(0,0,0)
(0,0,0)
(0,0,0)
(0,0,0)
(0,0,0)
(0,0,0)
(0,0,0)
(0,0,0)
(0,0,0)
(0,0,0)
(0,0,0)
(0,0,0)
(0,0,0)
(0,0,0)
(0,0,0)
(0,0,0)
(0,0,0)
(0,0,0)
(0,0,0)
(0,0,0)
(0,0,0)
(0,0,0)
(0,0,0)
(0,0,0)
(0,0,0)
(0,0,0)
(0,0,0)
(0,0,0)
(0,0,0)
(0,0,0)
(0,0,0)
(0,0,0)
(0,0,0)
(0,0,0)
(0,0,0)
(0,0,0)
(0,0,0)
(0,0,0)
(0,0,0)
(0,0,0)
(0,0,0)
(0,0,0)
(0,0,0)
(0,0,0)
(0,0,0)
(0,0,0)
(0,0,0)
(0,0,0)
(0,0,0)
(0,0,0)
(0,0,0)
(0,0,0)
(0,0,0)
(0,0,0)
(0,0,0)
(0,0,0)
(0,0,0)
(0,0,0)
(0,0,0)
(0,0,0)
(0,0,0)
(0,0,0)
(0,0,0)
(0,0,0)
(0,0,0)
(0,0,0)
(0,0,0)
(0,0,0)
(0,0,0)
(0,0,0)
(0,0,0)
(0,0,0)
(0,0,0)
(0,0,0)
(0,0,0)
(0,0,0)
(0,0,0)
(0,0,0)
(0,0,0)
(0,0,0)
(0,0,0)
(0,0,0)
(0,0,0)
(0,0,0)
(0,0,0)
(0,0,0)
(0,0,0)
(0,0,0)
(0,0,0)
(0,0,0)
(0,0,0)
(0,0,0)
(0,0,0)
(0,0,0)
(0,0,0)
(0,0,0)
(0,0,0)
(0,0,0)
(0,0,0)
(0,0,0)
(0,0,0)
(0,0,0)
(0,0,0)
(0,0,0)
(0,0,0)
(0,0,0)
(0,0,0)
(0,0,0)
(0,0,0)
(0,0,0)
(0,0,0)
(0,0,0)
(0,0,0)
(0,0,0)
(0,0,0)
(0,0,0)
(0,0,0)
(0,0,0)
(0,0,0)
(0,0,0)
(0,0,0)
(0,0,0)
(0,0,0)
(0,0,0)
(0,0,0)
(0,0,0)
(0,0,0)
(0,0,0)
(0,0,0)
(0,0,0)
(0,0,0)
(0,0,0)
(0,0,0)
(0,0,0)
(0,0,0)
(0,0,0)
(0,0,0)
(0,0,0)
(0,0,0)
(0,0,0)
(0,0,0)
(0,0,0)
(0,0,0)
(0,0,0)
(0,0,0)
(0,0,0)
(0,0,0)
(0,0,0)
(0,0,0)
(0,0,0)
(0,0,0)
(0,0,0)
(0,0,0)
(0,0,0)
(0,0,0)
(0,0,0)
(0,0,0)
(0,0,0)
(0,0,0)
(0,0,0)
(0,0,0)
(0,0,0)
(0,0,0)
(0,0,0)
(0,0,0)
(0,0,0)
(0,0,0)
(0,0,0)
(0,0,0)
(0,0,0)
(0,0,0)
(0,0,0)
(0,0,0)
(0,0,0)
(0,0,0)
(0,0,0)
(0,0,0)
(0,0,0)
(0,0,0)
(0,0,0)
(0,0,0)
(0,0,0)
(0,0,0)
(0,0,0)
(0,0,0)
(0,0,0)
(0,0,0)
(0,0,0)
(0,0,0)
(0,0,0)
(0,0,0)
(0,0,0)
(0,0,0)
(0,0,0)
(0,0,0)
(0,0,0)
(0,0,0)
(0,0,0)
(0,0,0)
(0,0,0)
(0,0,0)
(0,0,0)
(0,0,0)
(0,0,0)
(0,0,0)
(0,0,0)
(0,0,0)
(0,0,0)
(0,0,0)
(0,0,0)
(0,0,0)
(0,0,0)
(0,0,0)
(0,0,0)
(0,0,0)
(0,0,0)
(0,0,0)
(0,0,0)
(0,0,0)
(0,0,0)
(0,0,0)
(0,0,0)
(0,0,0)
(0,0,0)
(0,0,0)
(0,0,0)
(0,0,0)
(0,0,0)
(0,0,0)
(0,0,0)
(0,0,0)
(0,0,0)
(0,0,0)
(0,0,0)
(0,0,0)
(0,0,0)
(0,0,0)
(0,0,0)
(0,0,0)
(0,0,0)
(0,0,0)
(0,0,0)
(0,0,0)
(0,0,0)
(0,0,0)
(0,0,0)
(0,0,0)
(0,0,0)
(0,0,0)
(0,0,0)
(0,0,0)
(0,0,0)
(0,0,0)
(0,0,0)
(0,0,0)
(0,0,0)
(0,0,0)
(0,0,0)
(0,0,0)
(0,0,0)
(0,0,0)
(0,0,0)
(0,0,0)
(0,0,0)
(0,0,0)
(0,0,0)
(0,0,0)
(-27984.7068155242,14794.8983197394,13189.8084957834)
(-29554.925687348,14241.3312576016,28503.402925528)
(-33211.8712433423,12976.8508080115,48738.4233608537)
(-40240.7826499733,10975.5552629077,78003.6507479324)
(-52978.1749634682,8273.06188508355,122708.763826313)
(-75884.9004107656,5161.3349598116,193432.329277273)
(-117390.853203626,2340.0172403989,308483.165240528)
(-192365.859009742,645.344930424162,500203.679319845)
(-317436.815528855,43.4204355141127,817597.074413162)
(-442453.911347021,-59.7191998317785,1260110.70496006)
(0,0,0)
(0,0,0)
(0,0,0)
(0,0,0)
(0,0,0)
(0,0,0)
(-29581.4545172848,31856.311069426,12520.0417675978)
(-31168.2655378423,30783.1737319084,27146.4648311337)
(-34906.970741217,28381.6865972801,46648.5997830815)
(-42115.9389366575,24525.4055953846,75214.6883872613)
(-55213.908610022,19160.1520266826,119541.506855681)
(-78678.8750110707,12798.3237770826,190583.393049472)
(-120636.579512507,6769.3398568691,306790.649945493)
(-195314.794156033,2994.70286857195,499756.086163332)
(-319404.240751835,1489.58730585847,817714.160044902)
(-443378.252048345,736.23866092259,1260296.45423234)
(0,0,0)
(0,0,0)
(0,0,0)
(0,0,0)
(0,0,0)
(0,0,0)
(-33249.4935109404,53816.8734198051,11288.9311605609)
(-34890.431054652,52343.736580863,24618.7993662616)
(-38784.4271883961,49091.5061104466,42693.4070414972)
(-46369.1053841025,43762.3624590777,69825.5555619064)
(-60328.1876490511,36129.8233336263,113184.071904001)
(-85248.6694704211,26591.0690640138,184639.996087496)
(-128631.724824513,16936.9575638662,303104.103205036)
(-202651.026777137,10323.0669998226,498426.765850882)
(-324119.886197628,6814.212173038,817222.027181341)
(-445509.183776644,3696.35207334455,1259771.09754564)
(0,0,0)
(0,0,0)
(0,0,0)
(0,0,0)
(0,0,0)
(0,0,0)
(-40100.3609525539,84255.1091630584,9662.12520930056)
(-41793.9775842774,82572.4197545421,21227.4196199032)
(-45867.2320760374,78915.8327479834,37270.325058396)
(-53981.3405853731,72867.782018153,62146.2460846793)
(-69325.48333401,63962.7370768594,103638.815675476)
(-97032.4279124064,52266.1500821823,174996.162569709)
(-143849.149484234,39273.8762863014,296508.393331476)
(-216788.523389793,28635.101899213,494984.881821857)
(-332742.801420637,20323.0315294846,814218.863885985)
(-449265.566043556,10925.4695886832,1256255.31241446)
(0,0,0)
(0,0,0)
(0,0,0)
(0,0,0)
(0,0,0)
(0,0,0)
(-52444.497242712,128783.329946319,7916.27645944286)
(-54145.2313773948,127114.97236058,17518.9552307931)
(-58324.6796442044,123567.376473753,31192.0911492324)
(-66880.1641965977,117702.579981313,53237.457382676)
(-83643.7353905857,108921.266817118,91922.6630329904)
(-114780.995254745,96974.4340741502,161995.374295756)
(-166965.253046025,82325.1297555738,285909.373872531)
(-238277.822701457,66099.1282986454,486723.170174542)
(-345270.622960778,47473.0797507098,804843.744914207)
(-454707.610989302,25124.2105260101,1245352.61496622)
(0,0,0)
(0,0,0)
(0,0,0)
(0,0,0)
(0,0,0)
(0,0,0)
(-74802.1885200832,197341.912274123,6243.60619228517)
(-76413.2175219258,195847.946423878,13923.8496509102)
(-80472.0931619162,192717.214019986,25246.1052665957)
(-88951.5268732135,187444.815140961,44455.3969801519)
(-105877.393143536,179265.636374611,79988.4205662168)
(-137563.40983111,167155.376128502,147370.888342974)
(-189851.577505891,149836.030181159,269711.565423286)
(-257922.041749803,125627.160678419,468105.57479335)
(-358817.879223566,91954.8912252266,782441.642542375)
(-461539.569258339,49050.7662492376,1220054.65607747)
(0,0,0)
(0,0,0)
(0,0,0)
(0,0,0)
(0,0,0)
(0,0,0)
(-115804.285581609,308390.9616496,4755.23620613344)
(-117238.661894247,307113.635881637,10728.2086426358)
(-120876.894475531,304407.924445466,19914.3926926875)
(-128626.564819397,299697.917739483,36287.8549135546)
(-144350.984382218,291946.656783481,67957.8188869063)
(-174116.540063387,279104.622270048,130125.11280877)
(-223157.065259673,257548.19949486,245570.008754746)
(-285053.468896967,221782.228140514,434468.4101896)
(-379084.025019694,165935.52289601,739571.803538534)
(-472728.503425535,90413.1950929124,1170937.87812042)
(0,0,0)
(0,0,0)
(0,0,0)
(0,0,0)
(0,0,0)
(0,0,0)
(-190792.766165716,495743.096226324,3440.63158897211)
(-191947.751337506,494591.552196629,7910.46661148969)
(-194875.916644867,492060.338806917,15133.9688949085)
(-201178.975565743,487458.046945643,28552.8152544662)
(-214080.315102656,479305.201509249,55274.5856313563)
(-238818.760027562,464405.4599938,108792.507935141)
(-279893.958864834,436215.975586368,210018.690708424)
(-330037.763944922,383158.435549712,378680.247244186)
(-415904.819479362,296423.455125695,664097.134493864)
(-494119.692008512,168076.131500927,1080553.89009432)
(0,0,0)
(0,0,0)
(0,0,0)
(0,0,0)
(0,0,0)
(0,0,0)
(-316364.914546444,809869.072498579,2238.93827418426)
(-317157.730581031,808696.343492,5291.87755981953)
(-319158.941227192,806011.712005059,10499.445588832)
(-323415.942492916,800884.502545628,20488.9324817471)
(-331930.967757355,791126.065511632,40599.0362367553)
(-347931.02355313,772095.119109013,80840.4006746874)
(-374829.702013485,734699.685782454,157186.392492112)
(-414884.315451957,663193.652393996,292035.491099806)
(-483827.667472511,536576.028999643,535710.584698245)
(-531443.01880547,322708.221117375,912521.51388724)
(0,0,0)
(0,0,0)
(0,0,0)
(0,0,0)
(0,0,0)
(0,0,0)
(-441958.657734298,1250713.54210972,1114.18812314348)
(-442358.224748507,1249487.70635575,2681.05000788378)
(-443358.702372881,1246597.44404953,5454.02033630721)
(-445454.929554514,1240891.6369744,10901.8154621052)
(-449568.907129239,1229709.78652513,21887.0015778836)
(-457263.177941257,1207471.23917545,43774.0594526634)
(-470735.732186888,1163298.52356243,85910.9538595783)
(-493477.354078561,1077095.43845303,165486.521879058)
(-531325.820074453,911586.836555806,321801.534397245)
(-535147.387156573,589843.579787794,589813.562883499)
(0,0,0)
(0,0,0)
(0,0,0)
(0,0,0)
(0,0,0)
(0,0,0)
(0,0,0)
(0,0,0)
(0,0,0)
(0,0,0)
(0,0,0)
(0,0,0)
(0,0,0)
(0,0,0)
(0,0,0)
(0,0,0)
(0,0,0)
(0,0,0)
(0,0,0)
(0,0,0)
(0,0,0)
(0,0,0)
(0,0,0)
(0,0,0)
(0,0,0)
(0,0,0)
(0,0,0)
(0,0,0)
(0,0,0)
(0,0,0)
(0,0,0)
(0,0,0)
(0,0,0)
(0,0,0)
(0,0,0)
(0,0,0)
(0,0,0)
(0,0,0)
(0,0,0)
(0,0,0)
(0,0,0)
(0,0,0)
(0,0,0)
(0,0,0)
(0,0,0)
(0,0,0)
(0,0,0)
(0,0,0)
(0,0,0)
(0,0,0)
(0,0,0)
(0,0,0)
(0,0,0)
(0,0,0)
(0,0,0)
(0,0,0)
(0,0,0)
(0,0,0)
(0,0,0)
(0,0,0)
(0,0,0)
(0,0,0)
(0,0,0)
(0,0,0)
(0,0,0)
(0,0,0)
(0,0,0)
(0,0,0)
(0,0,0)
(0,0,0)
(0,0,0)
(0,0,0)
(0,0,0)
(0,0,0)
(0,0,0)
(0,0,0)
(0,0,0)
(0,0,0)
(0,0,0)
(0,0,0)
(0,0,0)
(0,0,0)
(0,0,0)
(0,0,0)
(0,0,0)
(0,0,0)
(0,0,0)
(0,0,0)
(0,0,0)
(0,0,0)
(0,0,0)
(0,0,0)
(0,0,0)
(0,0,0)
(0,0,0)
(0,0,0)
(0,0,0)
(0,0,0)
(0,0,0)
(0,0,0)
(0,0,0)
(0,0,0)
(4151702.63082828,13148.0981607268,11538.4097440697)
(4149029.30495753,12574.2148486195,24753.8097992335)
(4142935.39753969,11270.1053604126,41710.2812042334)
(4131394.82905032,9114.53411663195,65333.9809358433)
(4110722.57434418,6062.14930391086,99944.9278728634)
(4073862.46813539,2397.80915641565,152173.595718743)
(4006221.74549084,-882.717616189051,233817.560188862)
(3872620.75550327,-2296.73645352853,375501.527677911)
(3571264.30539722,-1904.71765660781,693078.96995701)
(2752729.24735069,-958.144073267729,1703227.80088135)
(0,0,0)
(0,0,0)
(0,0,0)
(0,0,0)
(0,0,0)
(0,0,0)
(4148960.839654,28115.6551087844,10863.9944292748)
(4146294.0984148,27003.110168174,23346.5807056586)
(4140118.2696394,24503.1610023613,39462.1302316556)
(4128322.10529165,20305.7237561916,62206.7419124334)
(4107065.50331447,14124.678613495,96238.6462269988)
(4069166.76641666,6305.61408134886,148859.045422953)
(4000484.28403789,-1160.92832517986,232390.238130243)
(3867458.75446495,-4311.3198460583,376005.118450386)
(3568045.39896697,-3212.34913894577,694236.955762226)
(2751303.91301855,-1390.32061947889,1704360.8127899)
(0,0,0)
(0,0,0)
(0,0,0)
(0,0,0)
(0,0,0)
(0,0,0)
(4142746.81949944,46878.9275814914,9614.26006537784)
(4140042.36922345,45350.457234526,20707.9582694714)
(4133686.88766183,41967.5907404014,35146.0592298811)
(4121340.01336946,36137.1658141785,55979.3439669707)
(4098585.10484837,27148.7715636997,88415.8040679425)
(4057589.72225412,14818.7063417319,141438.165631716)
(3984998.5047549,1730.59391239593,229290.25936331)
(3853273.65892446,-3800.38265610748,377228.482020431)
(3559792.23225607,-1795.85577167897,696273.715747813)
(2747882.22122557,-69.4812493769128,1705935.31692403)
(0,0,0)
(0,0,0)
(0,0,0)
(0,0,0)
(0,0,0)
(0,0,0)
(4131289.37171098,71859.5197548239,8003.52071166992)
(4128565.59385556,70161.2838661855,17206.9681887765)
(4122010.76118101,66460.2782196384,29210.1330010376)
(4108836.71282496,59988.9458565229,46914.1450969205)
(4083371.41301281,49670.3404472712,76069.5254151797)
(4035371.66873208,34512.7336771268,128345.246983879)
(3950757.72462243,16106.0375976125,223736.774740601)
(3821119.44356861,7140.64804789339,379261.622626815)
(3543190.4400067,7829.44484877287,698076.926127579)
(2741520.62224458,5510.0228103394,1706085.07932839)
(0,0,0)
(0,0,0)
(0,0,0)
(0,0,0)
(0,0,0)
(0,0,0)
(4111058.45740146,106450.222117583,6280.18854168037)
(4108387.18750328,104851.66899809,13431.2300776102)
(4101772.22746689,101484.295559545,22684.1511753469)
(4087902.61880073,95698.9593715523,36565.200211441)
(4059339.45824361,86735.5367303318,60890.6558428784)
(4000868.3916397,74197.9576670958,109929.890507109)
(3889330.58063645,59370.4815525026,214743.458418378)
(3761622.78810848,46408.2284168394,379949.112788158)
(3517209.74654994,33922.4508144307,695749.582860214)
(2732048.87450562,18311.1290805349,1700565.83664355)
(0,0,0)
(0,0,0)
(0,0,0)
(0,0,0)
(0,0,0)
(0,0,0)
(4074980.04111731,156355.584000491,4686.25402815199)
(4072494.4493225,155033.379039778,9970.72269058746)
(4066177.5293727,152344.460335567,16834.7809285176)
(4052544.89089101,147795.419859769,27615.748224721)
(4023672.44273333,140808.659808191,48366.63481852)
(3963602.38951268,130626.361923893,95146.2767664067)
(3850751.34828764,116521.233232499,201766.444841589)
(3728701.38486544,98496.0085387082,367429.083653052)
(3495091.78134686,71739.7049507937,680076.014495023)
(2721178.54923208,37922.1817835513,1682120.68885003)
(0,0,0)
(0,0,0)
(0,0,0)
(0,0,0)
(0,0,0)
(0,0,0)
(4008080.26078567,233469.528202182,3375.35497957987)
(4005902.87421081,232463.947421357,7177.09604157725)
(4000312.14593614,230473.991731548,12232.369782583)
(3987934.36070179,227185.335505542,20655.3741641248)
(3961035.6644949,222202.731601812,38248.4990419639)
(3903628.41310073,214395.220938199,81108.5324120707)
(3794245.87105758,200829.660469675,183771.014406027)
(3684085.06853475,176854.053049055,340648.278012549)
(3462229.71934504,129209.408167159,646238.67597981)
(2702596.20625893,69088.2676013473,1644121.72602623)
(0,0,0)
(0,0,0)
(0,0,0)
(0,0,0)
(0,0,0)
(0,0,0)
(3874437.80049287,370267.487409299,2345.31968294172)
(3872694.49474149,369483.507854195,5057.35871964115)
(3868241.69875766,367886.884562451,8900.69603475747)
(3858244.32285831,365310.939253527,15725.6394112291)
(3836117.3895036,361508.292985685,30596.2189695984)
(3787436.60405406,355350.472077942,67759.449296889)
(3691730.77549392,341365.16149872,159973.05945761)
(3619737.38365039,298436.698645963,292989.111813743)
(3395882.5640449,228669.651275249,586115.330729982)
(2659582.45503864,130847.33609481,1575027.96073797)
(0,0,0)
(0,0,0)
(0,0,0)
(0,0,0)
(0,0,0)
(0,0,0)
(3572317.8545779,684457.714219336,1500.84961427248)
(3571148.17134694,683686.508656822,3365.79243223318)
(3568163.22883606,681984.612511613,6319.73996838094)
(3561595.60148757,678968.775374938,12024.205414994)
(3547738.28747373,673588.685083343,24648.4036347421)
(3519554.40091163,662883.373297109,54003.9234995715)
(3468718.08747975,638965.628328131,117229.512725606)
(3397088.544883,584817.924228454,223249.2723568)
(3194868.44309989,489311.576927885,488285.081680392)
(2528691.22329438,319117.250676003,1444254.77054787)
(0,0,0)
(0,0,0)
(0,0,0)
(0,0,0)
(0,0,0)
(0,0,0)
(2753106.96709933,1693032.23021948,733.704714748959)
(2752542.96986562,1692173.39008383,1719.47422202453)
(2751077.48332911,1690237.56288624,3404.18369399132)
(2747903.41935823,1686593.19593483,6795.25977006929)
(2741451.67893039,1679542.94381073,14194.2605317117)
(2728807.28463695,1665039.82086404,30341.1959352353)
(2705329.16658743,1634379.71277046,63236.0582671597)
(2660252.9705441,1570952.17924306,127745.32417863)
(2528777.95719928,1443236.55548925,318090.413892219)
(2056129.29628892,1125151.18587209,1125153.6407992)
(0,0,0)
(0,0,0)
(0,0,0)
(0,0,0)
(0,0,0)
(0,0,0)
(0,0,0)
(0,0,0)
(0,0,0)
(0,0,0)
(0,0,0)
(0,0,0)
(0,0,0)
(0,0,0)
(0,0,0)
(0,0,0)
(0,0,0)
(0,0,0)
(0,0,0)
(0,0,0)
(0,0,0)
(0,0,0)
(0,0,0)
(0,0,0)
(0,0,0)
(0,0,0)
(0,0,0)
(0,0,0)
(0,0,0)
(0,0,0)
(0,0,0)
(0,0,0)
(0,0,0)
(0,0,0)
(0,0,0)
(0,0,0)
(0,0,0)
(0,0,0)
(0,0,0)
(0,0,0)
(0,0,0)
(0,0,0)
(0,0,0)
(0,0,0)
(0,0,0)
(0,0,0)
(0,0,0)
(0,0,0)
(0,0,0)
(0,0,0)
(0,0,0)
(0,0,0)
(0,0,0)
(0,0,0)
(0,0,0)
(0,0,0)
(0,0,0)
(0,0,0)
(0,0,0)
(0,0,0)
(0,0,0)
(0,0,0)
(0,0,0)
(0,0,0)
(0,0,0)
(0,0,0)
(0,0,0)
(0,0,0)
(0,0,0)
(0,0,0)
(0,0,0)
(0,0,0)
(0,0,0)
(0,0,0)
(0,0,0)
(0,0,0)
(0,0,0)
(0,0,0)
(0,0,0)
(0,0,0)
(0,0,0)
(0,0,0)
(0,0,0)
(0,0,0)
(0,0,0)
(0,0,0)
(0,0,0)
(0,0,0)
(0,0,0)
(0,0,0)
(0,0,0)
(0,0,0)
(0,0,0)
(0,0,0)
(0,0,0)
(0,0,0)
(0,0,0)
(0,0,0)
(0,0,0)
(0,0,0)
(0,0,0)
(0,0,0)
(-71869.6857011699,10350.7833743264,8847.68760652254)
(-74840.3107291215,9758.36644038984,18585.0913041225)
(-81464.8543173503,8426.83567315069,30184.66193957)
(-93658.0707069629,6080.31449058005,44783.4016577265)
(-114690.589231665,2464.41163484986,63358.3080501568)
(-149863.812624606,-2237.72775018697,84948.4710118818)
(-207367.297227949,-6549.49373207503,100713.161914304)
(-298319.580511438,-7433.83078097368,74713.4831614676)
(-428670.474051134,-5110.10797423215,-124615.474964506)
(-525747.316087603,-2342.73273195269,-1048170.02434277)
(0,0,0)
(0,0,0)
(0,0,0)
(0,0,0)
(0,0,0)
(0,0,0)
(-75025.9556944479,21788.9441207918,8174.78905336188)
(-77930.6547791659,20670.0578653039,17114.0052738298)
(-84510.6935858374,18086.4752874423,27709.4833362154)
(-96755.5664591745,13400.6239498496,41093.0000791271)
(-118111.702545927,5736.65862797498,58624.1133977736)
(-154241.046474839,-5184.32632929609,80604.6793197521)
(-213113.250720055,-16549.2429266706,99828.1177236186)
(-303182.932026208,-18457.7165856136,77119.8444707918)
(-431147.126417259,-11461.3503766756,-121710.23329083)
(-526638.418240835,-4798.87874280302,-1045685.60156906)
(0,0,0)
(0,0,0)
(0,0,0)
(0,0,0)
(0,0,0)
(0,0,0)
(-82034.9467861682,35294.4449715701,6902.41988636819)
(-84858.3404233776,33764.8041190073,14334.5377309405)
(-91383.7417180732,30253.411885406,22864.3849642021)
(-103796.70428639,23645.6108324947,33382.2701887778)
(-126276.6813697,11935.2267428498,47671.6427433647)
(-166118.915056876,-7387.69624094267,69209.8044172965)
(-232165.940052668,-32486.5058912615,97937.6666408718)
(-319855.855974518,-35956.6904056653,84192.3098112349)
(-438493.825148132,-18414.387331732,-114942.441377859)
(-528996.783285939,-6455.61815873246,-1040780.542999)
(0,0,0)
(0,0,0)
(0,0,0)
(0,0,0)
(0,0,0)
(0,0,0)
(-94634.1619917724,51523.7830692085,5320.35005656931)
(-97316.743796385,49887.2690581081,10706.377220808)
(-103701.130751391,46173.1181087534,16124.7173813081)
(-116402.758464712,39047.1720878974,21588.7818670154)
(-141395.829989688,25632.9673603009,28284.4387034206)
(-192127.31216548,-11.5079816089381,44033.3857930872)
(-291084.499463196,-45384.8887782077,94400.1472170271)
(-374154.686239169,-52400.5748701807,101744.315940705)
(-456743.442792961,-18159.4321799257,-102950.601959942)
(-533996.192283187,-3956.26832082564,-1034306.98281881)
(0,0,0)
(0,0,0)
(0,0,0)
(0,0,0)
(0,0,0)
(0,0,0)
(-115806.262689836,70348.9170139654,3665.74059792811)
(-118277.139988095,68944.5515683803,6898.94003052352)
(-124331.617512416,65905.3142354685,8896.74333437291)
(-137045.794550799,60386.4963746659,8131.98685067945)
(-164975.02575527,51100.5276645432,2605.06499662801)
(-236434.150108858,36922.9689217884,-1400.71570683932)
(-469804.016591974,20728.5704691932,87246.5767255056)
(-557288.159900459,13477.744953927,135905.359361725)
(-492399.352006479,11814.6102147194,-88833.430024958)
(-542169.069333862,7480.41431466017,-1030426.0143694)
(0,0,0)
(0,0,0)
(0,0,0)
(0,0,0)
(0,0,0)
(0,0,0)
(-150762.796251256,89469.7998439015,2248.10899018108)
(-152928.876763474,88482.8466497418,3759.29444624282)
(-158373.351284746,86510.3222529526,3331.32153763025)
(-170218.753333775,83222.2425007199,-1114.6259122729)
(-197339.145467894,78191.0866076891,-11567.4422027139)
(-268522.510574798,70688.3022123205,-17581.7209542396)
(-490403.006224833,60037.5836442696,79889.7748344281)
(-570445.607739149,53956.1342875215,134184.532556768)
(-508981.472101788,38948.8351955251,-93250.2845241556)
(-550358.651899578,19400.249158179,-1038006.76378454)
(0,0,0)
(0,0,0)
(0,0,0)
(0,0,0)
(0,0,0)
(0,0,0)
(-207885.296752694,99817.2187854597,1244.29304824103)
(-209688.099134117,99274.7145991105,1669.55289517166)
(-214273.130048145,98405.624492016,-14.3189082775992)
(-224611.367354805,97495.1950224845,-6115.38892194353)
(-249477.146620132,97250.2661589666,-19035.602906765)
(-319126.095011555,98214.0453909571,-28180.6835216422)
(-550393.792850666,98357.8748142109,73764.8436682633)
(-624316.025120219,112614.784446211,119133.441616023)
(-534155.591097248,62946.1148094031,-112852.373103925)
(-563889.177175681,26125.4360170983,-1057466.0220769)
(0,0,0)
(0,0,0)
(0,0,0)
(0,0,0)
(0,0,0)
(0,0,0)
(-299005.886595127,68211.623710529,675.436614283085)
(-300398.252932455,67982.9367224426,686.116616355443)
(-303903.232580212,67830.6278509162,-967.800953228694)
(-312010.361997253,68703.0440347112,-6294.81065840958)
(-332557.53389821,73200.7484000231,-17944.2150461439)
(-396419.225938774,87584.0268340722,-27832.2120450564)
(-648724.768946433,118495.358616144,88112.0030448549)
(-529307.411282934,76007.2512849743,69390.4855909574)
(-554303.115568841,27887.8038496751,-149739.369384032)
(-584835.18740238,85.6953481670438,-1083655.83182262)
(0,0,0)
(0,0,0)
(0,0,0)
(0,0,0)
(0,0,0)
(0,0,0)
(-429766.197740017,-134467.514973992,389.345453811519)
(-430673.204197415,-134654.943393279,474.755565364399)
(-432938.179900333,-134871.524285795,-95.5291100941959)
(-437948.016277323,-134508.01884584,-1714.69401316254)
(-449273.444004446,-132460.834287963,-3415.22539550808)
(-476334.485222359,-127589.888863394,3273.73088718547)
(-535502.640019613,-124104.790157051,45720.7616110936)
(-555166.132539313,-151635.169028373,21244.0137980776)
(-606456.725100978,-176395.237378816,-177521.622321133)
(-616203.729476179,-153238.883947012,-1083675.93580391)
(0,0,0)
(0,0,0)
(0,0,0)
(0,0,0)
(0,0,0)
(0,0,0)
(-526553.449920253,-1059370.27700736,189.333504414307)
(-526984.102317392,-1059634.1585806,321.775326139204)
(-528074.441710216,-1060125.80439063,354.13492177381)
(-530413.10998859,-1060647.15146186,435.951335911553)
(-535307.283176644,-1061240.8021422,1601.03574855581)
(-545482.376955422,-1063008.54383298,6935.50676183135)
(-564343.158368257,-1070128.10818859,18257.304200497)
(-585454.083188554,-1088471.26789452,-3573.38874941423)
(-616406.243844768,-1084822.27629281,-154335.994340062)
(-594918.655194468,-930480.93046537,-930419.841886928)
(0,0,0)
(0,0,0)
(0,0,0)
(0,0,0)
(0,0,0)
(0,0,0)
(0,0,0)
(0,0,0)
(0,0,0)
(0,0,0)
(0,0,0)
(0,0,0)
(0,0,0)
(0,0,0)
(0,0,0)
(0,0,0)
(0,0,0)
(0,0,0)
(0,0,0)
(0,0,0)
(0,0,0)
(0,0,0)
(0,0,0)
(0,0,0)
(0,0,0)
(0,0,0)
(0,0,0)
(0,0,0)
(0,0,0)
(0,0,0)
(0,0,0)
(0,0,0)
(0,0,0)
(0,0,0)
(0,0,0)
(0,0,0)
(0,0,0)
(0,0,0)
(0,0,0)
(0,0,0)
(0,0,0)
(0,0,0)
(0,0,0)
(0,0,0)
(0,0,0)
(0,0,0)
(0,0,0)
(0,0,0)
(0,0,0)
(0,0,0)
(0,0,0)
(0,0,0)
(0,0,0)
(0,0,0)
(0,0,0)
(0,0,0)
(0,0,0)
(0,0,0)
(0,0,0)
(0,0,0)
(0,0,0)
(0,0,0)
(0,0,0)
(0,0,0)
(0,0,0)
(0,0,0)
(0,0,0)
(0,0,0)
(0,0,0)
(0,0,0)
(0,0,0)
(0,0,0)
(0,0,0)
(0,0,0)
(0,0,0)
(0,0,0)
(0,0,0)
(0,0,0)
(0,0,0)
(0,0,0)
(0,0,0)
(0,0,0)
(0,0,0)
(0,0,0)
(0,0,0)
(0,0,0)
(0,0,0)
(0,0,0)
(0,0,0)
(0,0,0)
(0,0,0)
(0,0,0)
(0,0,0)
(0,0,0)
(0,0,0)
(0,0,0)
(0,0,0)
(0,0,0)
(0,0,0)
(0,0,0)
(0,0,0)
(0,0,0)
(-84928.9558180006,7198.44776747457,5860.82234935702)
(-87447.4714115768,6629.3779657498,11838.605066064)
(-92916.5473239001,5361.39842238984,17928.8996502259)
(-102599.50500748,2997.9542681664,23872.3796825782)
(-118333.619358708,-947.087047151756,28462.4968567737)
(-142605.719073112,-6601.18159748839,27805.5849027631)
(-177513.870548823,-12245.0762913409,10197.2345149779)
(-220728.952467901,-12250.5292453256,-55142.864283229)
(-255308.507279893,-7540.05688865526,-220964.77416577)
(-221982.926500189,-3209.98179821781,-521519.181954912)
(0,0,0)
(0,0,0)
(0,0,0)
(0,0,0)
(0,0,0)
(0,0,0)
(-87816.1808651782,14728.8957406079,5259.77719759252)
(-90191.7076470888,13682.6098478236,10467.5981834454)
(-95384.621836223,11216.8208771287,15486.1039790932)
(-104579.214050056,6407.74215919743,19899.9636789396)
(-119591.942800889,-2370.49914428365,22803.6160310289)
(-143171.211590512,-17001.8832494049,22134.4827986232)
(-177869.675287614,-35547.5921477088,10193.4232225543)
(-219794.283333751,-35112.259746015,-50333.4949692158)
(-253709.242601652,-18798.744395775,-216512.691277673)
(-220974.849518043,-7160.09624862668,-518226.145550154)
(0,0,0)
(0,0,0)
(0,0,0)
(0,0,0)
(0,0,0)
(0,0,0)
(-94069.9148093139,22668.9394036399,4094.92436011596)
(-96188.5844092682,21278.6363588708,7829.14183495879)
(-100837.419776182,17945.3622069165,10554.2785632773)
(-109021.448776729,11082.4354973159,11104.329715494)
(-122561.080425167,-3131.39734746736,8149.62697414441)
(-145192.048385923,-33334.1527663922,3555.02982016225)
(-183417.929610738,-91398.8517065721,10658.2789370922)
(-220051.115029365,-90307.6404589818,-33951.0812951109)
(-249705.491360834,-36717.010792272,-204821.14868592)
(-218464.331457946,-11496.3399741711,-511017.35678841)
(0,0,0)
(0,0,0)
(0,0,0)
(0,0,0)
(0,0,0)
(0,0,0)
(-104949.544474559,30326.6633014114,2657.65858502535)
(-106681.129365523,28907.4920473252,4393.1884657159)
(-110467.186760971,25530.6836124577,3573.92306975921)
(-116956.66552727,18399.8787049471,-3189.61307531007)
(-127605.402115414,2043.48403658955,-22154.9223336405)
(-148650.45766101,-44356.6031515092,-54609.3264530035)
(-224560.23571027,-224226.942125481,11694.5002129863)
(-236747.864237932,-235650.809855293,19630.8476080342)
(-240323.265964021,-53888.5629474365,-179617.777065735)
(-213400.065117727,-12167.1130231694,-499543.131182291)
(0,0,0)
(0,0,0)
(0,0,0)
(0,0,0)
(0,0,0)
(0,0,0)
(-122128.37548181,35432.2058551982,1216.57023818339)
(-123418.331390749,34333.5249555195,931.728732647626)
(-126099.387484404,31891.7547948278,-3661.57247772975)
(-129957.34744897,27254.3522535722,-19604.4931281796)
(-132683.384710699,18764.7776954578,-68617.427831621)
(-119630.007912925,4792.87942508952,-234571.05260415)
(5.94020163735815e-05,1.6535238770083e-05,-3.99428184650085e-05)