/*--------------------------------*- C++ -*----------------------------------*\
| =========                 |                                                 |
| \\      /  F ield         | foam-extend: Open Source CFD                    |
|  \\    /   O peration     | Version:     4.0                                |
|   \\  /    A nd           | Web:         http://www.foam-extend.org         |
|    \\/     M anipulation  |                                                 |
\*---------------------------------------------------------------------------*/
FoamFile
{
    version 2.0;
    format ascii;
    class volVectorField;
    location "1596";
    object      E;
}
// * * * * * * * * * * * * * * * * * * * * * * * * * * * * * * * * * * * * * //

dimensions      [0 1 -1 0 0 0 0];

internalField   nonuniform List<vector>
4096
(
(0,0,0)
(0,0,0)
(0,0,0)
(0,0,0)
(0,0,0)
(0,0,0)
(0,0,0)
(0,0,0)
(0,0,0)
(0,0,0)
(0,0,0)
(0,0,0)
(0,0,0)
(0,0,0)
(0,0,0)
(0,0,0)
(0,0,0)
(0,0,0)
(0,0,0)
(0,0,0)
(0,0,0)
(0,0,0)
(0,0,0)
(0,0,0)
(0,0,0)
(0,0,0)
(0,0,0)
(0,0,0)
(0,0,0)
(0,0,0)
(0,0,0)
(0,0,0)
(0,0,0)
(0,0,0)
(0,0,0)
(0,0,0)
(0,0,0)
(0,0,0)
(0,0,0)
(0,0,0)
(0,0,0)
(0,0,0)
(0,0,0)
(0,0,0)
(0,0,0)
(0,0,0)
(0,0,0)
(0,0,0)
(0,0,0)
(0,0,0)
(0,0,0)
(0,0,0)
(0,0,0)
(0,0,0)
(0,0,0)
(0,0,0)
(0,0,0)
(0,0,0)
(0,0,0)
(0,0,0)
(0,0,0)
(0,0,0)
(0,0,0)
(0,0,0)
(0,0,0)
(0,0,0)
(0,0,0)
(0,0,0)
(0,0,0)
(0,0,0)
(0,0,0)
(0,0,0)
(0,0,0)
(0,0,0)
(0,0,0)
(0,0,0)
(0,0,0)
(0,0,0)
(0,0,0)
(0,0,0)
(0,0,0)
(0,0,0)
(0,0,0)
(0,0,0)
(0,0,0)
(0,0,0)
(0,0,0)
(0,0,0)
(0,0,0)
(0,0,0)
(0,0,0)
(0,0,0)
(0,0,0)
(0,0,0)
(0,0,0)
(0,0,0)
(0,0,0)
(0,0,0)
(0,0,0)
(0,0,0)
(0,0,0)
(0,0,0)
(0,0,0)
(0,0,0)
(0,0,0)
(0,0,0)
(0,0,0)
(0,0,0)
(0,0,0)
(0,0,0)
(0,0,0)
(0,0,0)
(0,0,0)
(0,0,0)
(0,0,0)
(0,0,0)
(0,0,0)
(0,0,0)
(0,0,0)
(0,0,0)
(0,0,0)
(0,0,0)
(0,0,0)
(0,0,0)
(0,0,0)
(0,0,0)
(0,0,0)
(0,0,0)
(0,0,0)
(0,0,0)
(0,0,0)
(0,0,0)
(0,0,0)
(0,0,0)
(0,0,0)
(0,0,0)
(0,0,0)
(0,0,0)
(0,0,0)
(0,0,0)
(0,0,0)
(0,0,0)
(0,0,0)
(0,0,0)
(0,0,0)
(0,0,0)
(0,0,0)
(0,0,0)
(0,0,0)
(0,0,0)
(0,0,0)
(0,0,0)
(0,0,0)
(0,0,0)
(0,0,0)
(0,0,0)
(0,0,0)
(0,0,0)
(0,0,0)
(0,0,0)
(0,0,0)
(0,0,0)
(0,0,0)
(0,0,0)
(0,0,0)
(0,0,0)
(0,0,0)
(0,0,0)
(0,0,0)
(0,0,0)
(0,0,0)
(0,0,0)
(0,0,0)
(0,0,0)
(0,0,0)
(0,0,0)
(0,0,0)
(0,0,0)
(0,0,0)
(0,0,0)
(0,0,0)
(0,0,0)
(0,0,0)
(0,0,0)
(0,0,0)
(0,0,0)
(0,0,0)
(0,0,0)
(0,0,0)
(0,0,0)
(0,0,0)
(0,0,0)
(0,0,0)
(0,0,0)
(0,0,0)
(0,0,0)
(0,0,0)
(0,0,0)
(0,0,0)
(0,0,0)
(0,0,0)
(0,0,0)
(0,0,0)
(0,0,0)
(0,0,0)
(0,0,0)
(0,0,0)
(0,0,0)
(0,0,0)
(0,0,0)
(0,0,0)
(0,0,0)
(0,0,0)
(0,0,0)
(0,0,0)
(0,0,0)
(0,0,0)
(0,0,0)
(0,0,0)
(0,0,0)
(0,0,0)
(0,0,0)
(0,0,0)
(0,0,0)
(0,0,0)
(0,0,0)
(0,0,0)
(0,0,0)
(0,0,0)
(0,0,0)
(0,0,0)
(0,0,0)
(0,0,0)
(0,0,0)
(0,0,0)
(0,0,0)
(0,0,0)
(0,0,0)
(0,0,0)
(0,0,0)
(0,0,0)
(0,0,0)
(0,0,0)
(0,0,0)
(0,0,0)
(0,0,0)
(0,0,0)
(0,0,0)
(0,0,0)
(0,0,0)
(0,0,0)
(0,0,0)
(0,0,0)
(0,0,0)
(0,0,0)
(0,0,0)
(0,0,0)
(0,0,0)
(0,0,0)
(0,0,0)
(0,0,0)
(0,0,0)
(0,0,0)
(0,0,0)
(0,0,0)
(0,0,0)
(0,0,0)
(0,0,0)
(0,0,0)
(0,0,0)
(0,0,0)
(0,0,0)
(0,0,0)
(0,0,0)
(0,0,0)
(0,0,0)
(0,0,0)
(0,0,0)
(0,0,0)
(0,0,0)
(0,0,0)
(0,0,0)
(0,0,0)
(0,0,0)
(0,0,0)
(0,0,0)
(0,0,0)
(0,0,0)
(0,0,0)
(0,0,0)
(0,0,0)
(0,0,0)
(0,0,0)
(0,0,0)
(0,0,0)
(0,0,0)
(0,0,0)
(0,0,0)
(0,0,0)
(0,0,0)
(0,0,0)
(0,0,0)
(0,0,0)
(0,0,0)
(0,0,0)
(0,0,0)
(0,0,0)
(0,0,0)
(0,0,0)
(0,0,0)
(0,0,0)
(0,0,0)
(0,0,0)
(0,0,0)
(0,0,0)
(0,0,0)
(0,0,0)
(0,0,0)
(0,0,0)
(0,0,0)
(0,0,0)
(0,0,0)
(0,0,0)
(0,0,0)
(0,0,0)
(0,0,0)
(0,0,0)
(0,0,0)
(0,0,0)
(0,0,0)
(0,0,0)
(0,0,0)
(0,0,0)
(0,0,0)
(0,0,0)
(0,0,0)
(0,0,0)
(0,0,0)
(0,0,0)
(0,0,0)
(0,0,0)
(0,0,0)
(0,0,0)
(0,0,0)
(0,0,0)
(0,0,0)
(0,0,0)
(0,0,0)
(0,0,0)
(0,0,0)
(0,0,0)
(0,0,0)
(0,0,0)
(0,0,0)
(0,0,0)
(0,0,0)
(0,0,0)
(0,0,0)
(0,0,0)
(0,0,0)
(0,0,0)
(0,0,0)
(0,0,0)
(0,0,0)
(0,0,0)
(0,0,0)
(0,0,0)
(0,0,0)
(0,0,0)
(0,0,0)
(0,0,0)
(0,0,0)
(0,0,0)
(0,0,0)
(0,0,0)
(0,0,0)
(0,0,0)
(0,0,0)
(0,0,0)
(0,0,0)
(0,0,0)
(0,0,0)
(0,0,0)
(0,0,0)
(0,0,0)
(0,0,0)
(0,0,0)
(0,0,0)
(0,0,0)
(0,0,0)
(0,0,0)
(0,0,0)
(0,0,0)
(0,0,0)
(0,0,0)
(0,0,0)
(0,0,0)
(0,0,0)
(0,0,0)
(0,0,0)
(0,0,0)
(0,0,0)
(0,0,0)
(0,0,0)
(0,0,0)
(0,0,0)
(0,0,0)
(0,0,0)
(0,0,0)
(0,0,0)
(0,0,0)
(0,0,0)
(0,0,0)
(0,0,0)
(0,0,0)
(0,0,0)
(0,0,0)
(0,0,0)
(0,0,0)
(0,0,0)
(0,0,0)
(0,0,0)
(0,0,0)
(0,0,0)
(0,0,0)
(0,0,0)
(0,0,0)
(0,0,0)
(0,0,0)
(0,0,0)
(0,0,0)
(0,0,0)
(0,0,0)
(0,0,0)
(0,0,0)
(0,0,0)
(0,0,0)
(0,0,0)
(0,0,0)
(0,0,0)
(0,0,0)
(0,0,0)
(0,0,0)
(0,0,0)
(0,0,0)
(0,0,0)
(0,0,0)
(0,0,0)
(0,0,0)
(0,0,0)
(0,0,0)
(0,0,0)
(0,0,0)
(0,0,0)
(0,0,0)
(0,0,0)
(0,0,0)
(0,0,0)
(0,0,0)
(0,0,0)
(0,0,0)
(0,0,0)
(0,0,0)
(0,0,0)
(0,0,0)
(0,0,0)
(0,0,0)
(0,0,0)
(0,0,0)
(0,0,0)
(0,0,0)
(0,0,0)
(0,0,0)
(0,0,0)
(0,0,0)
(0,0,0)
(0,0,0)
(0,0,0)
(0,0,0)
(0,0,0)
(0,0,0)
(0,0,0)
(0,0,0)
(0,0,0)
(0,0,0)
(0,0,0)
(0,0,0)
(0,0,0)
(0,0,0)
(0,0,0)
(0,0,0)
(0,0,0)
(0,0,0)
(0,0,0)
(0,0,0)
(0,0,0)
(0,0,0)
(0,0,0)
(0,0,0)
(0,0,0)
(0,0,0)
(0,0,0)
(0,0,0)
(0,0,0)
(0,0,0)
(0,0,0)
(0,0,0)
(0,0,0)
(0,0,0)
(0,0,0)
(0,0,0)
(0,0,0)
(0,0,0)
(0,0,0)
(0,0,0)
(0,0,0)
(0,0,0)
(0,0,0)
(0,0,0)
(0,0,0)
(0,0,0)
(0,0,0)
(0,0,0)
(0,0,0)
(0,0,0)
(0,0,0)
(0,0,0)
(0,0,0)
(0,0,0)
(0,0,0)
(0,0,0)
(0,0,0)
(0,0,0)
(0,0,0)
(0,0,0)
(0,0,0)
(0,0,0)
(0,0,0)
(0,0,0)
(0,0,0)
(0,0,0)
(0,0,0)
(0,0,0)
(0,0,0)
(0,0,0)
(0,0,0)
(0,0,0)
(0,0,0)
(0,0,0)
(0,0,0)
(0,0,0)
(0,0,0)
(0,0,0)
(0,0,0)
(0,0,0)
(0,0,0)
(0,0,0)
(0,0,0)
(0,0,0)
(0,0,0)
(0,0,0)
(0,0,0)
(0,0,0)
(0,0,0)
(0,0,0)
(0,0,0)
(0,0,0)
(0,0,0)
(0,0,0)
(0,0,0)
(0,0,0)
(0,0,0)
(0,0,0)
(0,0,0)
(0,0,0)
(0,0,0)
(0,0,0)
(0,0,0)
(0,0,0)
(0,0,0)
(0,0,0)
(0,0,0)
(0,0,0)
(0,0,0)
(0,0,0)
(0,0,0)
(0,0,0)
(0,0,0)
(0,0,0)
(0,0,0)
(0,0,0)
(0,0,0)
(0,0,0)
(0,0,0)
(0,0,0)
(0,0,0)
(0,0,0)
(0,0,0)
(0,0,0)
(0,0,0)
(0,0,0)
(0,0,0)
(0,0,0)
(0,0,0)
(0,0,0)
(0,0,0)
(0,0,0)
(0,0,0)
(0,0,0)
(0,0,0)
(0,0,0)
(0,0,0)
(0,0,0)
(0,0,0)
(0,0,0)
(0,0,0)
(0,0,0)
(0,0,0)
(0,0,0)
(0,0,0)
(0,0,0)
(0,0,0)
(0,0,0)
(0,0,0)
(0,0,0)
(0,0,0)
(0,0,0)
(0,0,0)
(0,0,0)
(0,0,0)
(0,0,0)
(0,0,0)
(0,0,0)
(0,0,0)
(0,0,0)
(0,0,0)
(0,0,0)
(0,0,0)
(0,0,0)
(0,0,0)
(0,0,0)
(0,0,0)
(0,0,0)
(0,0,0)
(0,0,0)
(0,0,0)
(0,0,0)
(0,0,0)
(0,0,0)
(0,0,0)
(0,0,0)
(0,0,0)
(0,0,0)
(0,0,0)
(0,0,0)
(0,0,0)
(0,0,0)
(0,0,0)
(0,0,0)
(0,0,0)
(0,0,0)
(0,0,0)
(0,0,0)
(0,0,0)
(0,0,0)
(0,0,0)
(0,0,0)
(0,0,0)
(0,0,0)
(0,0,0)
(0,0,0)
(0,0,0)
(0,0,0)
(0,0,0)
(0,0,0)
(0,0,0)
(0,0,0)
(0,0,0)
(0,0,0)
(0,0,0)
(0,0,0)
(0,0,0)
(0,0,0)
(0,0,0)
(0,0,0)
(0,0,0)
(0,0,0)
(0,0,0)
(0,0,0)
(0,0,0)
(0,0,0)
(0,0,0)
(0,0,0)
(0,0,0)
(0,0,0)
(0,0,0)
(0,0,0)
(0,0,0)
(0,0,0)
(0,0,0)
(0,0,0)
(0,0,0)
(0,0,0)
(0,0,0)
(0,0,0)
(0,0,0)
(0,0,0)
(0,0,0)
(0,0,0)
(0,0,0)
(0,0,0)
(0,0,0)
(0,0,0)
(0,0,0)
(0,0,0)
(0,0,0)
(0,0,0)
(0,0,0)
(0,0,0)
(0,0,0)
(0,0,0)
(0,0,0)
(0,0,0)
(0,0,0)
(0,0,0)
(0,0,0)
(0,0,0)
(0,0,0)
(0,0,0)
(0,0,0)
(0,0,0)
(0,0,0)
(0,0,0)
(0,0,0)
(0,0,0)
(0,0,0)
(0,0,0)
(0,0,0)
(0,0,0)
(0,0,0)
(0,0,0)
(0,0,0)
(0,0,0)
(0,0,0)
(0,0,0)
(0,0,0)
(0,0,0)
(0,0,0)
(0,0,0)
(0,0,0)
(0,0,0)
(0,0,0)
(0,0,0)
(0,0,0)
(0,0,0)
(0,0,0)
(0,0,0)
(0,0,0)
(0,0,0)
(0,0,0)
(0,0,0)
(0,0,0)
(0,0,0)
(0,0,0)
(0,0,0)
(0,0,0)
(0,0,0)
(0,0,0)
(0,0,0)
(0,0,0)
(0,0,0)
(0,0,0)
(0,0,0)
(0,0,0)
(0,0,0)
(0,0,0)
(0,0,0)
(0,0,0)
(0,0,0)
(0,0,0)
(0,0,0)
(0,0,0)
(0,0,0)
(0,0,0)
(0,0,0)
(0,0,0)
(0,0,0)
(0,0,0)
(0,0,0)
(0,0,0)
(0,0,0)
(0,0,0)
(0,0,0)
(0,0,0)
(0,0,0)
(0,0,0)
(0,0,0)
(0,0,0)
(0,0,0)
(0,0,0)
(0,0,0)
(0,0,0)
(0,0,0)
(0,0,0)
(0,0,0)
(0,0,0)
(0,0,0)
(0,0,0)
(0,0,0)
(0,0,0)
(0,0,0)
(0,0,0)
(0,0,0)
(0,0,0)
(0,0,0)
(0,0,0)
(0,0,0)
(0,0,0)
(0,0,0)
(-217975.987263171,115835.430262758,102140.557000413)
(-230496.699514198,111040.195335529,221597.061179081)
(-259458.277978324,101050.025965205,380005.313192202)
(-314277.169385339,85371.1396385574,608911.342938988)
(-413267.391915226,64258.0884348392,957920.64641938)
(-590961.742458705,39963.3361736105,1508919.05270447)
(-912640.400949404,17881.62787621,2403677.82577769)
(-1493977.18951496,4395.45166418446,3893259.56362848)
(-2463960.39440335,-56.3487693171166,6357276.30680115)
(-3432953.94687623,-392.331928650108,9790622.58560607)
(0,0,0)
(0,0,0)
(0,0,0)
(0,0,0)
(0,0,0)
(0,0,0)
(-230554.810805865,249024.267322567,97365.9737460546)
(-243175.840412412,239960.595729311,211621.413764689)
(-272612.781561096,220941.089312621,364343.131978365)
(-328741.261604798,190647.978375863,587807.554845863)
(-430481.281928105,148875.266433863,933671.658774936)
(-612417.365984662,99218.1797691798,1486834.18116403)
(-937633.353575484,52260.5998788984,2390088.56273682)
(-1516755.28761308,22601.8545439626,3888637.44747006)
(-2479142.49124873,10971.8215306338,6356751.76841889)
(-3440047.53664128,5591.05496765278,9790815.9181638)
(0,0,0)
(0,0,0)
(0,0,0)
(0,0,0)
(0,0,0)
(0,0,0)
(-259218.391482976,419870.606954532,88372.0518510113)
(-272074.9374254,407713.285185182,192694.299820542)
(-302485.025679914,381934.482891832,334185.93192125)
(-361442.388710723,340113.795529124,546162.503478712)
(-469670.965428843,280596.637064276,884112.098277136)
(-662889.85635466,206333.038524103,1439887.09587687)
(-999292.209230885,131151.086576522,2360288.81841014)
(-1573531.48822409,79599.7801585913,3876822.38101958)
(-2515721.68023653,52425.5420630686,6351090.34072371)
(-3456627.53369994,28430.2342075572,9784878.69518378)
(0,0,0)
(0,0,0)
(0,0,0)
(0,0,0)
(0,0,0)
(0,0,0)
(-312703.871452238,656262.550382197,76311.9280245751)
(-325786.434774369,642720.489227006,167091.158757121)
(-357386.61798055,613817.062499486,292595.197130011)
(-420435.397315505,566334.371608266,486810.018366367)
(-539413.20266881,496928.540134287,809891.317965169)
(-754303.646110208,405825.255626308,1364702.74697317)
(-1117410.00819323,304676.799974213,2308587.04176872)
(-1683380.07972461,222138.29653233,3849428.60511954)
(-2582730.79219627,157850.363301267,6326734.57607756)
(-3485852.17683739,84952.1346315926,9756064.85249105)
(0,0,0)
(0,0,0)
(0,0,0)
(0,0,0)
(0,0,0)
(0,0,0)
(-408654.419175509,1002056.12869121,62860.8408664963)
(-421685.466539272,988870.297037785,138396.499594987)
(-453917.368551676,960772.367737594,245358.562908555)
(-520364.566950933,914515.209508499,417542.291959256)
(-650413.549934143,846114.490487202,718769.891540491)
(-892116.713443803,753257.923141678,1263453.9374689)
(-1297239.09310436,639507.226466235,2225862.60408125)
(-1850598.22470488,513695.385505168,3784903.7398133)
(-2680080.98133646,369288.614414821,6253546.47003627)
(-3528087.14846025,195741.61511317,9670844.13801494)
(0,0,0)
(0,0,0)
(0,0,0)
(0,0,0)
(0,0,0)
(0,0,0)
(-581872.880042614,1534177.43909157,49751.5696422578)
(-594267.158412665,1522443.00035099,110446.024741711)
(-625463.945551091,1497417.53722641,199264.800803984)
(-691247.836499821,1455792.65092292,349235.195889387)
(-822643.421385085,1392144.00623395,625849.101527726)
(-1068930.33685924,1298518.76506218,1149518.59646648)
(-1475309.36809939,1164464.32113246,2099870.86989967)
(-2003577.48772549,976856.709635705,3640287.03349463)
(-2785537.36165583,715312.749647265,6079800.25991807)
(-3581229.09118593,381851.160569728,9474919.80564732)
(0,0,0)
(0,0,0)
(0,0,0)
(0,0,0)
(0,0,0)
(0,0,0)
(-899893.058789799,2396030.24557666,38040.2523047079)
(-910897.065071288,2385899.34762863,85480.9700983658)
(-938907.573054101,2364085.91455976,157720.165819131)
(-998986.409275138,2326890.55340003,285608.672617156)
(-1121001.76003711,2266637.20931321,532117.229575007)
(-1352407.20798848,2167731.38224623,1015311.82037943)
(-1733776.89160226,2001395.68988521,1912157.34322895)
(-2214141.23426421,1724477.04287473,3378678.24425413)
(-2942690.43401212,1290372.28730076,5746309.14061269)
(-3667929.91358692,703098.455860553,9092991.75890888)
(0,0,0)
(0,0,0)
(0,0,0)
(0,0,0)
(0,0,0)
(0,0,0)
(-1481525.51416698,3849633.66778364,27922.0919599903)
(-1490325.77971158,3840427.81855073,63719.4007494743)
(-1512885.37280935,3820139.10703091,120551.581087672)
(-1561756.75241943,3783962.8409716,225236.045935529)
(-1662045.52429771,3720920.18528313,432998.594263306)
(-1854414.99347787,3606413.16731099,848731.802676408)
(-2173755.36354914,3388814.78534075,1635068.07077)
(-2562627.24784191,2977704.20955607,2944468.15193059)
(-3227989.25253525,2303821.07727289,5159008.61449371)
(-3833692.03019138,1305894.84153991,8389904.25900567)
(0,0,0)
(0,0,0)
(0,0,0)
(0,0,0)
(0,0,0)
(0,0,0)
(-2455479.44641462,6286368.15031392,18744.963884326)
(-2461488.40701472,6277165.96613392,43495.2233158695)
(-2476788.93333265,6256041.26093589,84382.0027435003)
(-2509664.16736421,6215977.07361644,162031.937462854)
(-2575937.46399951,6140606.86090725,318282.725838256)
(-2700426.92758188,5994254.22965058,630868.591080536)
(-2909444.60651106,5705462.53945017,1223665.44348219)
(-3220030.33742936,5151087.23338261,2270312.75708502)
(-3754253.72076207,4167416.47807933,4160971.07704059)
(-4122859.11551515,2505715.15393859,7084009.88015707)
(0,0,0)
(0,0,0)
(0,0,0)
(0,0,0)
(0,0,0)
(0,0,0)
(-3429077.43377201,9705921.06385269,9524.52023326323)
(-3432087.13636154,9696374.40913364,22403.2135951041)
(-3439681.35380466,9673878.07690006,44247.7514356083)
(-3455830.1184536,9629626.8541262,86428.0893794634)
(-3487928.54120475,9543343.73775319,171619.753738306)
(-3547884.07391862,9372059.35696496,341698.700342554)
(-3652482.85878314,9030782.15526311,668861.943312749)
(-3828750.66586425,8362420.4945344,1286279.34802517)
(-4121904.37206853,7076547.23250351,2499052.96566948)
(-4151167.19122017,4577805.89958824,4578129.41124002)
(0,0,0)
(0,0,0)
(0,0,0)
(0,0,0)
(0,0,0)
(0,0,0)
(0,0,0)
(0,0,0)
(0,0,0)
(0,0,0)
(0,0,0)
(0,0,0)
(0,0,0)
(0,0,0)
(0,0,0)
(0,0,0)
(0,0,0)
(0,0,0)
(0,0,0)
(0,0,0)
(0,0,0)
(0,0,0)
(0,0,0)
(0,0,0)
(0,0,0)
(0,0,0)
(0,0,0)
(0,0,0)
(0,0,0)
(0,0,0)
(0,0,0)
(0,0,0)
(0,0,0)
(0,0,0)
(0,0,0)
(0,0,0)
(0,0,0)
(0,0,0)
(0,0,0)
(0,0,0)
(0,0,0)
(0,0,0)
(0,0,0)
(0,0,0)
(0,0,0)
(0,0,0)
(0,0,0)
(0,0,0)
(0,0,0)
(0,0,0)
(0,0,0)
(0,0,0)
(0,0,0)
(0,0,0)
(0,0,0)
(0,0,0)
(0,0,0)
(0,0,0)
(0,0,0)
(0,0,0)
(0,0,0)
(0,0,0)
(0,0,0)
(0,0,0)
(0,0,0)
(0,0,0)
(0,0,0)
(0,0,0)
(0,0,0)
(0,0,0)
(0,0,0)
(0,0,0)
(0,0,0)
(0,0,0)
(0,0,0)
(0,0,0)
(0,0,0)
(0,0,0)
(0,0,0)
(0,0,0)
(0,0,0)
(0,0,0)
(0,0,0)
(0,0,0)
(0,0,0)
(0,0,0)
(0,0,0)
(0,0,0)
(0,0,0)
(0,0,0)
(0,0,0)
(0,0,0)
(0,0,0)
(0,0,0)
(0,0,0)
(0,0,0)
(0,0,0)
(0,0,0)
(0,0,0)
(0,0,0)
(0,0,0)
(0,0,0)
(32194275.7124104,103231.814152927,89581.8181901302)
(32173319.4199415,98309.3565427761,192521.67420829)
(32125152.0374283,87863.6683422771,325113.022475912)
(32035038.0746083,70913.836016779,509949.27448203)
(31874399.402686,47057.1593529971,780290.652544345)
(31588657.1620641,18514.4029946451,1187222.67704336)
(31064507.6015338,-7099.79368364026,1822239.80026034)
(30028687.0688784,-18380.9555376775,2923021.82942119)
(27691523.5172161,-15230.2087834847,5387833.45860185)
(21344425.1375815,-7468.25363049167,13222987.9597911)
(0,0,0)
(0,0,0)
(0,0,0)
(0,0,0)
(0,0,0)
(0,0,0)
(32172841.4953923,220209.803268048,84691.0367033146)
(32151863.9421054,210929.466839042,182096.475905834)
(32103230.9005229,191006.87324583,308174.920934865)
(32011376.3011554,157945.456275663,486091.069932295)
(31846342.0882982,109674.017276515,751716.173799055)
(31552602.3844251,48749.0096638738,1161527.1487367)
(31020422.2372437,-9386.05799138389,1810823.15424189)
(29988912.6885571,-34159.8769076705,2925999.43145831)
(27666823.4784445,-25566.6231408691,5395435.20813891)
(21333621.9942129,-10949.5847724106,13230312.3404432)
(0,0,0)
(0,0,0)
(0,0,0)
(0,0,0)
(0,0,0)
(0,0,0)
(32124360.1515532,366216.878293258,75479.7139551219)
(32103291.1488545,353849.940328852,162258.486201994)
(32053667.2896602,326940.666476225,275237.709648159)
(31957760.2736513,281106.737249003,437939.098329433)
(31781302.9546225,210875.696548366,690828.831022793)
(31463472.7647396,114949.173948542,1103331.37766044)
(30900799.8827005,13061.232358646,1785857.32739563)
(29879096.677973,-30241.0023427486,2934375.61865033)
(27602936.9815924,-14583.0066196259,5409798.67231664)
(21307107.6352594,-805.155926520614,13240984.4065281)
(0,0,0)
(0,0,0)
(0,0,0)
(0,0,0)
(0,0,0)
(0,0,0)
(32035206.185919,560174.738295028,63197.4146435392)
(32014147.9669807,546690.325258962,135487.959974947)
(31963309.8433955,517214.240717269,229583.256374446)
(31861098.8128642,466373.925948673,367847.189511702)
(31663538.7399386,385903.652308061,594932.623161223)
(31291230.9026253,267969.759815615,1001442.82057521)
(30634937.0986065,124808.371431502,1742413.90671924)
(29629149.5277409,54884.4485647649,2949824.18036283)
(27473865.8553774,60454.1745003248,5423255.68368568)
(21257525.3415864,42689.1584052379,13241449.1829468)
(0,0,0)
(0,0,0)
(0,0,0)
(0,0,0)
(0,0,0)
(0,0,0)
(31878105.747657,828691.900264301,49788.0032148338)
(31857548.2242538,816159.767718007,106150.201979244)
(31806448.0044546,789159.902910573,178904.49879635)
(31698882.9151731,743615.187260559,287481.087376905)
(31477196.4054605,673855.576486992,476984.539819931)
(31023277.1218792,576407.635408932,858218.160920233)
(30157105.9217245,461401.363342842,1672345.4861966)
(29165821.153074,360680.427849073,2955195.46115002)
(27271626.144919,263789.589243733,5405218.25216759)
(21183811.8094788,142585.149791441,13198488.6348589)
(0,0,0)
(0,0,0)
(0,0,0)
(0,0,0)
(0,0,0)
(0,0,0)
(31598540.3107327,1216010.95408443,37333.0874211487)
(31579367.8711678,1205672.96893478,79250.1886404407)
(31530679.305621,1183873.73896906,133458.433426471)
(31425087.7039805,1148007.86927712,217795.542946317)
(31200864.0648979,1093729.32304878,379479.642118166)
(30733956.336052,1014998.15029995,743067.786332495)
(29856822.7195655,905935.14188902,1571467.25213805)
(28909290.4141973,766228.60197053,2858116.50811031)
(27099502.0724121,558121.947959448,5283810.0473432)
(21099368.2521573,295148.033305831,13055715.1525022)
(0,0,0)
(0,0,0)
(0,0,0)
(0,0,0)
(0,0,0)
(0,0,0)
(31079871.2887118,1814241.73228607,27070.2063133443)
(31063145.7050297,1806267.70373251,57498.0334312412)
(31020014.6145343,1789908.69996897,97606.2168595722)
(30924205.3824392,1763988.46978842,163499.156650589)
(30715190.3129202,1725484.25967104,300617.479087679)
(30268749.8457304,1665658.81792195,633865.089763341)
(29418097.7794641,1561337.45051687,1431653.44208563)
(28562985.8536931,1375898.02767693,2649922.26043856)
(26844672.8546425,1004984.56672248,5020761.68503735)
(20955313.4543672,537264.55722106,12760467.1251846)
(0,0,0)
(0,0,0)
(0,0,0)
(0,0,0)
(0,0,0)
(0,0,0)
(30043130.0878954,2875504.5728279,19146.8894123754)
(30029937.4892275,2869058.51526077,41158.140961674)
(29995598.7263116,2856003.37584383,71644.6979824174)
(29918210.2686904,2835861.74099462,124869.737683027)
(29745998.6615138,2806835.75996172,240539.383597236)
(29367339.9269821,2760247.8873579,529260.725717961)
(28622894.5381352,2652990.41209367,1246023.19447332)
(28065265.77244,2320167.78141574,2278925.75246912)
(26330532.7412803,1777432.07202998,4553021.5853626)
(20621830.1585072,1016645.5503223,12223183.7355794)
(0,0,0)
(0,0,0)
(0,0,0)
(0,0,0)
(0,0,0)
(0,0,0)
(27699904.3089443,5312439.89153282,12746.2579527585)
(27691014.0511524,5306222.96641189,28144.680651133)
(27668099.2011882,5292839.47097465,51485.7830160187)
(27617478.6008645,5269524.85679334,95745.2310051392)
(27509680.2881017,5228298.12214832,193730.448733861)
(27290423.2500853,5146492.19833109,421701.292110086)
(26895245.2356226,4962174.30370678,912892.890379899)
(26340003.9062551,4542149.37449358,1735942.3856342)
(24772467.1783779,3799573.75348954,3792145.13705124)
(19607190.3437715,2477289.77727767,11206516.7828257)
(0,0,0)
(0,0,0)
(0,0,0)
(0,0,0)
(0,0,0)
(0,0,0)
(21347463.3032814,13134441.0504495,6523.43604646212)
(21343053.3130808,13127892.1758222,14779.1092103318)
(21331821.4887419,13113069.7268094,28111.3428455869)
(21307508.7315183,13085008.4325147,54354.2491690796)
(21257375.8886426,13030791.2276258,111622.045860892)
(21158850.1651434,12919453.9639859,236991.37316068)
(20976455.2554601,12682835.9246005,492456.970040289)
(20627082.0622206,12190811.3702696,993027.578196029)
(19607975.6823285,11198139.4427959,2469647.16650928)
(15943021.8291778,8728771.8641674,8729041.39123806)
(0,0,0)
(0,0,0)
(0,0,0)
(0,0,0)
(0,0,0)
(0,0,0)
(0,0,0)
(0,0,0)
(0,0,0)
(0,0,0)
(0,0,0)
(0,0,0)
(0,0,0)
(0,0,0)
(0,0,0)
(0,0,0)
(0,0,0)
(0,0,0)
(0,0,0)
(0,0,0)
(0,0,0)
(0,0,0)
(0,0,0)
(0,0,0)
(0,0,0)
(0,0,0)
(0,0,0)
(0,0,0)
(0,0,0)
(0,0,0)
(0,0,0)
(0,0,0)
(0,0,0)
(0,0,0)
(0,0,0)
(0,0,0)
(0,0,0)
(0,0,0)
(0,0,0)
(0,0,0)
(0,0,0)
(0,0,0)
(0,0,0)
(0,0,0)
(0,0,0)
(0,0,0)
(0,0,0)
(0,0,0)
(0,0,0)
(0,0,0)
(0,0,0)
(0,0,0)
(0,0,0)
(0,0,0)
(0,0,0)
(0,0,0)
(0,0,0)
(0,0,0)
(0,0,0)
(0,0,0)
(0,0,0)
(0,0,0)
(0,0,0)
(0,0,0)
(0,0,0)
(0,0,0)
(0,0,0)
(0,0,0)
(0,0,0)
(0,0,0)
(0,0,0)
(0,0,0)
(0,0,0)
(0,0,0)
(0,0,0)
(0,0,0)
(0,0,0)
(0,0,0)
(0,0,0)
(0,0,0)
(0,0,0)
(0,0,0)
(0,0,0)
(0,0,0)
(0,0,0)
(0,0,0)
(0,0,0)
(0,0,0)
(0,0,0)
(0,0,0)
(0,0,0)
(0,0,0)
(0,0,0)
(0,0,0)
(0,0,0)
(0,0,0)
(0,0,0)
(0,0,0)
(0,0,0)
(0,0,0)
(0,0,0)
(0,0,0)
(-561091.399514403,81752.0186664262,68549.7612417484)
(-584215.673758457,76814.393682669,144205.1292424)
(-636499.052561399,65944.4585050002,234846.428710575)
(-731739.251685723,47305.4914328639,349252.931555196)
(-894941.652817514,19071.5263220926,494457.128720084)
(-1167304.39599145,-17490.740820439,662844.0955796)
(-1612688.35996455,-51138.1934864171,786112.91854778)
(-2317540.54487636,-58138.8883496109,585414.088635635)
(-3328151.3167935,-39959.993065695,-960016.416305736)
(-4079652.65902982,-18294.2977194036,-8122709.65399141)
(0,0,0)
(0,0,0)
(0,0,0)
(0,0,0)
(0,0,0)
(0,0,0)
(-585622.825808592,171526.538693179,63624.4691575388)
(-608340.902256522,162209.499922549,133368.875262982)
(-660125.747273269,141363.136663418,216241.512884151)
(-755484.713660336,104320.371631039,321022.315485196)
(-921149.634494248,44652.2049443105,457868.027638851)
(-1200887.89862377,-40340.8263958213,629143.064246461)
(-1656728.19622865,-128950.045023691,779040.017239474)
(-2354789.44799472,-143932.780128913,603470.713553977)
(-3346826.26884964,-89415.6594467005,-938489.204787329)
(-4086238.33029838,-37434.8654024494,-8104553.64460954)
(0,0,0)
(0,0,0)
(0,0,0)
(0,0,0)
(0,0,0)
(0,0,0)
(-640292.604754417,276772.547831418,54341.4151528683)
(-662259.913310181,264446.606756987,112590.038466528)
(-713132.277787528,236384.763140307,179302.647420689)
(-809443.057880792,184334.846975955,261426.17159123)
(-983665.541961904,93093.1243238754,372888.416779507)
(-1292253.63947443,-57255.8600373714,540464.522618504)
(-1803916.09079267,-252721.497636975,763886.616708364)
(-2483675.71800116,-280122.149475363,657783.050012256)
(-3403420.31049834,-143599.92948145,-886740.719878708)
(-4104408.02259118,-50360.4460378064,-8067364.81340939)
(0,0,0)
(0,0,0)
(0,0,0)
(0,0,0)
(0,0,0)
(0,0,0)
(-737965.228651457,402788.746897116,42089.8834882124)
(-758805.454850803,389794.47561657,84630.1044435481)
(-808247.499292115,360129.520223281,127377.358031598)
(-906540.91850777,304011.823119479,170274.78124341)
(-1100220.39326976,199489.679205584,222572.027553433)
(-1493477.99252145,-34.8883532696571,344994.618999525)
(-2261188.63834059,-353031.004340307,736364.530633338)
(-2905399.3671224,-408408.569267484,794134.513272168)
(-3545141.83008774,-141759.671959121,-793763.390801522)
(-4143352.80186276,-31012.0599669987,-8017298.96543983)
(0,0,0)
(0,0,0)
(0,0,0)
(0,0,0)
(0,0,0)
(0,0,0)
(-902135.446096195,548793.673166379,29170.9354673075)
(-921247.094377763,537669.507847538,55025.8898513718)
(-967960.321657443,513169.143202317,71329.2609676878)
(-1066303.98281649,469660.746437264,65801.9036230218)
(-1282981.05448099,397393.937238325,23009.7735151696)
(-1837743.39239923,287008.468082894,-8078.40065918812)
(-3651007.47539855,161089.844261589,680848.815845368)
(-4331570.82789828,104148.911575053,1060617.98395854)
(-3822968.17713453,91654.8755804448,-683267.573543969)
(-4207110.82166089,58140.777009477,-7986563.11139719)
(0,0,0)
(0,0,0)
(0,0,0)
(0,0,0)
(0,0,0)
(0,0,0)
(-1172899.29523054,697052.109070291,18115.8380427447)
(-1189634.20894646,689178.128910637,30543.9650773747)
(-1231497.28604,672980.643941402,27843.7239826833)
(-1322968.50072723,646938.257876976,-6442.91476603141)
(-1533651.60654397,607872.015795587,-87470.6538980476)
(-2087074.20297495,549639.915092311,-134136.893897101)
(-3812118.57378159,467071.599164039,623757.312530881)
(-4435635.04097892,419801.84239082,1047964.5048748)
(-3952169.09443408,303195.293749516,-716970.078464681)
(-4270706.21326063,151042.170279754,-8044862.33833353)
(0,0,0)
(0,0,0)
(0,0,0)
(0,0,0)
(0,0,0)
(0,0,0)
(-1615711.27352709,777224.284327994,10345.0549645912)
(-1629513.80713856,772762.779858341,14354.5841685301)
(-1664690.41494766,765228.00882646,1746.91674877561)
(-1744389.42273272,757794.189226623,-45579.5414456077)
(-1937828.68985608,756128.418313385,-145882.273203772)
(-2479783.32780527,764100.837765204,-216875.354357531)
(-4279066.93167418,765946.076343627,576349.547584674)
(-4855164.95163908,877970.416906266,931266.446384792)
(-4147382.72045621,490645.303680896,-869193.320464313)
(-4375580.69847784,203646.7450923,-8195969.07444845)
(0,0,0)
(0,0,0)
(0,0,0)
(0,0,0)
(0,0,0)
(0,0,0)
(-2322587.12079665,531925.733984041,5950.42701940574)
(-2332983.00226753,529778.632270048,6789.73408609928)
(-2359815.99355462,528172.956828625,-5805.82606639368)
(-2422309.02491317,534852.853520012,-47410.5287728471)
(-2582402.24227051,570269.046901927,-138215.585593486)
(-3079588.47412469,683103.974993463,-215355.653731571)
(-5044825.79995395,925075.082621723,688170.346062991)
(-4112129.82497539,594602.344292193,543868.684075893)
(-4302879.43790621,219093.744356178,-1156232.90942938)
(-4537966.8210769,1850.39245725385,-8399704.90922678)
(0,0,0)
(0,0,0)
(0,0,0)
(0,0,0)
(0,0,0)
(0,0,0)
(-3336525.07256956,-1040572.42948032,3862.2129616056)
(-3343272.31048845,-1042327.48922293,5189.36407882618)
(-3360443.71896814,-1043981.98928269,821.898329932456)
(-3398872.48741832,-1040958.33311067,-12081.1587731183)
(-3487071.69481796,-1024523.12910667,-25602.3318613854)
(-3697890.65673202,-985607.466071841,26357.6840046215)
(-4158672.20385794,-957147.746790055,357432.620880354)
(-4309844.82410662,-1171316.48612183,168134.849639476)
(-4706395.70606062,-1365373.1145074,-1373600.739075)
(-4780800.96926784,-1187137.3588484,-8401687.00674656)
(0,0,0)
(0,0,0)
(0,0,0)
(0,0,0)
(0,0,0)
(0,0,0)
(-4086120.00693746,-8214172.73863221,2118.28735415571)
(-4089396.25906841,-8216344.0402386,3519.07850240615)
(-4097614.10351719,-8219873.38046209,3780.72992433667)
(-4115382.3664245,-8223592.55304479,4240.71578453843)
(-4153305.28298793,-8227729.68905647,13063.1153482674)
(-4232713.45084933,-8240566.61579943,54520.5490519357)
(-4379420.61955998,-8294773.56009356,142956.905358963)
(-4542748.35057832,-8437381.35286744,-26213.1471131267)
(-4782248.90644385,-8410838.75478176,-1195588.25008301)
(-4615046.23971279,-7214972.70189674,-7214750.17016058)
(0,0,0)
(0,0,0)
(0,0,0)
(0,0,0)
(0,0,0)
(0,0,0)
(0,0,0)
(0,0,0)
(0,0,0)
(0,0,0)
(0,0,0)
(0,0,0)
(0,0,0)
(0,0,0)
(0,0,0)
(0,0,0)
(0,0,0)
(0,0,0)
(0,0,0)
(0,0,0)
(0,0,0)
(0,0,0)
(0,0,0)
(0,0,0)
(0,0,0)
(0,0,0)
(0,0,0)
(0,0,0)
(0,0,0)
(0,0,0)
(0,0,0)
(0,0,0)
(0,0,0)
(0,0,0)
(0,0,0)
(0,0,0)
(0,0,0)
(0,0,0)
(0,0,0)
(0,0,0)
(0,0,0)
(0,0,0)
(0,0,0)
(0,0,0)
(0,0,0)
(0,0,0)
(0,0,0)
(0,0,0)
(0,0,0)
(0,0,0)
(0,0,0)
(0,0,0)
(0,0,0)
(0,0,0)
(0,0,0)
(0,0,0)
(0,0,0)
(0,0,0)
(0,0,0)
(0,0,0)
(0,0,0)
(0,0,0)
(0,0,0)
(0,0,0)
(0,0,0)
(0,0,0)
(0,0,0)
(0,0,0)
(0,0,0)
(0,0,0)
(0,0,0)
(0,0,0)
(0,0,0)
(0,0,0)
(0,0,0)
(0,0,0)
(0,0,0)
(0,0,0)
(0,0,0)
(0,0,0)
(0,0,0)
(0,0,0)
(0,0,0)
(0,0,0)
(0,0,0)
(0,0,0)
(0,0,0)
(0,0,0)
(0,0,0)
(0,0,0)
(0,0,0)
(0,0,0)
(0,0,0)
(0,0,0)
(0,0,0)
(0,0,0)
(0,0,0)
(0,0,0)
(0,0,0)
(0,0,0)
(0,0,0)
(0,0,0)
(-663613.245407496,57174.7933645643,45347.0525285311)
(-683225.337443908,52638.6278470635,91718.0883669218)
(-726441.836467948,42312.8757284059,139347.996545066)
(-801918.177648559,23610.5498612904,185916.372646612)
(-923894.389334617,-7081.42717916446,221950.536342882)
(-1111524.59330934,-51020.8699232181,217191.603583991)
(-1381263.0735171,-95099.8032122009,80866.1203487525)
(-1715656.39956329,-95308.1226567891,-425709.902307535)
(-1983037.11792783,-58612.0697260521,-1712212.03144712)
(-1723107.12581613,-24871.3728212978,-4043886.19183952)
(0,0,0)
(0,0,0)
(0,0,0)
(0,0,0)
(0,0,0)
(0,0,0)
(-685916.556809532,116667.12265276,40801.4017127418)
(-704427.437721901,108103.851727213,81422.7132979704)
(-745274.54066201,88212.9669324332,120671.415482687)
(-816742.084571305,50311.233893748,155228.102361196)
(-933129.69339422,-17877.1207437863,178003.854825789)
(-1115348.89327771,-131657.973345726,173101.952902246)
(-1383358.47866304,-276035.016107707,80667.4482321483)
(-1707628.33186143,-272727.193822716,-389074.59673521)
(-1969939.61502777,-145958.705837203,-1678614.61444592)
(-1715018.12077232,-55557.7920446115,-4019148.40474871)
(0,0,0)
(0,0,0)
(0,0,0)
(0,0,0)
(0,0,0)
(0,0,0)
(-734669.437782566,178760.340671518,32283.6150093959)
(-751051.045522502,167582.573115342,61596.0258335842)
(-787149.361102758,141004.364644243,82821.7114370006)
(-850410.114481644,87062.8621070766,87037.1398245281)
(-955160.718713048,-23522.8161398714,64178.011971757)
(-1129930.43030019,-258436.862301944,28633.6917537231)
(-1425291.59610254,-709885.615795356,83859.7967512458)
(-1708336.63710282,-701758.371714888,-262448.106254929)
(-1938156.86763522,-285247.653307179,-1588422.60164806)
(-1695359.26509226,-89240.5824802883,-3963788.56871131)
(0,0,0)
(0,0,0)
(0,0,0)
(0,0,0)
(0,0,0)
(0,0,0)
(-818670.144792663,238273.818508776,21191.4383039553)
(-832079.967811453,226980.355319054,35068.1690608987)
(-861184.379872271,200094.885663631,28914.5286216701)
(-911059.352382449,144029.701087222,-23533.8764837978)
(-993191.235074768,16651.9955422183,-170737.846360871)
(-1155502.35820733,-344312.042555891,-422838.30042105)
(-1742957.93197258,-1742842.79266384,91888.1700794155)
(-1834640.86787033,-1834562.01930251,153933.318414968)
(-1864266.20723173,-419575.620055493,-1392614.33769274)
(-1655702.08688406,-94755.1613630651,-3874750.47378866)
(0,0,0)
(0,0,0)
(0,0,0)
(0,0,0)
(0,0,0)
(0,0,0)
(-951559.390578957,277710.56008248,9987.20290905789)
(-961453.604048768,268967.983470552,8206.08442856583)
(-981844.964190285,249338.836012741,-27153.2233877005)
(-1011232.37032095,212759.429067125,-150954.563863146)
(-1032072.69449815,146584.623924173,-531795.552227937)
(-930028.550288435,37638.4281698215,-1821460.86506444)