/*--------------------------------*- C++ -*----------------------------------*\
| =========                 |                                                 |
| \\      /  F ield         | foam-extend: Open Source CFD                    |
|  \\    /   O peration     | Version:     4.0                                |
|   \\  /    A nd           | Web:         http://www.foam-extend.org         |
|    \\/     M anipulation  |                                                 |
\*---------------------------------------------------------------------------*/
FoamFile
{
    version 2.0;
    format ascii;
    class volVectorField;
    location "1491";
    object      H;
}
// * * * * * * * * * * * * * * * * * * * * * * * * * * * * * * * * * * * * * //

dimensions      [0 1 -1 0 0 0 0];

internalField   nonuniform List<vector>
4096
(
(0,0,0)
(0,0,0)
(0,0,0)
(0,0,0)
(0,0,0)
(0,0,0)
(0,0,0)
(0,0,0)
(0,0,0)
(0,0,0)
(0,0,0)
(0,0,0)
(0,0,0)
(0,0,0)
(0,0,0)
(0,0,0)
(0,0,0)
(0,0,0)
(0,0,0)
(0,0,0)
(0,0,0)
(0,0,0)
(0,0,0)
(0,0,0)
(0,0,0)
(0,0,0)
(0,0,0)
(0,0,0)
(0,0,0)
(0,0,0)
(0,0,0)
(0,0,0)
(0,0,0)
(0,0,0)
(0,0,0)
(0,0,0)
(0,0,0)
(0,0,0)
(0,0,0)
(0,0,0)
(0,0,0)
(0,0,0)
(0,0,0)
(0,0,0)
(0,0,0)
(0,0,0)
(0,0,0)
(0,0,0)
(0,0,0)
(0,0,0)
(0,0,0)
(0,0,0)
(0,0,0)
(0,0,0)
(0,0,0)
(0,0,0)
(0,0,0)
(0,0,0)
(0,0,0)
(0,0,0)
(0,0,0)
(0,0,0)
(0,0,0)
(0,0,0)
(0,0,0)
(0,0,0)
(0,0,0)
(0,0,0)
(0,0,0)
(0,0,0)
(0,0,0)
(0,0,0)
(0,0,0)
(0,0,0)
(0,0,0)
(0,0,0)
(0,0,0)
(0,0,0)
(0,0,0)
(0,0,0)
(0,0,0)
(0,0,0)
(0,0,0)
(0,0,0)
(0,0,0)
(0,0,0)
(0,0,0)
(0,0,0)
(0,0,0)
(0,0,0)
(0,0,0)
(0,0,0)
(0,0,0)
(0,0,0)
(0,0,0)
(0,0,0)
(0,0,0)
(0,0,0)
(0,0,0)
(0,0,0)
(0,0,0)
(0,0,0)
(0,0,0)
(0,0,0)
(0,0,0)
(0,0,0)
(0,0,0)
(0,0,0)
(0,0,0)
(0,0,0)
(0,0,0)
(0,0,0)
(0,0,0)
(0,0,0)
(0,0,0)
(0,0,0)
(0,0,0)
(0,0,0)
(0,0,0)
(0,0,0)
(0,0,0)
(0,0,0)
(0,0,0)
(0,0,0)
(0,0,0)
(0,0,0)
(0,0,0)
(0,0,0)
(0,0,0)
(0,0,0)
(0,0,0)
(0,0,0)
(0,0,0)
(0,0,0)
(0,0,0)
(0,0,0)
(0,0,0)
(0,0,0)
(0,0,0)
(0,0,0)
(0,0,0)
(0,0,0)
(0,0,0)
(0,0,0)
(0,0,0)
(0,0,0)
(0,0,0)
(0,0,0)
(0,0,0)
(0,0,0)
(0,0,0)
(0,0,0)
(0,0,0)
(0,0,0)
(0,0,0)
(0,0,0)
(0,0,0)
(0,0,0)
(0,0,0)
(0,0,0)
(0,0,0)
(0,0,0)
(0,0,0)
(0,0,0)
(0,0,0)
(0,0,0)
(0,0,0)
(0,0,0)
(0,0,0)
(0,0,0)
(0,0,0)
(0,0,0)
(0,0,0)
(0,0,0)
(0,0,0)
(0,0,0)
(0,0,0)
(0,0,0)
(0,0,0)
(0,0,0)
(0,0,0)
(0,0,0)
(0,0,0)
(0,0,0)
(0,0,0)
(0,0,0)
(0,0,0)
(0,0,0)
(0,0,0)
(0,0,0)
(0,0,0)
(0,0,0)
(0,0,0)
(0,0,0)
(0,0,0)
(0,0,0)
(0,0,0)
(0,0,0)
(0,0,0)
(0,0,0)
(0,0,0)
(0,0,0)
(0,0,0)
(0,0,0)
(0,0,0)
(0,0,0)
(0,0,0)
(0,0,0)
(0,0,0)
(0,0,0)
(0,0,0)
(0,0,0)
(0,0,0)
(0,0,0)
(0,0,0)
(0,0,0)
(0,0,0)
(0,0,0)
(0,0,0)
(0,0,0)
(0,0,0)
(0,0,0)
(0,0,0)
(0,0,0)
(0,0,0)
(0,0,0)
(0,0,0)
(0,0,0)
(0,0,0)
(0,0,0)
(0,0,0)
(0,0,0)
(0,0,0)
(0,0,0)
(0,0,0)
(0,0,0)
(0,0,0)
(0,0,0)
(0,0,0)
(0,0,0)
(0,0,0)
(0,0,0)
(0,0,0)
(0,0,0)
(0,0,0)
(0,0,0)
(0,0,0)
(0,0,0)
(0,0,0)
(0,0,0)
(0,0,0)
(0,0,0)
(0,0,0)
(0,0,0)
(0,0,0)
(0,0,0)
(0,0,0)
(0,0,0)
(0,0,0)
(0,0,0)
(0,0,0)
(0,0,0)
(0,0,0)
(0,0,0)
(0,0,0)
(0,0,0)
(0,0,0)
(0,0,0)
(0,0,0)
(0,0,0)
(0,0,0)
(0,0,0)
(0,0,0)
(0,0,0)
(0,0,0)
(0,0,0)
(0,0,0)
(0,0,0)
(0,0,0)
(0,0,0)
(0,0,0)
(0,0,0)
(0,0,0)
(0,0,0)
(0,0,0)
(0,0,0)
(0,0,0)
(0,0,0)
(0,0,0)
(0,0,0)
(0,0,0)
(0,0,0)
(0,0,0)
(0,0,0)
(0,0,0)
(0,0,0)
(0,0,0)
(0,0,0)
(0,0,0)
(0,0,0)
(0,0,0)
(0,0,0)
(0,0,0)
(0,0,0)
(0,0,0)
(0,0,0)
(0,0,0)
(0,0,0)
(0,0,0)
(0,0,0)
(0,0,0)
(0,0,0)
(0,0,0)
(0,0,0)
(0,0,0)
(0,0,0)
(0,0,0)
(0,0,0)
(0,0,0)
(0,0,0)
(0,0,0)
(0,0,0)
(0,0,0)
(0,0,0)
(0,0,0)
(0,0,0)
(0,0,0)
(0,0,0)
(0,0,0)
(0,0,0)
(0,0,0)
(0,0,0)
(0,0,0)
(0,0,0)
(0,0,0)
(0,0,0)
(0,0,0)
(0,0,0)
(0,0,0)
(0,0,0)
(0,0,0)
(0,0,0)
(0,0,0)
(0,0,0)
(0,0,0)
(0,0,0)
(0,0,0)
(0,0,0)
(0,0,0)
(0,0,0)
(0,0,0)
(0,0,0)
(0,0,0)
(0,0,0)
(0,0,0)
(0,0,0)
(0,0,0)
(0,0,0)
(0,0,0)
(0,0,0)
(0,0,0)
(0,0,0)
(0,0,0)
(0,0,0)
(0,0,0)
(0,0,0)
(0,0,0)
(0,0,0)
(0,0,0)
(0,0,0)
(0,0,0)
(0,0,0)
(0,0,0)
(0,0,0)
(0,0,0)
(0,0,0)
(0,0,0)
(0,0,0)
(0,0,0)
(0,0,0)
(0,0,0)
(0,0,0)
(0,0,0)
(0,0,0)
(0,0,0)
(0,0,0)
(0,0,0)
(0,0,0)
(0,0,0)
(0,0,0)
(0,0,0)
(0,0,0)
(0,0,0)
(0,0,0)
(0,0,0)
(0,0,0)
(0,0,0)
(0,0,0)
(0,0,0)
(0,0,0)
(0,0,0)
(0,0,0)
(0,0,0)
(0,0,0)
(0,0,0)
(0,0,0)
(0,0,0)
(0,0,0)
(0,0,0)
(0,0,0)
(0,0,0)
(0,0,0)
(0,0,0)
(0,0,0)
(0,0,0)
(0,0,0)
(0,0,0)
(0,0,0)
(0,0,0)
(0,0,0)
(0,0,0)
(0,0,0)
(0,0,0)
(0,0,0)
(0,0,0)
(0,0,0)
(0,0,0)
(0,0,0)
(0,0,0)
(0,0,0)
(0,0,0)
(0,0,0)
(0,0,0)
(0,0,0)
(0,0,0)
(0,0,0)
(0,0,0)
(0,0,0)
(0,0,0)
(0,0,0)
(0,0,0)
(0,0,0)
(0,0,0)
(0,0,0)
(0,0,0)
(0,0,0)
(0,0,0)
(0,0,0)
(0,0,0)
(0,0,0)
(0,0,0)
(0,0,0)
(0,0,0)
(0,0,0)
(0,0,0)
(0,0,0)
(0,0,0)
(0,0,0)
(0,0,0)
(0,0,0)
(0,0,0)
(0,0,0)
(0,0,0)
(0,0,0)
(0,0,0)
(0,0,0)
(0,0,0)
(0,0,0)
(0,0,0)
(0,0,0)
(0,0,0)
(0,0,0)
(0,0,0)
(0,0,0)
(0,0,0)
(0,0,0)
(0,0,0)
(0,0,0)
(0,0,0)
(0,0,0)
(0,0,0)
(0,0,0)
(0,0,0)
(0,0,0)
(0,0,0)
(0,0,0)
(0,0,0)
(0,0,0)
(0,0,0)
(0,0,0)
(0,0,0)
(0,0,0)
(0,0,0)
(0,0,0)
(0,0,0)
(0,0,0)
(0,0,0)
(0,0,0)
(0,0,0)
(0,0,0)
(0,0,0)
(0,0,0)
(0,0,0)
(0,0,0)
(0,0,0)
(0,0,0)
(0,0,0)
(0,0,0)
(0,0,0)
(0,0,0)
(0,0,0)
(0,0,0)
(0,0,0)
(0,0,0)
(0,0,0)
(0,0,0)
(0,0,0)
(0,0,0)
(0,0,0)
(0,0,0)
(0,0,0)
(0,0,0)
(0,0,0)
(0,0,0)
(0,0,0)
(0,0,0)
(0,0,0)
(0,0,0)
(0,0,0)
(0,0,0)
(0,0,0)
(0,0,0)
(0,0,0)
(0,0,0)
(0,0,0)
(0,0,0)
(0,0,0)
(0,0,0)
(0,0,0)
(0,0,0)
(0,0,0)
(0,0,0)
(0,0,0)
(0,0,0)
(0,0,0)
(0,0,0)
(0,0,0)
(0,0,0)
(0,0,0)
(0,0,0)
(0,0,0)
(0,0,0)
(0,0,0)
(0,0,0)
(0,0,0)
(0,0,0)
(0,0,0)
(0,0,0)
(0,0,0)
(0,0,0)
(0,0,0)
(0,0,0)
(0,0,0)
(0,0,0)
(0,0,0)
(0,0,0)
(0,0,0)
(0,0,0)
(0,0,0)
(0,0,0)
(0,0,0)
(0,0,0)
(0,0,0)
(0,0,0)
(0,0,0)
(0,0,0)
(0,0,0)
(0,0,0)
(0,0,0)
(0,0,0)
(0,0,0)
(0,0,0)
(0,0,0)
(0,0,0)
(0,0,0)
(0,0,0)
(0,0,0)
(0,0,0)
(0,0,0)
(0,0,0)
(0,0,0)
(0,0,0)
(0,0,0)
(0,0,0)
(0,0,0)
(0,0,0)
(0,0,0)
(0,0,0)
(0,0,0)
(0,0,0)
(0,0,0)
(0,0,0)
(0,0,0)
(0,0,0)
(0,0,0)
(0,0,0)
(0,0,0)
(0,0,0)
(0,0,0)
(0,0,0)
(0,0,0)
(0,0,0)
(0,0,0)
(0,0,0)
(0,0,0)
(0,0,0)
(0,0,0)
(0,0,0)
(0,0,0)
(0,0,0)
(0,0,0)
(0,0,0)
(0,0,0)
(0,0,0)
(0,0,0)
(0,0,0)
(0,0,0)
(0,0,0)
(0,0,0)
(0,0,0)
(0,0,0)
(0,0,0)
(0,0,0)
(0,0,0)
(0,0,0)
(0,0,0)
(0,0,0)
(0,0,0)
(0,0,0)
(0,0,0)
(0,0,0)
(0,0,0)
(0,0,0)
(0,0,0)
(0,0,0)
(0,0,0)
(0,0,0)
(0,0,0)
(0,0,0)
(0,0,0)
(0,0,0)
(0,0,0)
(0,0,0)
(0,0,0)
(0,0,0)
(0,0,0)
(0,0,0)
(0,0,0)
(0,0,0)
(0,0,0)
(0,0,0)
(0,0,0)
(0,0,0)
(0,0,0)
(0,0,0)
(0,0,0)
(0,0,0)
(0,0,0)
(0,0,0)
(0,0,0)
(0,0,0)
(0,0,0)
(0,0,0)
(0,0,0)
(0,0,0)
(0,0,0)
(0,0,0)
(0,0,0)
(0,0,0)
(0,0,0)
(0,0,0)
(0,0,0)
(0,0,0)
(0,0,0)
(0,0,0)
(0,0,0)
(0,0,0)
(0,0,0)
(0,0,0)
(0,0,0)
(0,0,0)
(0,0,0)
(0,0,0)
(0,0,0)
(0,0,0)
(0,0,0)
(0,0,0)
(0,0,0)
(0,0,0)
(0,0,0)
(0,0,0)
(0,0,0)
(0,0,0)
(0,0,0)
(0,0,0)
(0,0,0)
(0,0,0)
(0,0,0)
(0,0,0)
(0,0,0)
(0,0,0)
(0,0,0)
(0,0,0)
(0,0,0)
(0,0,0)
(0,0,0)
(0,0,0)
(0,0,0)
(0,0,0)
(0,0,0)
(0,0,0)
(0,0,0)
(0,0,0)
(0,0,0)
(0,0,0)
(0,0,0)
(0,0,0)
(0,0,0)
(0,0,0)
(0,0,0)
(0,0,0)
(0,0,0)
(0,0,0)
(0,0,0)
(0,0,0)
(0,0,0)
(0,0,0)
(0,0,0)
(0,0,0)
(0,0,0)
(0,0,0)
(0,0,0)
(0,0,0)
(0,0,0)
(0,0,0)
(0,0,0)
(0,0,0)
(0,0,0)
(0,0,0)
(0,0,0)
(0,0,0)
(0,0,0)
(0,0,0)
(0,0,0)
(0,0,0)
(0,0,0)
(0,0,0)
(0,0,0)
(0,0,0)
(0,0,0)
(0,0,0)
(0,0,0)
(0,0,0)
(0,0,0)
(0,0,0)
(0,0,0)
(0,0,0)
(0,0,0)
(0,0,0)
(0,0,0)
(0,0,0)
(0,0,0)
(0,0,0)
(0,0,0)
(0,0,0)
(0,0,0)
(0,0,0)
(0,0,0)
(0,0,0)
(0,0,0)
(0,0,0)
(0,0,0)
(0,0,0)
(0,0,0)
(0,0,0)
(0,0,0)
(0,0,0)
(0,0,0)
(0,0,0)
(0,0,0)
(0,0,0)
(0,0,0)
(0,0,0)
(0,0,0)
(0,0,0)
(0,0,0)
(0,0,0)
(0,0,0)
(0,0,0)
(0,0,0)
(0,0,0)
(0,0,0)
(0,0,0)
(0,0,0)
(0,0,0)
(0,0,0)
(0,0,0)
(0,0,0)
(0,0,0)
(0,0,0)
(0,0,0)
(0,0,0)
(0,0,0)
(0,0,0)
(0,0,0)
(0,0,0)
(0,0,0)
(0,0,0)
(0,0,0)
(-1.67449011919071e-12,5.16340648079478e-12,-4.65574949844997e-12)
(-2.28696599178566e-12,1.13369128859012e-11,-4.35285560035939e-12)
(-2.57100050973907e-12,1.90039987698264e-11,-3.68696652741083e-12)
(-2.65933550069858e-12,3.01699277260514e-11,-2.82610629115464e-12)
(-3.5188000329798e-12,4.69622128429315e-11,-1.82932683195665e-12)
(-2.86608363223158e-12,7.3933129460283e-11,-1.45767411314646e-12)
(-1.50474291832485e-12,1.19136369981468e-10,-1.45218681103295e-12)
(-7.14281860373163e-13,1.92838325954583e-10,-9.00915529058349e-13)
(-1.04048402360022e-12,3.12949787478379e-10,-4.62835754216092e-13)
(-5.63203234779542e-13,4.81055344347457e-10,-3.89998521461545e-13)
(0,0,0)
(0,0,0)
(0,0,0)
(0,0,0)
(0,0,0)
(0,0,0)
(-2.98199253239624e-12,4.86567045482957e-12,-1.10367873215091e-11)
(-4.41857548294254e-12,1.07749414889655e-11,-1.05679594960235e-11)
(-5.1079727871878e-12,1.86199684962634e-11,-9.31838176356732e-12)
(-5.71544663905013e-12,2.99801315015987e-11,-7.80205345172356e-12)
(-7.53366451377309e-12,4.68624362265052e-11,-5.92681559383053e-12)
(-6.96359205616212e-12,7.43022918242492e-11,-4.72596611852416e-12)
(-5.2568948899216e-12,1.19488807876896e-10,-3.83135033648047e-12)
(-3.7441428683482e-12,1.93218282301814e-10,-2.61269909514663e-12)
(-3.32193964643402e-12,3.13470189787755e-10,-1.81399314940659e-12)
(-1.14459481992908e-12,4.81536367729992e-10,-1.23852078720124e-12)
(0,0,0)
(0,0,0)
(0,0,0)
(0,0,0)
(0,0,0)
(0,0,0)
(-3.43143493828543e-12,4.04256287363462e-12,-1.88985568595117e-11)
(-5.9038597889992e-12,9.35059695997884e-12,-1.85654338443871e-11)
(-6.9563436577012e-12,1.71540082722555e-11,-1.75038692390256e-11)
(-8.40834254047349e-12,2.84501249876078e-11,-1.5700429092289e-11)
(-1.11126879060719e-11,4.52038021784384e-11,-1.32369538334929e-11)
(-1.10357782506615e-11,7.309837737767e-11,-1.11189685654602e-11)
(-9.81862104404949e-12,1.18886117951242e-10,-9.09310076555395e-12)
(-9.35623548736572e-12,1.93358034008124e-10,-7.17955038392004e-12)
(-8.66564090693519e-12,3.14027880351737e-10,-5.34596480391318e-12)
(-5.94842358871318e-12,4.82174860121217e-10,-3.16756712642725e-12)
(0,0,0)
(0,0,0)
(0,0,0)
(0,0,0)
(0,0,0)
(0,0,0)
(-3.00918881909561e-12,2.89712385907961e-12,-2.93577236349213e-11)
(-6.08579117711995e-12,7.46126916855024e-12,-2.91373803037813e-11)
(-8.02472487861246e-12,1.47597043801408e-11,-2.83838438189888e-11)
(-9.61585202419108e-12,2.55337396547173e-11,-2.68397122330616e-11)
(-1.17603143663126e-11,4.16071128664745e-11,-2.41172660404746e-11)
(-1.24392306144608e-11,6.97444331546302e-11,-2.14628518149468e-11)
(-1.26392803694749e-11,1.1661226957525e-10,-1.83612905923966e-11)
(-1.37728087321475e-11,1.9201749001093e-10,-1.50665289932909e-11)
(-1.3896278962863e-11,3.13166232070289e-10,-1.12772193627181e-11)
(-1.25778206396798e-11,4.81516267094724e-10,-6.20352406447865e-12)
(0,0,0)
(0,0,0)
(0,0,0)
(0,0,0)
(0,0,0)
(0,0,0)
(-3.14179194209591e-12,2.12193100403226e-12,-4.5050918355003e-11)
(-7.10849976591352e-12,5.58864388880192e-12,-4.45613284080276e-11)
(-9.86314128316572e-12,1.19383541284928e-11,-4.40207758746504e-11)
(-1.1726612134106e-11,2.15032588274543e-11,-4.31223019260696e-11)
(-1.35030359242167e-11,3.68305929407427e-11,-4.12819461202035e-11)
(-1.43026070970664e-11,6.46435992296205e-11,-3.90497329832454e-11)
(-1.65593979009468e-11,1.12480709448896e-10,-3.53294698287349e-11)
(-1.9457065374339e-11,1.88640236857216e-10,-2.8366642210873e-11)
(-2.05098120317169e-11,3.09127171844005e-10,-2.00983693526648e-11)
(-2.02552903473309e-11,4.77140763082124e-10,-1.07510556413417e-11)
(0,0,0)
(0,0,0)
(0,0,0)
(0,0,0)
(0,0,0)
(0,0,0)
(-4.27127473112796e-12,1.30255525420511e-12,-7.05326629365046e-11)
(-8.81527186352294e-12,3.69792353089958e-12,-7.05729567068239e-11)
(-1.17012778632589e-11,9.30174746591624e-12,-7.07271962765226e-11)
(-1.39089617777495e-11,1.78204196927653e-11,-7.01118542037524e-11)
(-1.56819470886487e-11,3.21187881497332e-11,-6.85077407821417e-11)
(-1.76605855778741e-11,5.86202468004729e-11,-6.57990515634885e-11)
(-2.10113267397931e-11,1.06066881227223e-10,-6.06114281010757e-11)
(-2.43085382512099e-11,1.81370557567272e-10,-5.01920679076393e-11)
(-2.62697753009784e-11,3.00527957555355e-10,-3.6071187510635e-11)
(-2.625102296321e-11,4.67590737345653e-10,-1.93617531171408e-11)
(0,0,0)
(0,0,0)
(0,0,0)
(0,0,0)
(0,0,0)
(0,0,0)
(-5.10349413808661e-12,4.3655630455907e-13,-1.13397120987329e-10)
(-1.04120172296888e-11,2.18103019009314e-12,-1.13431138817544e-10)
(-1.35264263691824e-11,7.05589480454411e-12,-1.1361854851433e-10)
(-1.58913386637984e-11,1.45132524484664e-11,-1.12982348159503e-10)
(-1.80932667981153e-11,2.71204012790492e-11,-1.1116614985991e-10)
(-2.17768132061737e-11,5.11461674086773e-11,-1.07608230336993e-10)
(-2.54266431137952e-11,9.57149822520446e-11,-1.0000743901263e-10)
(-2.83190169474469e-11,1.67936489356878e-10,-8.59871937794557e-11)
(-3.1066844658737e-11,2.84261474519405e-10,-6.38208584846399e-11)
(-3.21783029273544e-11,4.49054809433005e-10,-3.4696345847882e-11)
(0,0,0)
(0,0,0)
(0,0,0)
(0,0,0)
(0,0,0)
(0,0,0)
(-5.14569779427983e-12,-3.5332774601517e-13,-1.84238848044932e-10)
(-1.07384964152931e-11,9.27559620778942e-13,-1.845662698467e-10)
(-1.57230642593542e-11,4.98868059957456e-12,-1.84818856287055e-10)
(-1.89702421263685e-11,1.1419065266894e-11,-1.84222105815754e-10)
(-2.11123929129735e-11,2.24194213804573e-11,-1.82055329786067e-10)
(-2.5438252682516e-11,4.33580075168112e-11,-1.77314233312437e-10)
(-2.93051509730285e-11,8.15305667541724e-11,-1.67147373255204e-10)
(-3.22235969690332e-11,1.46107765409392e-10,-1.47058527078905e-10)
(-3.56883742612989e-11,2.55242181686653e-10,-1.13450973626399e-10)
(-3.7749000655797e-11,4.1409448530639e-10,-6.39414065315761e-11)
(0,0,0)
(0,0,0)
(0,0,0)
(0,0,0)
(0,0,0)
(0,0,0)
(-6.9640437465792e-12,-2.70928511154946e-13,-3.02510686472187e-10)
(-1.2824852344176e-11,7.07712070387919e-13,-3.02979408543334e-10)
(-1.82088080012044e-11,3.31759559835882e-12,-3.03221228553677e-10)
(-2.15434444753997e-11,7.83702549077108e-12,-3.02820457068618e-10)
(-2.41622755609675e-11,1.63477071942371e-11,-3.00446402289371e-10)
(-2.89563068855812e-11,3.23617541103099e-11,-2.941895912924e-10)
(-3.26348613161413e-11,6.1199144400468e-11,-2.80513687899748e-10)
(-3.56841909263278e-11,1.12842593851357e-10,-2.53358039119521e-10)
(-3.94147406700662e-11,2.06160110450465e-10,-2.04776222376681e-10)
(-4.24648904043078e-11,3.49796065229704e-10,-1.22718589925759e-10)
(0,0,0)
(0,0,0)
(0,0,0)
(0,0,0)
(0,0,0)
(0,0,0)
(-8.26023369072998e-12,-7.52207435843579e-14,-4.6909929890298e-10)
(-1.37500538670443e-11,6.36211292654327e-13,-4.69836131289698e-10)
(-1.92839588946556e-11,1.99725789963371e-12,-4.70091567073581e-10)
(-2.26537111013433e-11,4.15237491693358e-12,-4.69262855736192e-10)
(-2.51480249719583e-11,8.75189571139339e-12,-4.66301663113815e-10)
(-2.99083861750585e-11,1.74174015754233e-11,-4.58893786646466e-10)
(-3.43459786104473e-11,3.34551938847584e-11,-4.4292905279081e-10)
(-3.86602005397171e-11,6.41471550495316e-11,-4.10304235636316e-10)
(-4.25129407527849e-11,1.23977043007957e-10,-3.47020462277724e-10)
(-4.50320502014281e-11,2.25950605568265e-10,-2.24096879190078e-10)
(0,0,0)
(0,0,0)
(0,0,0)
(0,0,0)
(0,0,0)
(0,0,0)
(0,0,0)
(0,0,0)
(0,0,0)
(0,0,0)
(0,0,0)
(0,0,0)
(0,0,0)
(0,0,0)
(0,0,0)
(0,0,0)
(0,0,0)
(0,0,0)
(0,0,0)
(0,0,0)
(0,0,0)
(0,0,0)
(0,0,0)
(0,0,0)
(0,0,0)
(0,0,0)
(0,0,0)
(0,0,0)
(0,0,0)
(0,0,0)
(0,0,0)
(0,0,0)
(0,0,0)
(0,0,0)
(0,0,0)
(0,0,0)
(0,0,0)
(0,0,0)
(0,0,0)
(0,0,0)
(0,0,0)
(0,0,0)
(0,0,0)
(0,0,0)
(0,0,0)
(0,0,0)
(0,0,0)
(0,0,0)
(0,0,0)
(0,0,0)
(0,0,0)
(0,0,0)
(0,0,0)
(0,0,0)
(0,0,0)
(0,0,0)
(0,0,0)
(0,0,0)
(0,0,0)
(0,0,0)
(0,0,0)
(0,0,0)
(0,0,0)
(0,0,0)
(0,0,0)
(0,0,0)
(0,0,0)
(0,0,0)
(0,0,0)
(0,0,0)
(0,0,0)
(0,0,0)
(0,0,0)
(0,0,0)
(0,0,0)
(0,0,0)
(0,0,0)
(0,0,0)
(0,0,0)
(0,0,0)
(0,0,0)
(0,0,0)
(0,0,0)
(0,0,0)
(0,0,0)
(0,0,0)
(0,0,0)
(0,0,0)
(0,0,0)
(0,0,0)
(0,0,0)
(0,0,0)
(0,0,0)
(0,0,0)
(0,0,0)
(0,0,0)
(0,0,0)
(0,0,0)
(0,0,0)
(0,0,0)
(0,0,0)
(0,0,0)
(-1.67964799131158e-12,8.87005630955875e-12,-7.75852442179004e-12)
(-2.39088366780204e-12,1.99099230676463e-11,-7.20035192348899e-12)
(-3.04783047243549e-12,3.47815528812651e-11,-6.09314494165481e-12)
(-3.46631873545835e-12,5.54870335244206e-11,-4.6967590149322e-12)
(-3.79067613539207e-12,8.56807896511443e-11,-3.12051840980061e-12)
(-3.24073329826628e-12,1.32907910617942e-10,-2.01966999936077e-12)
(-2.40845209566584e-12,2.09566011763498e-10,-1.32229223452212e-12)
(-1.53231798267969e-12,3.36845088768386e-10,-5.72878759689916e-13)
(-1.63372356580127e-12,5.78081397139097e-10,-7.93054444382599e-14)
(-1.43422513901583e-12,1.13245018450431e-09,-1.48640309561528e-13)
(0,0,0)
(0,0,0)
(0,0,0)
(0,0,0)
(0,0,0)
(0,0,0)
(-2.62771277668653e-12,8.48762061104902e-12,-1.81663803207526e-11)
(-4.24380868640783e-12,1.89564444633236e-11,-1.73865721500578e-11)
(-5.15834087501516e-12,3.35947135769646e-11,-1.5649740482546e-11)
(-6.0606779829482e-12,5.43835965987386e-11,-1.3079293645066e-11)
(-7.07587994098402e-12,8.47963611815973e-11,-9.78099908355424e-12)
(-6.6542933916564e-12,1.325667849798e-10,-6.49040591778752e-12)
(-5.8728562056879e-12,2.09830361626723e-10,-3.76690695907738e-12)
(-4.68260052027982e-12,3.37934121002728e-10,-2.32213074269631e-12)
(-4.45510257220864e-12,5.7960839399642e-10,-1.59987493680474e-12)
(-3.02160799839189e-12,1.13373059503222e-09,-1.24297155523865e-12)
(0,0,0)
(0,0,0)
(0,0,0)
(0,0,0)
(0,0,0)
(0,0,0)
(-2.61911893885308e-12,7.4194519843419e-12,-3.21005026290563e-11)
(-5.07609660293021e-12,1.68034761804404e-11,-3.10325346322672e-11)
(-6.36547991231631e-12,3.07790078289225e-11,-2.92296882781438e-11)
(-7.95543246637685e-12,5.11009827511489e-11,-2.61049871626635e-11)
(-9.63398386220256e-12,8.11853746535666e-11,-2.14045521194444e-11)
(-9.70770182755903e-12,1.29473159359641e-10,-1.54867873191576e-11)
(-9.45832304965828e-12,2.08600120347968e-10,-1.01392841347105e-11)
(-9.84927707020249e-12,3.38819708176165e-10,-7.95383323225918e-12)
(-9.98239030315306e-12,5.81199005833252e-10,-6.29765164759352e-12)
(-8.45739768881394e-12,1.13499049495409e-09,-4.03995725824196e-12)
(0,0,0)
(0,0,0)
(0,0,0)
(0,0,0)
(0,0,0)
(0,0,0)
(-2.45433929518964e-12,5.70078064601547e-12,-5.20477041578999e-11)
(-4.9667023821645e-12,1.41260572117218e-11,-5.11561245091543e-11)
(-6.74750621289579e-12,2.68205554446654e-11,-4.94503779844428e-11)
(-8.30781738951139e-12,4.53585807187449e-11,-4.63029175600582e-11)
(-9.6382086661086e-12,7.34723619995642e-11,-4.07895039982974e-11)
(-1.04399579119827e-11,1.21688314678012e-10,-3.33680080874282e-11)
(-1.18024818422451e-11,2.04182851706714e-10,-2.56122793801911e-11)
(-1.41848652090907e-11,3.37668603098113e-10,-2.11623472232278e-11)
(-1.49309140344942e-11,5.8057648284308e-10,-1.61900626181573e-11)
(-1.44058406914384e-11,1.13347891545601e-09,-8.993814308576e-12)
(0,0,0)
(0,0,0)
(0,0,0)
(0,0,0)
(0,0,0)
(0,0,0)
(-2.81200613924504e-12,4.48801100087159e-12,-8.13213061498787e-11)
(-5.75833194139122e-12,1.14621653485169e-11,-8.03634059824056e-11)
(-8.12500856917123e-12,2.21474647952053e-11,-7.89008990479924e-11)
(-9.88412880527677e-12,3.76694945733949e-11,-7.65557219383866e-11)
(-1.10234442701421e-11,6.28307391830405e-11,-7.25195633631215e-11)
(-1.19995178224959e-11,1.08915192407572e-10,-6.71932178294488e-11)
(-1.71083972970419e-11,1.93931724664835e-10,-6.23222248052753e-11)
(-2.04556589424933e-11,3.33275493062943e-10,-4.88435075756045e-11)
(-2.12579114543677e-11,5.75230587976176e-10,-3.41257981581785e-11)
(-2.14563202525049e-11,1.1264206105978e-09,-1.78361915140809e-11)
(0,0,0)
(0,0,0)
(0,0,0)
(0,0,0)
(0,0,0)
(0,0,0)
(-3.36498201116248e-12,3.09546712562461e-12,-1.25905993901975e-10)
(-7.14413895301783e-12,8.31675232795045e-12,-1.25557937843687e-10)
(-1.00707672746606e-11,1.70092151094231e-11,-1.25089904491942e-10)
(-1.22059079550647e-11,2.9671002220731e-11,-1.23792817891143e-10)
(-1.33922494366191e-11,5.16944017165958e-11,-1.21251686940167e-10)
(-1.53741296484919e-11,9.57006851994682e-11,-1.1665377022784e-10)
(-2.10787879580141e-11,1.8433624128102e-10,-1.09890443398944e-10)
(-2.49953504378016e-11,3.22537305928386e-10,-9.09412882150831e-11)
(-2.67127266585583e-11,5.61732713587408e-10,-6.47269442415295e-11)
(-2.70768481673605e-11,1.11079723823687e-09,-3.41541110743934e-11)
(0,0,0)
(0,0,0)
(0,0,0)
(0,0,0)
(0,0,0)
(0,0,0)
(-4.27959225729717e-12,1.62399692109893e-12,-1.98851790676761e-10)
(-8.97113696358887e-12,5.34276765173571e-12,-1.98412835526924e-10)
(-1.20954125190399e-11,1.22569810782653e-11,-1.98556825287529e-10)
(-1.46133497818233e-11,2.2641083180139e-11,-1.9808901334374e-10)
(-1.69502064224251e-11,4.10628209690166e-11,-1.96440259309335e-10)
(-2.15894446386492e-11,8.04434848245283e-11,-1.92214899972042e-10)
(-2.52624728490797e-11,1.67157709910252e-10,-1.78915632083236e-10)
(-2.86566282948257e-11,2.99665949751634e-10,-1.56132586228348e-10)
(-3.11720644628751e-11,5.33390030285133e-10,-1.14391782869856e-10)
(-3.19143246480783e-11,1.07843284248151e-09,-6.14920442577777e-11)
(0,0,0)
(0,0,0)
(0,0,0)
(0,0,0)
(0,0,0)
(0,0,0)
(-4.90067522737159e-12,3.72381859348916e-14,-3.2130724486847e-10)
(-1.02660624245477e-11,2.74564766073487e-12,-3.21344857751212e-10)
(-1.46487297294372e-11,8.43361826316653e-12,-3.219930005649e-10)
(-1.75549783799315e-11,1.74630365256052e-11,-3.22063684639217e-10)
(-1.97817752004067e-11,3.45038677303969e-11,-3.20111428301975e-10)
(-2.46088593332325e-11,7.0842950330383e-11,-3.14361077680373e-10)
(-2.90625747956237e-11,1.43604460066561e-10,-2.98827662388098e-10)
(-3.25659788636723e-11,2.59412030215385e-10,-2.62301526339665e-10)
(-3.61158701197622e-11,4.81438024196796e-10,-2.01519938244296e-10)
(-3.73919871112721e-11,1.0171414814593e-09,-1.14280270196562e-10)
(0,0,0)
(0,0,0)
(0,0,0)
(0,0,0)
(0,0,0)
(0,0,0)
(-6.69102944300236e-12,-4.32676953979516e-13,-5.57758125938938e-10)
(-1.25115315560983e-11,1.50607461302469e-12,-5.5860257412019e-10)
(-1.72892417875367e-11,5.5996586637003e-12,-5.59546252064038e-10)
(-2.02328486808056e-11,1.20608797961194e-11,-5.59672375002646e-10)
(-2.28232750750819e-11,2.57691717244669e-11,-5.56822817271465e-10)
(-2.7687857743364e-11,5.38824470917299e-11,-5.47430503332016e-10)
(-3.20465595806644e-11,1.06534986555563e-10,-5.2494489762196e-10)
(-3.55705688673305e-11,1.99116454879544e-10,-4.77072744575126e-10)
(-3.92893056785512e-11,3.94340381003129e-10,-3.91940326695503e-10)
(-4.13380206683604e-11,9.02204729179675e-10,-2.44832988460716e-10)
(0,0,0)
(0,0,0)
(0,0,0)
(0,0,0)
(0,0,0)
(0,0,0)
(-7.59862204759634e-12,-4.10885980791714e-13,-1.10772730282062e-09)
(-1.28584067905068e-11,7.06716577003679e-13,-1.10918275550737e-09)
(-1.8115412332412e-11,3.00952636580666e-12,-1.1099876932578e-09)
(-2.14625288067853e-11,6.24281920168057e-12,-1.10932323627357e-09)
(-2.38040057279184e-11,1.38498441310658e-11,-1.10542146836147e-09)
(-2.84557184552968e-11,2.90254540062496e-11,-1.09312733325817e-09)
(-3.35156018801845e-11,5.75284036321952e-11,-1.0657852082121e-09)
(-3.77968188487615e-11,1.13309675498964e-10,-1.00928135180397e-09)
(-4.14594808324792e-11,2.46101584521949e-10,-8.97211255303313e-10)
(-4.31783238232077e-11,6.55444529322313e-10,-6.52924113836066e-10)
(0,0,0)
(0,0,0)
(0,0,0)
(0,0,0)
(0,0,0)
(0,0,0)
(0,0,0)
(0,0,0)
(0,0,0)
(0,0,0)
(0,0,0)
(0,0,0)
(0,0,0)
(0,0,0)
(0,0,0)
(0,0,0)
(0,0,0)
(0,0,0)
(0,0,0)
(0,0,0)
(0,0,0)
(0,0,0)
(0,0,0)
(0,0,0)
(0,0,0)
(0,0,0)
(0,0,0)
(0,0,0)
(0,0,0)
(0,0,0)
(0,0,0)
(0,0,0)
(0,0,0)
(0,0,0)
(0,0,0)
(0,0,0)
(0,0,0)
(0,0,0)
(0,0,0)
(0,0,0)
(0,0,0)
(0,0,0)
(0,0,0)
(0,0,0)
(0,0,0)
(0,0,0)
(0,0,0)
(0,0,0)
(0,0,0)
(0,0,0)
(0,0,0)
(0,0,0)
(0,0,0)
(0,0,0)
(0,0,0)
(0,0,0)
(0,0,0)
(0,0,0)
(0,0,0)
(0,0,0)
(0,0,0)
(0,0,0)
(0,0,0)
(0,0,0)
(0,0,0)
(0,0,0)
(0,0,0)
(0,0,0)
(0,0,0)
(0,0,0)
(0,0,0)
(0,0,0)
(0,0,0)
(0,0,0)
(0,0,0)
(0,0,0)
(0,0,0)
(0,0,0)
(0,0,0)
(0,0,0)
(0,0,0)
(0,0,0)
(0,0,0)
(0,0,0)
(0,0,0)
(0,0,0)
(0,0,0)
(0,0,0)
(0,0,0)
(0,0,0)
(0,0,0)
(0,0,0)
(0,0,0)
(0,0,0)
(0,0,0)
(0,0,0)
(0,0,0)
(0,0,0)
(0,0,0)
(0,0,0)
(0,0,0)
(0,0,0)
(-1.85538479095857e-12,1.26691434028244e-11,-1.04612843918642e-11)
(-2.54461204613682e-12,2.82929983930986e-11,-1.00022063263211e-11)
(-3.25737709409137e-12,4.80755786060648e-11,-8.27445035604325e-12)
(-3.93912241441583e-12,7.39655948404711e-11,-5.84663482352903e-12)
(-4.00709607676017e-12,1.10774496032896e-10,-3.4699544693529e-12)
(-3.59698542511688e-12,1.6526240075151e-10,-9.71729158342563e-13)
(-3.42221543401091e-12,2.47122246690271e-10,1.12637565884778e-12)
(-3.11492353227132e-12,3.65085515586746e-10,1.49853511650657e-12)
(-3.09138555798179e-12,5.31478270998042e-10,7.20061828773728e-13)
(-2.86327597638016e-12,7.34289492353264e-10,7.41963106858432e-14)
(0,0,0)
(0,0,0)
(0,0,0)
(0,0,0)
(0,0,0)
(0,0,0)
(-2.33935232057965e-12,1.21841768514736e-11,-2.40508869990741e-11)
(-3.82767207153935e-12,2.67467656837377e-11,-2.32636979058103e-11)
(-4.91308196480974e-12,4.55556225837451e-11,-2.0669166367403e-11)
(-6.0763586965077e-12,7.12906508170386e-11,-1.64273132506568e-11)
(-6.75548657841158e-12,1.08069850891242e-10,-1.11274129149754e-11)
(-6.28416673030376e-12,1.6307990590262e-10,-4.36935370886862e-12)
(-6.08739114450589e-12,2.47034896112218e-10,1.8844940998318e-12)
(-6.29044349846707e-12,3.67032423116559e-10,2.63617786309989e-12)
(-6.40261779071964e-12,5.33604054916565e-10,1.08968755830691e-12)
(-5.52447947556046e-12,7.36180553840236e-10,-1.46719143353028e-13)
(0,0,0)
(0,0,0)
(0,0,0)
(0,0,0)
(0,0,0)
(0,0,0)
(-1.9684155988151e-12,1.08128665815337e-11,-4.21465838534469e-11)
(-4.20152398693345e-12,2.36758268328227e-11,-4.09077438012252e-11)
(-5.53172864352938e-12,4.1050873218349e-11,-3.82389527096438e-11)
(-6.91346547727085e-12,6.5623986715571e-11,-3.31671881147829e-11)
(-7.83873600910333e-12,1.0117586096295e-10,-2.47556431096921e-11)
(-7.27036033056697e-12,1.56828347955589e-10,-1.20852438787334e-11)
(-7.2265053095327e-12,2.4637879896518e-10,1.3830919348075e-12)
(-1.03543535778491e-11,3.70343398511039e-10,1.32528244687584e-12)
(-1.16175617016291e-11,5.37069663287564e-10,-1.33946740713732e-12)
(-1.09857754492945e-11,7.38905905466812e-10,-2.18168456841962e-12)
(0,0,0)
(0,0,0)
(0,0,0)
(0,0,0)
(0,0,0)
(0,0,0)
(-2.13314929914778e-12,8.67358807429402e-12,-6.71152118704613e-11)
(-4.00855704274558e-12,1.99712173829039e-11,-6.63446426483605e-11)
(-5.22187598822046e-12,3.51562565728308e-11,-6.38962977214072e-11)
(-6.13214480646291e-12,5.6444517237049e-11,-5.85807458015505e-11)
(-6.41808175995442e-12,8.78166690423233e-11,-4.81721672623324e-11)
(-5.42256434870264e-12,1.42248398110677e-10,-3.11548992926617e-11)
(-6.00128695755624e-12,2.43307004268287e-10,-8.22776839293567e-12)
(-1.47640397791025e-11,3.75186071699924e-10,-1.00130898577231e-11)
(-1.67812674768336e-11,5.40438003933758e-10,-1.14903482778958e-11)
(-1.63413501416111e-11,7.39531523107997e-10,-7.70062618104074e-12)
(0,0,0)
(0,0,0)
(0,0,0)
(0,0,0)
(0,0,0)
(0,0,0)
(-2.37736243155714e-12,7.0180141598648e-12,-1.03039664498929e-10)
(-4.07542585478305e-12,1.62145416363227e-11,-1.0237084639991e-10)
(-5.33193599332089e-12,2.81646689536146e-11,-1.00324944440549e-10)
(-5.92179502840222e-12,4.42062139733434e-11,-9.60406610458058e-11)
(-5.21345233617879e-12,6.81738892142642e-11,-8.81449913264778e-11)
(-3.65600363904346e-12,1.12135525947882e-10,-7.84811634742573e-11)
(-2.09916311432594e-11,2.14316273058247e-10,-8.58884894223021e-11)
(-2.44351812262489e-11,3.79740580511265e-10,-5.69872606596496e-11)
(-2.40496437080235e-11,5.40486643517685e-10,-3.82516894160452e-11)
(-2.36691394060912e-11,7.3454979894738e-10,-1.9773188096622e-11)
(0,0,0)
(0,0,0)
(0,0,0)
(0,0,0)
(0,0,0)
(0,0,0)
(-2.24156786421687e-12,5.204286637516e-12,-1.54214598345911e-10)
(-4.63818762908298e-12,1.19328324696205e-11,-1.53986946693951e-10)
(-6.6156198448339e-12,2.05287197443303e-11,-1.53360231999484e-10)
(-7.71711986427732e-12,3.16011623005067e-11,-1.51275182644612e-10)
(-7.35858540212702e-12,4.91483067654801e-11,-1.47161436234913e-10)
(-6.88025610212884e-12,8.91800373054552e-11,-1.41645498106132e-10)
(-2.28494117710198e-11,2.15623285507425e-10,-1.47070957155324e-10)
(-2.83383382351083e-11,3.72944014470992e-10,-1.16497524433163e-10)
(-2.89428765231401e-11,5.27001325684864e-10,-7.96044666792684e-11)
(-2.886656348675e-11,7.17035634441572e-10,-4.0679275485016e-11)
(0,0,0)
(0,0,0)
(0,0,0)
(0,0,0)
(0,0,0)
(0,0,0)
(-3.13178867155625e-12,3.33230511923685e-12,-2.31100941432384e-10)
(-6.23002721231579e-12,8.34728949270853e-12,-2.30956335927235e-10)
(-8.73986164813085e-12,1.43370428093866e-11,-2.31482365639991e-10)
(-1.1084057161507e-11,2.10864999562058e-11,-2.31788126138572e-10)
(-1.46166125205685e-11,3.08217604839885e-11,-2.33286629851274e-10)
(-2.52881780336359e-11,5.59918894283199e-11,-2.38147015582155e-10)
(-2.44922688600314e-11,1.97218355071288e-10,-2.13500704197582e-10)
(-3.01435121175134e-11,3.46275223911e-10,-2.03897299146873e-10)
(-3.21197969861669e-11,4.92236623207251e-10,-1.39902656143126e-10)
(-3.21150078839362e-11,6.77719965102076e-10,-7.15510394538406e-11)
(0,0,0)
(0,0,0)
(0,0,0)
(0,0,0)
(0,0,0)
(0,0,0)
(-4.39314720422291e-12,1.16936661610019e-12,-3.41935540491317e-10)
(-8.37834656339695e-12,5.45148265020423e-12,-3.42283403582233e-10)
(-1.17440860562802e-11,1.04100654512825e-11,-3.43264344265593e-10)
(-1.4105077986726e-11,1.65432785401309e-11,-3.44693550223807e-10)
(-1.67974298162926e-11,3.01939264202523e-11,-3.46769124167751e-10)
(-2.31817713871119e-11,6.81635274003635e-11,-3.4999258368573e-10)
(-2.85192373326374e-11,1.76572668857365e-10,-3.44081110163283e-10)
(-3.30519916241403e-11,2.86400284787961e-10,-2.92961424704987e-10)
(-3.62578949734937e-11,4.25794252479542e-10,-2.130707386807e-10)
(-3.67355050279108e-11,6.06134906577124e-10,-1.1459907658092e-10)
(0,0,0)
(0,0,0)
(0,0,0)
(0,0,0)
(0,0,0)
(0,0,0)
(-5.86837223557918e-12,-4.72458673597776e-14,-5.01863865052802e-10)
(-1.07684955764244e-11,3.18736578265682e-12,-5.03097290712004e-10)
(-1.45729865508841e-11,7.34254766720273e-12,-5.0443539836299e-10)
(-1.72643458174457e-11,1.2669893754309e-11,-5.05032204295235e-10)
(-2.02962614203484e-11,2.61546694498299e-11,-5.04162723705748e-10)
(-2.53164703679963e-11,5.83326794017849e-11,-4.98608482262511e-10)
(-3.09121297046439e-11,1.24567997271316e-10,-4.77839818253337e-10)
(-3.48962073670928e-11,2.07601906228248e-10,-4.20151979563359e-10)
(-3.81578474314426e-11,3.26996488782145e-10,-3.25386658806862e-10)
(-3.94108092718224e-11,4.90057393591667e-10,-1.86887437024026e-10)
(0,0,0)
(0,0,0)
(0,0,0)
(0,0,0)
(0,0,0)
(0,0,0)
(-6.5540553421083e-12,-4.57318999204494e-13,-7.00479717196236e-10)
(-1.13467524638128e-11,1.26038222410383e-12,-7.02456867262092e-10)
(-1.57703429502954e-11,3.75447865047042e-12,-7.03893371312281e-10)
(-1.91214775176969e-11,6.86539557066602e-12,-7.0338323334197e-10)
(-2.22482966994971e-11,1.48865469500653e-11,-7.00042810634236e-10)