/*--------------------------------*- C++ -*----------------------------------*\
| =========                 |                                                 |
| \\      /  F ield         | foam-extend: Open Source CFD                    |
|  \\    /   O peration     | Version:     4.0                                |
|   \\  /    A nd           | Web:         http://www.foam-extend.org         |
|    \\/     M anipulation  |                                                 |
\*---------------------------------------------------------------------------*/
FoamFile
{
    version 2.0;
    format ascii;
    class volVectorField;
    location "1711";
    object      E;
}
// * * * * * * * * * * * * * * * * * * * * * * * * * * * * * * * * * * * * * //

dimensions      [0 1 -1 0 0 0 0];

internalField   nonuniform List<vector>
4096
(
(0,0,0)
(0,0,0)
(0,0,0)
(0,0,0)
(0,0,0)
(0,0,0)
(0,0,0)
(0,0,0)
(0,0,0)
(0,0,0)
(0,0,0)
(0,0,0)
(0,0,0)
(0,0,0)
(0,0,0)
(0,0,0)
(0,0,0)
(0,0,0)
(0,0,0)
(0,0,0)
(0,0,0)
(0,0,0)
(0,0,0)
(0,0,0)
(0,0,0)
(0,0,0)
(0,0,0)
(0,0,0)
(0,0,0)
(0,0,0)
(0,0,0)
(0,0,0)
(0,0,0)
(0,0,0)
(0,0,0)
(0,0,0)
(0,0,0)
(0,0,0)
(0,0,0)
(0,0,0)
(0,0,0)
(0,0,0)
(0,0,0)
(0,0,0)
(0,0,0)
(0,0,0)
(0,0,0)
(0,0,0)
(0,0,0)
(0,0,0)
(0,0,0)
(0,0,0)
(0,0,0)
(0,0,0)
(0,0,0)
(0,0,0)
(0,0,0)
(0,0,0)
(0,0,0)
(0,0,0)
(0,0,0)
(0,0,0)
(0,0,0)
(0,0,0)
(0,0,0)
(0,0,0)
(0,0,0)
(0,0,0)
(0,0,0)
(0,0,0)
(0,0,0)
(0,0,0)
(0,0,0)
(0,0,0)
(0,0,0)
(0,0,0)
(0,0,0)
(0,0,0)
(0,0,0)
(0,0,0)
(0,0,0)
(0,0,0)
(0,0,0)
(0,0,0)
(0,0,0)
(0,0,0)
(0,0,0)
(0,0,0)
(0,0,0)
(0,0,0)
(0,0,0)
(0,0,0)
(0,0,0)
(0,0,0)
(0,0,0)
(0,0,0)
(0,0,0)
(0,0,0)
(0,0,0)
(0,0,0)
(0,0,0)
(0,0,0)
(0,0,0)
(0,0,0)
(0,0,0)
(0,0,0)
(0,0,0)
(0,0,0)
(0,0,0)
(0,0,0)
(0,0,0)
(0,0,0)
(0,0,0)
(0,0,0)
(0,0,0)
(0,0,0)
(0,0,0)
(0,0,0)
(0,0,0)
(0,0,0)
(0,0,0)
(0,0,0)
(0,0,0)
(0,0,0)
(0,0,0)
(0,0,0)
(0,0,0)
(0,0,0)
(0,0,0)
(0,0,0)
(0,0,0)
(0,0,0)
(0,0,0)
(0,0,0)
(0,0,0)
(0,0,0)
(0,0,0)
(0,0,0)
(0,0,0)
(0,0,0)
(0,0,0)
(0,0,0)
(0,0,0)
(0,0,0)
(0,0,0)
(0,0,0)
(0,0,0)
(0,0,0)
(0,0,0)
(0,0,0)
(0,0,0)
(0,0,0)
(0,0,0)
(0,0,0)
(0,0,0)
(0,0,0)
(0,0,0)
(0,0,0)
(0,0,0)
(0,0,0)
(0,0,0)
(0,0,0)
(0,0,0)
(0,0,0)
(0,0,0)
(0,0,0)
(0,0,0)
(0,0,0)
(0,0,0)
(0,0,0)
(0,0,0)
(0,0,0)
(0,0,0)
(0,0,0)
(0,0,0)
(0,0,0)
(0,0,0)
(0,0,0)
(0,0,0)
(0,0,0)
(0,0,0)
(0,0,0)
(0,0,0)
(0,0,0)
(0,0,0)
(0,0,0)
(0,0,0)
(0,0,0)
(0,0,0)
(0,0,0)
(0,0,0)
(0,0,0)
(0,0,0)
(0,0,0)
(0,0,0)
(0,0,0)
(0,0,0)
(0,0,0)
(0,0,0)
(0,0,0)
(0,0,0)
(0,0,0)
(0,0,0)
(0,0,0)
(0,0,0)
(0,0,0)
(0,0,0)
(0,0,0)
(0,0,0)
(0,0,0)
(0,0,0)
(0,0,0)
(0,0,0)
(0,0,0)
(0,0,0)
(0,0,0)
(0,0,0)
(0,0,0)
(0,0,0)
(0,0,0)
(0,0,0)
(0,0,0)
(0,0,0)
(0,0,0)
(0,0,0)
(0,0,0)
(0,0,0)
(0,0,0)
(0,0,0)
(0,0,0)
(0,0,0)
(0,0,0)
(0,0,0)
(0,0,0)
(0,0,0)
(0,0,0)
(0,0,0)
(0,0,0)
(0,0,0)
(0,0,0)
(0,0,0)
(0,0,0)
(0,0,0)
(0,0,0)
(0,0,0)
(0,0,0)
(0,0,0)
(0,0,0)
(0,0,0)
(0,0,0)
(0,0,0)
(0,0,0)
(0,0,0)
(0,0,0)
(0,0,0)
(0,0,0)
(0,0,0)
(0,0,0)
(0,0,0)
(0,0,0)
(0,0,0)
(0,0,0)
(0,0,0)
(0,0,0)
(0,0,0)
(0,0,0)
(0,0,0)
(0,0,0)
(0,0,0)
(0,0,0)
(0,0,0)
(0,0,0)
(0,0,0)
(0,0,0)
(0,0,0)
(0,0,0)
(0,0,0)
(0,0,0)
(0,0,0)
(0,0,0)
(0,0,0)
(0,0,0)
(0,0,0)
(0,0,0)
(0,0,0)
(0,0,0)
(0,0,0)
(0,0,0)
(0,0,0)
(0,0,0)
(0,0,0)
(0,0,0)
(0,0,0)
(0,0,0)
(0,0,0)
(0,0,0)
(0,0,0)
(0,0,0)
(0,0,0)
(0,0,0)
(0,0,0)
(0,0,0)
(0,0,0)
(0,0,0)
(0,0,0)
(0,0,0)
(0,0,0)
(0,0,0)
(0,0,0)
(0,0,0)
(0,0,0)
(0,0,0)
(0,0,0)
(0,0,0)
(0,0,0)
(0,0,0)
(0,0,0)
(0,0,0)
(0,0,0)
(0,0,0)
(0,0,0)
(0,0,0)
(0,0,0)
(0,0,0)
(0,0,0)
(0,0,0)
(0,0,0)
(0,0,0)
(0,0,0)
(0,0,0)
(0,0,0)
(0,0,0)
(0,0,0)
(0,0,0)
(0,0,0)
(0,0,0)
(0,0,0)
(0,0,0)
(0,0,0)
(0,0,0)
(0,0,0)
(0,0,0)
(0,0,0)
(0,0,0)
(0,0,0)
(0,0,0)
(0,0,0)
(0,0,0)
(0,0,0)
(0,0,0)
(0,0,0)
(0,0,0)
(0,0,0)
(0,0,0)
(0,0,0)
(0,0,0)
(0,0,0)
(0,0,0)
(0,0,0)
(0,0,0)
(0,0,0)
(0,0,0)
(0,0,0)
(0,0,0)
(0,0,0)
(0,0,0)
(0,0,0)
(0,0,0)
(0,0,0)
(0,0,0)
(0,0,0)
(0,0,0)
(0,0,0)
(0,0,0)
(0,0,0)
(0,0,0)
(0,0,0)
(0,0,0)
(0,0,0)
(0,0,0)
(0,0,0)
(0,0,0)
(0,0,0)
(0,0,0)
(0,0,0)
(0,0,0)
(0,0,0)
(0,0,0)
(0,0,0)
(0,0,0)
(0,0,0)
(0,0,0)
(0,0,0)
(0,0,0)
(0,0,0)
(0,0,0)
(0,0,0)
(0,0,0)
(0,0,0)
(0,0,0)
(0,0,0)
(0,0,0)
(0,0,0)
(0,0,0)
(0,0,0)
(0,0,0)
(0,0,0)
(0,0,0)
(0,0,0)
(0,0,0)
(0,0,0)
(0,0,0)
(0,0,0)
(0,0,0)
(0,0,0)
(0,0,0)
(0,0,0)
(0,0,0)
(0,0,0)
(0,0,0)
(0,0,0)
(0,0,0)
(0,0,0)
(0,0,0)
(0,0,0)
(0,0,0)
(0,0,0)
(0,0,0)
(0,0,0)
(0,0,0)
(0,0,0)
(0,0,0)
(0,0,0)
(0,0,0)
(0,0,0)
(0,0,0)
(0,0,0)
(0,0,0)
(0,0,0)
(0,0,0)
(0,0,0)
(0,0,0)
(0,0,0)
(0,0,0)
(0,0,0)
(0,0,0)
(0,0,0)
(0,0,0)
(0,0,0)
(0,0,0)
(0,0,0)
(0,0,0)
(0,0,0)
(0,0,0)
(0,0,0)
(0,0,0)
(0,0,0)
(0,0,0)
(0,0,0)
(0,0,0)
(0,0,0)
(0,0,0)
(0,0,0)
(0,0,0)
(0,0,0)
(0,0,0)
(0,0,0)
(0,0,0)
(0,0,0)
(0,0,0)
(0,0,0)
(0,0,0)
(0,0,0)
(0,0,0)
(0,0,0)
(0,0,0)
(0,0,0)
(0,0,0)
(0,0,0)
(0,0,0)
(0,0,0)
(0,0,0)
(0,0,0)
(0,0,0)
(0,0,0)
(0,0,0)
(0,0,0)
(0,0,0)
(0,0,0)
(0,0,0)
(0,0,0)
(0,0,0)
(0,0,0)
(0,0,0)
(0,0,0)
(0,0,0)
(0,0,0)
(0,0,0)
(0,0,0)
(0,0,0)
(0,0,0)
(0,0,0)
(0,0,0)
(0,0,0)
(0,0,0)
(0,0,0)
(0,0,0)
(0,0,0)
(0,0,0)
(0,0,0)
(0,0,0)
(0,0,0)
(0,0,0)
(0,0,0)
(0,0,0)
(0,0,0)
(0,0,0)
(0,0,0)
(0,0,0)
(0,0,0)
(0,0,0)
(0,0,0)
(0,0,0)
(0,0,0)
(0,0,0)
(0,0,0)
(0,0,0)
(0,0,0)
(0,0,0)
(0,0,0)
(0,0,0)
(0,0,0)
(0,0,0)
(0,0,0)
(0,0,0)
(0,0,0)
(0,0,0)
(0,0,0)
(0,0,0)
(0,0,0)
(0,0,0)
(0,0,0)
(0,0,0)
(0,0,0)
(0,0,0)
(0,0,0)
(0,0,0)
(0,0,0)
(0,0,0)
(0,0,0)
(0,0,0)
(0,0,0)
(0,0,0)
(0,0,0)
(0,0,0)
(0,0,0)
(0,0,0)
(0,0,0)
(0,0,0)
(0,0,0)
(0,0,0)
(0,0,0)
(0,0,0)
(0,0,0)
(0,0,0)
(0,0,0)
(0,0,0)
(0,0,0)
(0,0,0)
(0,0,0)
(0,0,0)
(0,0,0)
(0,0,0)
(0,0,0)
(0,0,0)
(0,0,0)
(0,0,0)
(0,0,0)
(0,0,0)
(0,0,0)
(0,0,0)
(0,0,0)
(0,0,0)
(0,0,0)
(0,0,0)
(0,0,0)
(0,0,0)
(0,0,0)
(0,0,0)
(0,0,0)
(0,0,0)
(0,0,0)
(0,0,0)
(0,0,0)
(0,0,0)
(0,0,0)
(0,0,0)
(0,0,0)
(0,0,0)
(0,0,0)
(0,0,0)
(0,0,0)
(0,0,0)
(0,0,0)
(0,0,0)
(0,0,0)
(0,0,0)
(0,0,0)
(0,0,0)
(0,0,0)
(0,0,0)
(0,0,0)
(0,0,0)
(0,0,0)
(0,0,0)
(0,0,0)
(0,0,0)
(0,0,0)
(0,0,0)
(0,0,0)
(0,0,0)
(0,0,0)
(0,0,0)
(0,0,0)
(0,0,0)
(0,0,0)
(0,0,0)
(0,0,0)
(0,0,0)
(0,0,0)
(0,0,0)
(0,0,0)
(0,0,0)
(0,0,0)
(0,0,0)
(0,0,0)
(0,0,0)
(0,0,0)
(0,0,0)
(0,0,0)
(0,0,0)
(0,0,0)
(0,0,0)
(0,0,0)
(0,0,0)
(0,0,0)
(0,0,0)
(0,0,0)
(0,0,0)
(0,0,0)
(0,0,0)
(0,0,0)
(0,0,0)
(0,0,0)
(0,0,0)
(0,0,0)
(0,0,0)
(0,0,0)
(0,0,0)
(0,0,0)
(0,0,0)
(0,0,0)
(0,0,0)
(0,0,0)
(0,0,0)
(0,0,0)
(0,0,0)
(0,0,0)
(0,0,0)
(0,0,0)
(0,0,0)
(0,0,0)
(0,0,0)
(0,0,0)
(0,0,0)
(0,0,0)
(0,0,0)
(0,0,0)
(0,0,0)
(0,0,0)
(0,0,0)
(0,0,0)
(0,0,0)
(0,0,0)
(0,0,0)
(0,0,0)
(0,0,0)
(0,0,0)
(0,0,0)
(0,0,0)
(0,0,0)
(0,0,0)
(0,0,0)
(0,0,0)
(0,0,0)
(0,0,0)
(0,0,0)
(0,0,0)
(0,0,0)
(0,0,0)
(0,0,0)
(0,0,0)
(0,0,0)
(0,0,0)
(0,0,0)
(0,0,0)
(0,0,0)
(0,0,0)
(0,0,0)
(0,0,0)
(0,0,0)
(0,0,0)
(0,0,0)
(0,0,0)
(0,0,0)
(0,0,0)
(0,0,0)
(0,0,0)
(0,0,0)
(0,0,0)
(0,0,0)
(0,0,0)
(0,0,0)
(0,0,0)
(0,0,0)
(0,0,0)
(0,0,0)
(0,0,0)
(0,0,0)
(0,0,0)
(0,0,0)
(0,0,0)
(0,0,0)
(0,0,0)
(0,0,0)
(0,0,0)
(0,0,0)
(0,0,0)
(0,0,0)
(0,0,0)
(0,0,0)
(0,0,0)
(0,0,0)
(0,0,0)
(0,0,0)
(0,0,0)
(0,0,0)
(0,0,0)
(0,0,0)
(0,0,0)
(0,0,0)
(0,0,0)
(0,0,0)
(0,0,0)
(0,0,0)
(0,0,0)
(0,0,0)
(0,0,0)
(0,0,0)
(0,0,0)
(0,0,0)
(0,0,0)
(0,0,0)
(0,0,0)
(0,0,0)
(0,0,0)
(0,0,0)
(0,0,0)
(0,0,0)
(0,0,0)
(0,0,0)
(0,0,0)
(0,0,0)
(0,0,0)
(0,0,0)
(0,0,0)
(0,0,0)
(0,0,0)
(0,0,0)
(0,0,0)
(0,0,0)
(0,0,0)
(0,0,0)
(0,0,0)
(0,0,0)
(0,0,0)
(0,0,0)
(0,0,0)
(0,0,0)
(0,0,0)
(0,0,0)
(0,0,0)
(0,0,0)
(0,0,0)
(0,0,0)
(0,0,0)
(0,0,0)
(0,0,0)
(0,0,0)
(0,0,0)
(0,0,0)
(0,0,0)
(0,0,0)
(0,0,0)
(0,0,0)
(0,0,0)
(0,0,0)
(0,0,0)
(0,0,0)
(0,0,0)
(0,0,0)
(0,0,0)
(0,0,0)
(0,0,0)
(0,0,0)
(0,0,0)
(0,0,0)
(0,0,0)
(0,0,0)
(-176309.28694141,93866.3840314748,82442.9029099342)
(-186472.010009725,89964.5771563998,178950.335763258)
(-209986.483946965,81833.6118272703,307103.207882955)
(-254427.999161918,69130.6400158958,492400.567028982)
(-334585.780189782,52041.5886176725,774944.758601098)
(-478445.578014724,32438.6084077843,1220951.72820803)
(-738983.49003337,14593.0030634784,1945342.21517795)
(-1209880.04686105,3686.60503190717,3151535.65700712)
(-1995564.48340281,37.4020956089861,5147062.7383143)
(-2780453.1500276,-281.867724657783,7927797.75606662)
(0,0,0)
(0,0,0)
(0,0,0)
(0,0,0)
(0,0,0)
(0,0,0)
(-186450.007185439,201745.468536785,78570.9226801265)
(-196742.310283762,194367.662719424,170910.147400869)
(-220647.638247316,178916.616028876,294474.781446575)
(-266137.272360207,154405.449287148,475337.244535535)
(-348530.461341982,120628.382927307,755280.911567872)
(-495857.727957978,80500.3805459822,1203076.86738765)
(-759261.318696268,42540.2214402953,1934390.9677071)
(-1228357.18392088,18545.1523966028,3147889.60426321)
(-2007902.81149394,9080.29866567334,5146749.51918713)
(-2786214.05078874,4617.24158594927,7928064.4606652)
(0,0,0)
(0,0,0)
(0,0,0)
(0,0,0)
(0,0,0)
(0,0,0)
(-209673.742807826,340083.840002661,71335.3713419507)
(-220166.401005641,330200.555483149,155668.879583871)
(-244852.270754526,309303.139983033,270134.626384244)
(-292619.142803984,275515.889393361,441643.329082016)
(-380283.33286121,227403.994184084,715151.050686438)
(-536744.059052715,167298.193917709,1165097.29636742)
(-809194.222759755,106492.53163848,1910339.20892901)
(-1274313.15454066,64755.9326270553,3138441.58323919)
(-2037485.55945037,42688.4483320935,5142318.99302317)
(-2799605.79635514,23113.99059266,7923428.04037166)
(0,0,0)
(0,0,0)
(0,0,0)
(0,0,0)
(0,0,0)
(0,0,0)
(-253021.226734159,531507.851078918,61597.215657904)
(-263690.246202029,520525.97554951,134962.041793573)
(-289347.776718215,497156.704596618,236456.253898196)
(-340410.075184914,458814.367876006,393567.850600456)
(-436747.303293039,402674.878837572,655044.269240013)
(-610747.96396036,328882.923975212,1104207.50314287)
(-904800.953924836,246982.642118052,1868518.34658813)
(-1363215.67942228,180122.415356967,3116367.54328044)
(-2091701.71616031,128000.178679534,5122757.52909326)
(-2823240.73331301,68838.334811171,7900273.91818788)
(0,0,0)
(0,0,0)
(0,0,0)
(0,0,0)
(0,0,0)
(0,0,0)
(-330742.975771745,811553.987582661,50696.8392679988)
(-341359.472014879,800895.345663883,111686.941168502)
(-367511.813339019,778201.609758229,198153.849345913)
(-421344.697789996,740848.86200561,337464.053006305)
(-526642.178977392,685502.715620846,581278.395200429)
(-722352.070176963,610268.619480451,1022244.76987213)
(-1050412.27989254,518057.247460513,1801582.4444222)
(-1498601.87282724,416103.290724574,3064203.44188185)
(-2170519.35018944,299104.820762282,5063618.14998862)
(-2857423.43336095,158505.233439215,7831374.68472152)
(0,0,0)
(0,0,0)
(0,0,0)
(0,0,0)
(0,0,0)
(0,0,0)
(-471079.697434311,1242571.68001528,40062.0050016945)
(-481168.340283216,1233106.22129618,89019.4696526063)
(-506458.549547734,1212908.62933286,160770.999625708)
(-559753.564149295,1179270.12639699,282103.299383623)
(-666163.101528909,1127725.70128778,506043.415245599)
(-865582.152030446,1051830.53907802,930063.64767849)
(-1194642.69994239,943104.3554514,1699659.23963001)
(-1622493.56983997,791054.642381512,2947201.45781304)
(-2255920.4508925,579196.9320869,4923029.79738098)
(-2900463.22835922,309178.131527718,7672820.12765155)
(0,0,0)
(0,0,0)
(0,0,0)
(0,0,0)
(0,0,0)
(0,0,0)
(-728700.37449897,1940678.16967682,30593.8848374296)
(-737645.825553239,1932526.16367463,68819.7680122328)
(-760359.580304893,1914949.62585432,127138.351795674)
(-809048.218986323,1884870.55729493,230586.13988406)
(-907881.747810574,1836021.17710264,430172.411879771)
(-1095239.8452118,1755800.02017563,821442.775993957)
(-1404033.08338692,1620877.88138087,1547702.33345142)
(-1793083.44084527,1396448.15750392,2735392.2591743)
(-2383244.75791977,1044821.8462928,4653012.10288811)
(-2970709.39650344,569283.227213074,7363616.40370629)
(0,0,0)
(0,0,0)
(0,0,0)
(0,0,0)
(0,0,0)
(0,0,0)
(-1199872.8645639,3118126.56496936,22424.4692713554)
(-1207019.53719774,3110700.31574791,51269.8543958265)
(-1225319.91840111,3094364.00161414,97175.3970371349)
(-1264917.42301094,3065100.9537571,181862.423585893)
(-1346134.50273384,3013951.39686097,350066.706561397)
(-1501872.68646272,2921051.18791447,686688.225285261)
(-1760461.03916355,2744598.19758736,1323428.94824231)
(-2075448.45888193,2411460.83936947,2383864.7252587)
(-2614404.60989238,1865622.94432249,4177468.23712138)
(-3105023.95312754,1057492.47568901,6794282.94177292)
(0,0,0)
(0,0,0)
(0,0,0)
(0,0,0)
(0,0,0)
(0,0,0)
(-1988768.94954365,5091872.07688496,15023.4376280245)
(-1993657.08248668,5084404.71648351,34976.1193791203)
(-2006080.70023951,5067390.20513025,68030.6161024809)
(-2032696.50636145,5034985.98464581,130842.091575198)
(-2086359.34804813,4973853.00265109,257299.833833218)
(-2187145.47760667,4855117.99069261,510378.508661756)
(-2356421.19060286,4620980.86704908,990417.029802902)
(-2607997.71310726,4171788.62251282,1838086.95976682)
(-3040688.48186342,3375057.37947458,3369341.00647807)
(-3339238.16248242,2029307.45030104,5736764.19434849)
(0,0,0)
(0,0,0)
(0,0,0)
(0,0,0)
(0,0,0)
(0,0,0)
(-2777345.03407384,7861576.16396037,7640.94699846384)
(-2779797.2848569,7853831.08306249,18011.8652763792)
(-2785964.18697932,7835686.50349522,35679.7538907629)
(-2799022.70626644,7799876.24664161,69812.198161446)
(-2825009.02017923,7729938.8949342,138735.326057594)
(-2873558.12800722,7590974.33998488,276437.104772542)
(-2958276.67109352,7314303.69851677,541390.944398366)
(-3101038.21326745,6772767.17005663,1041450.61012196)
(-3338457.8198324,5731299.22141251,2023666.5880164)
(-3362158.69677738,3707598.18193853,3707534.55315631)
(0,0,0)
(0,0,0)
(0,0,0)
(0,0,0)
(0,0,0)
(0,0,0)
(0,0,0)
(0,0,0)
(0,0,0)
(0,0,0)
(0,0,0)
(0,0,0)
(0,0,0)
(0,0,0)
(0,0,0)
(0,0,0)
(0,0,0)
(0,0,0)
(0,0,0)
(0,0,0)
(0,0,0)
(0,0,0)
(0,0,0)
(0,0,0)
(0,0,0)
(0,0,0)
(0,0,0)
(0,0,0)
(0,0,0)
(0,0,0)
(0,0,0)
(0,0,0)
(0,0,0)
(0,0,0)
(0,0,0)
(0,0,0)
(0,0,0)
(0,0,0)
(0,0,0)
(0,0,0)
(0,0,0)
(0,0,0)
(0,0,0)
(0,0,0)
(0,0,0)
(0,0,0)
(0,0,0)
(0,0,0)
(0,0,0)
(0,0,0)
(0,0,0)
(0,0,0)
(0,0,0)
(0,0,0)
(0,0,0)
(0,0,0)
(0,0,0)
(0,0,0)
(0,0,0)
(0,0,0)
(0,0,0)
(0,0,0)
(0,0,0)
(0,0,0)
(0,0,0)
(0,0,0)
(0,0,0)
(0,0,0)
(0,0,0)
(0,0,0)
(0,0,0)
(0,0,0)
(0,0,0)
(0,0,0)
(0,0,0)
(0,0,0)
(0,0,0)
(0,0,0)
(0,0,0)
(0,0,0)
(0,0,0)
(0,0,0)
(0,0,0)
(0,0,0)
(0,0,0)
(0,0,0)
(0,0,0)
(0,0,0)
(0,0,0)
(0,0,0)
(0,0,0)
(0,0,0)
(0,0,0)
(0,0,0)
(0,0,0)
(0,0,0)
(0,0,0)
(0,0,0)
(0,0,0)
(0,0,0)
(0,0,0)
(0,0,0)
(26075864.1409252,83654.941246966,72343.9075777242)
(26058860.7611695,79674.8374433773,155508.57564643)
(26019766.8034844,71193.2628817783,262734.302024522)
(25946689.3273362,57483.1244816264,412306.127735986)
(25816604.788508,38191.9956179667,631095.840111511)
(25585247.3950791,15109.3146499383,960465.829058943)
(25160708.2610718,-5605.29725007283,1474551.65189508)
(24321677.1228994,-14712.7330694064,2365879.49189528)
(22428626.064962,-12223.0481848217,4362084.2684066)
(17287795.4948692,-6015.99975939979,10708023.8999605)
(0,0,0)
(0,0,0)
(0,0,0)
(0,0,0)
(0,0,0)
(0,0,0)
(26058563.1599398,178431.329760219,68382.7210528145)
(26041493.1354406,170900.562745908,147093.826717177)
(26002025.8174349,154727.23431532,249058.676292661)
(25927551.5203149,127991.812440755,393033.472349647)
(25793885.6582158,88969.2449062553,608012.38019488)
(25556016.6986076,39698.7534159469,939720.791554615)
(25124974.7001616,-7309.29249135758,1465361.04462944)
(24289456.8161233,-27358.1189526996,2368364.7071598)
(22408589.6151891,-20475.9877786813,4368297.49676173)
(17279022.9482982,-8772.13278048724,10713988.9073871)
(0,0,0)
(0,0,0)
(0,0,0)
(0,0,0)
(0,0,0)
(0,0,0)
(26019291.6146305,296691.452351854,60946.7966612414)
(26002135.8385545,286647.738514792,131069.658023484)
(25961864.3101039,264826.653176534,222425.934995168)
(25884129.5902816,227773.838620649,354067.452421017)
(25741187.909919,170987.283687147,558750.447551151)
(25483828.4663973,93370.5849078469,892678.367300473)
(25028140.6720249,10960.0659671928,1445246.39074856)
(24200603.6959429,-24107.4738023437,2375251.17180601)
(22356936.8372929,-11507.4679746296,4380032.53194991)
(17257600.5436236,-505.684249021772,10722732.020131)
(0,0,0)
(0,0,0)
(0,0,0)
(0,0,0)
(0,0,0)
(0,0,0)
(25947053.8562725,453776.287058048,51012.3589784107)
(25929902.030085,442846.604782139,109393.493115385)
(25888631.9740671,418974.790772479,185437.881425463)
(25805817.8004355,377868.304526956,297287.816590008)
(25645828.6572851,312771.593715915,481099.822674427)
(25344391.2204247,217305.976966616,810197.522921972)
(24812966.6816864,101426.343254468,1410135.88671476)
(23998351.0715813,44786.2325133378,2387847.70608675)
(22252541.7772367,49221.4320351705,4391047.58937113)
(17217518.9898549,34699.350073348,10723255.1085722)
(0,0,0)
(0,0,0)
(0,0,0)
(0,0,0)
(0,0,0)
(0,0,0)
(25819816.9219292,671240.789887589,40147.8761607612)
(25803072.8917939,661123.961994631,85610.4318307389)
(25761591.4086509,639281.686175758,144372.591128863)
(25674425.5186748,602443.801955043,232199.153927223)
(25494914.2407727,545994.549242637,385592.055341745)
(25127396.4408138,467076.770528544,694245.027480298)
(24426085.1827196,373883.787528802,1353462.39728508)
(23623285.6714314,292260.956925084,2392272.40530605)
(22088859.0809038,213730.856942754,4376556.82599633)
(17157886.3288048,115518.195016611,10688600.4955786)
(0,0,0)
(0,0,0)
(0,0,0)
(0,0,0)
(0,0,0)
(0,0,0)
(25593304.4985999,984965.139458929,30063.7310857009)
(25577712.668585,976664.554860969,63814.4060424413)
(25538209.6276206,959059.79556944,107540.396171702)
(25452633.1113313,930028.744840223,175741.054497294)
(25271039.6605755,886061.833264132,306643.285062707)
(24893025.8076882,822230.469059408,601053.903504427)
(24182857.6122791,733754.173036785,1271855.48246628)
(23415528.5491602,620499.564108506,2313767.03297378)
(21949479.1363616,451909.006863194,4278361.57249056)
(17089506.112238,238973.841025899,10573108.8625753)
(0,0,0)
(0,0,0)
(0,0,0)
(0,0,0)
(0,0,0)
(0,0,0)
(25173108.9794367,1469569.28557092,21758.7766436017)
(25159532.5030922,1463194.17753527,46223.1020151453)
(25124535.4701881,1450014.25343574,78545.8703472637)
(25046856.295892,1429016.11541324,131826.261587179)
(24877555.2755899,1397773.33537727,242850.012764871)
(24516138.8020261,1349181.78793969,512692.32333797)
(23827446.9383413,1264450.36238008,1158688.38895766)
(23134962.9384658,1114075.89444207,2145237.95600436)
(21742997.2961129,813660.430475648,4065416.75505035)
(16972773.6215977,434976.949253412,10334102.9054131)
(0,0,0)
(0,0,0)
(0,0,0)
(0,0,0)
(0,0,0)
(0,0,0)
(24333276.2339379,2329233.88036739,15358.583393083)
(24322597.8031592,2324050.64693359,33057.0503291865)
(24294732.8143259,2313547.21856494,57643.6291642738)
(24231984.5930225,2297224.16752817,100705.83770725)
(24092513.8011979,2273640.91379922,194362.23204465)
(23785965.7177258,2235734.55368325,428143.338803938)
(23183216.6811286,2148598.93414936,1008489.32343369)
(22731510.7215356,1878861.90550612,1844916.40864327)
(21326371.9290257,1439262.81646316,3686709.76042894)
(16702564.548741,823223.608309699,9899046.87619538)
(0,0,0)
(0,0,0)
(0,0,0)
(0,0,0)
(0,0,0)
(0,0,0)
(22435293.0461111,4303125.40162059,10218.7597833583)
(22428103.9655867,4298078.40266043,22602.2326744865)
(22409501.4093449,4287297.15511045,41442.4632358254)
(22368484.3441953,4268407.73121265,77250.3256858064)
(22281199.6378692,4234942.13639639,156562.393862526)
(22103697.3278462,4168491.6665459,341134.752238228)
(21783682.7781898,4018944.94825891,738857.046027359)
(21333951.6983426,3678580.93464331,1405360.88213164)
(20064343.2246281,3077116.48495316,3070647.7838414)
(15880753.787547,2006285.50285174,9075766.21596112)
(0,0,0)
(0,0,0)
(0,0,0)
(0,0,0)
(0,0,0)
(0,0,0)
(17290171.7236339,10638540.6385762,5240.28202789305)
(17286601.190617,10633224.2099224,11868.2759831805)
(17277475.6752481,10621260.9444116,22636.9011459081)
(17257797.0191731,10598505.6439583,43891.5396520548)
(17217226.1761474,10554527.6513159,90243.1050972152)
(17137464.436039,10464138.7065783,191745.777709919)
(16989751.1964967,10272234.2869285,398600.848141458)
(16706779.2400094,9873559.91843604,803976.687763257)
(15881395.2534532,9069539.01823608,1999873.35788605)
(12913006.1894077,7069619.08287564,7069547.16836822)
(0,0,0)
(0,0,0)
(0,0,0)
(0,0,0)
(0,0,0)
(0,0,0)
(0,0,0)
(0,0,0)
(0,0,0)
(0,0,0)
(0,0,0)
(0,0,0)
(0,0,0)
(0,0,0)
(0,0,0)
(0,0,0)
(0,0,0)
(0,0,0)
(0,0,0)
(0,0,0)
(0,0,0)
(0,0,0)
(0,0,0)
(0,0,0)
(0,0,0)
(0,0,0)
(0,0,0)
(0,0,0)
(0,0,0)
(0,0,0)
(0,0,0)
(0,0,0)
(0,0,0)
(0,0,0)
(0,0,0)
(0,0,0)
(0,0,0)
(0,0,0)
(0,0,0)
(0,0,0)
(0,0,0)
(0,0,0)
(0,0,0)
(0,0,0)
(0,0,0)
(0,0,0)
(0,0,0)
(0,0,0)
(0,0,0)
(0,0,0)
(0,0,0)
(0,0,0)
(0,0,0)
(0,0,0)
(0,0,0)
(0,0,0)
(0,0,0)
(0,0,0)
(0,0,0)
(0,0,0)
(0,0,0)
(0,0,0)
(0,0,0)
(0,0,0)
(0,0,0)
(0,0,0)
(0,0,0)
(0,0,0)
(0,0,0)
(0,0,0)
(0,0,0)
(0,0,0)
(0,0,0)
(0,0,0)
(0,0,0)
(0,0,0)
(0,0,0)
(0,0,0)
(0,0,0)
(0,0,0)
(0,0,0)
(0,0,0)
(0,0,0)
(0,0,0)
(0,0,0)
(0,0,0)
(0,0,0)
(0,0,0)
(0,0,0)
(0,0,0)
(0,0,0)
(0,0,0)
(0,0,0)
(0,0,0)
(0,0,0)
(0,0,0)
(0,0,0)
(0,0,0)
(0,0,0)
(0,0,0)
(0,0,0)
(0,0,0)
(-453926.190911304,66243.5194780362,55374.5356671684)
(-472660.362239614,62236.0297612863,116487.352623685)
(-515105.380162896,53436.230690445,189751.028889301)
(-592366.108788143,38363.0567725353,282271.131549899)
(-724572.116643529,15536.8731745344,399738.886835624)
(-945101.021902578,-14039.029298898,535954.056424995)
(-1305843.96445259,-41244.9843650591,635578.989623178)
(-1876832.90705007,-46872.7636013657,472789.506482777)
(-2695494.27977125,-32220.1985581472,-779042.226917164)
(-3304249.97983438,-14763.9183983945,-6580405.11050633)
(0,0,0)
(0,0,0)
(0,0,0)
(0,0,0)
(0,0,0)
(0,0,0)
(-473721.139352955,138976.902744193,51378.6393352915)
(-492174.454811425,131413.577085605,107696.405571742)
(-534221.718153405,114530.919988117,174676.97517113)
(-611592.511267256,84572.0539469483,259439.732887649)
(-745816.702082931,36324.7498054056,370181.939864213)
(-972340.191890782,-32411.9464382964,508739.470810671)
(-1341528.15199618,-104079.24946124,629904.311373253)
(-1906967.97413532,-116192.858572305,487476.919911547)
(-2710609.30265842,-72153.7466596994,-761562.89083051)
(-3309584.92357361,-30199.5103400093,-6565691.70370831)
(0,0,0)
(0,0,0)
(0,0,0)
(0,0,0)
(0,0,0)
(0,0,0)
(-517981.893961105,224213.399948088,43864.7346965068)
(-535859.214048152,214231.47504573,90869.6126477629)
(-577183.143657344,191512.090288454,144763.619417342)
(-655310.918127888,149413.113955473,211190.791126981)
(-796493.877587843,75614.6453979538,301410.406350033)
(-1046351.69381147,-46022.2054162483,437028.548845508)
(-1460653.62467819,-204188.04175424,617759.361150306)
(-2011198.08361043,-226366.033056742,531562.038496699)
(-2756325.3461811,-115938.97148403,-719562.829896159)
(-3324234.20074618,-40588.7783013513,-6535511.09425631)
(0,0,0)
(0,0,0)
(0,0,0)
(0,0,0)
(0,0,0)
(0,0,0)
(-597137.77399513,326289.435897685,33943.3176267695)
(-614107.101953074,315790.762052457,68220.8859667672)
(-654285.288244626,291781.15213235,102696.80974326)
(-734000.338131465,246395.698817411,137360.086757018)
(-890885.544503839,161831.70196129,179684.955291299)
(-1209234.21503258,325.369468363546,278790.539172604)
(-1830720.7455632,-285445.951513428,595563.599490105)
(-2352359.97169622,-330271.612788893,642007.945808559)
(-2870877.30360688,-114472.378075579,-644211.843447536)
(-3355662.05454506,-24926.5150497683,-6494865.33899048)
(0,0,0)
(0,0,0)
(0,0,0)
(0,0,0)
(0,0,0)
(0,0,0)
(-730135.011169153,444587.90300292,23481.189301863)
(-745709.723395125,435628.54288779,44253.7469643029)
(-783678.506609655,415803.048683228,57329.4889826537)
(-863426.195301574,380611.430378012,52793.1947071844)
(-1038902.01152678,322139.189788833,18129.682487789)
(-1488008.23950786,232718.443660406,-7030.98807383584)
(-2955967.66192858,130677.647007557,550725.981362084)
(-3506779.26460073,84529.9301230839,857817.097790925)
(-3095663.45482203,74336.3907221842,-554641.41197216)
(-3407205.12555828,47154.9901081589,-6469803.73945815)
(0,0,0)
(0,0,0)
(0,0,0)
(0,0,0)
(0,0,0)
(0,0,0)
(-949535.108019783,564711.222499303,14544.0104320508)
(-963159.546089749,558427.666628518,24444.8246747826)
(-997190.530424187,545348.743428302,22127.0112832174)
(-1071365.06352782,524260.174424493,-5695.83459551261)
(-1241998.99052627,492622.700355449,-71312.9707516705)
(-1690001.21887067,445356.677092742,-109096.454316359)
(-3086602.72122718,378329.11117135,504540.13833479)
(-3591176.97752594,339945.995990436,847657.32246244)
(-3200312.17626054,245440.909778314,-581828.160662907)
(-3458711.7424428,122272.430773471,-6516900.0233386)
(0,0,0)
(0,0,0)
(0,0,0)
(0,0,0)
(0,0,0)
(0,0,0)
(-1308315.63750193,629731.542238505,8232.02050815962)
(-1319531.81740702,626212.038200489,11339.6927441237)
(-1348145.31683198,620154.826720499,1042.11978057593)
(-1412803.97113159,614093.931220176,-37303.6466827716)
(-1569472.38320982,612693.661832292,-118519.226051195)
(-2008172.47737669,618988.115586248,-176011.661833176)
(-3464829.21983628,620229.637637604,466191.693186956)
(-3930955.74731242,710658.944245466,753225.154018836)
(-3358570.84014833,397073.124659324,-705011.201292046)
(-3543741.27848992,164796.615498084,-6639192.76262048)
(0,0,0)
(0,0,0)
(0,0,0)
(0,0,0)
(0,0,0)
(0,0,0)
(-1881003.94584631,431155.801866845,4683.64346451858)
(-1889416.15316344,429470.195725937,5267.16557034668)
(-1911250.26294654,428212.031699457,-4979.23882748219)
(-1961983.09553457,433561.258696638,-38651.1544382223)
(-2091626.77288677,462159.698685386,-112148.893897737)
(-2494105.14645726,553326.76288408,-174588.953703851)
(-4085087.22613672,748966.704987299,556805.609520583)
(-3330141.27099128,481207.985907482,439736.283694224)
(-3484840.01582317,177125.448490911,-937276.371979711)
(-3675395.48677034,1324.11529822181,-6804016.11295971)
(0,0,0)
(0,0,0)
(0,0,0)
(0,0,0)
(0,0,0)
(0,0,0)
(-2702364.66286954,-842389.720227196,3030.95438336445)
(-2707811.51770295,-843786.957394837,4031.31410244444)
(-2721805.63546139,-845088.395455726,466.509372667227)
(-2753006.14903249,-842683.946556634,-9970.06883747747)
(-2824417.51822034,-829454.598979906,-20910.8917738533)
(-2995075.60116366,-798132.778362004,21149.3017908341)
(-3368184.20379235,-775331.57715976,289142.289228718)
(-3490631.02826374,-948922.626245001,135683.351296206)
(-3811807.89943429,-1106113.01623809,-1113099.33660367)
(-3872110.34278388,-961659.566885292,-6805423.8007805)
(0,0,0)
(0,0,0)
(0,0,0)
(0,0,0)
(0,0,0)
(0,0,0)
(-3309568.10703162,-6652493.81589275,1671.64963979037)
(-3312214.18394059,-6654235.91044161,2763.70055286074)
(-3318916.99178863,-6657071.91964334,2967.61508596602)
(-3333320.13050473,-6660125.63154551,3354.17306127875)
(-3363992.44063395,-6663545.17661381,10491.0907852789)
(-3428259.67515489,-6674127.58748051,44037.7344063449)
(-3547050.32632385,-6718265.68817136,115601.091547211)
(-3679321.11413279,-6833908.14905258,-21485.3081944228)
(-3873269.93415594,-6812462.06102829,-968643.352486398)
(-3737848.76562888,-5843828.14909186,-5843792.09193446)
(0,0,0)
(0,0,0)
(0,0,0)
(0,0,0)
(0,0,0)
(0,0,0)
(0,0,0)
(0,0,0)
(0,0,0)
(0,0,0)
(0,0,0)
(0,0,0)
(0,0,0)
(0,0,0)
(0,0,0)
(0,0,0)
(0,0,0)
(0,0,0)
(0,0,0)
(0,0,0)
(0,0,0)
(0,0,0)
(0,0,0)
(0,0,0)
(0,0,0)
(0,0,0)
(0,0,0)
(0,0,0)
(0,0,0)
(0,0,0)
(0,0,0)
(0,0,0)
(0,0,0)
(0,0,0)
(0,0,0)
(0,0,0)
(0,0,0)
(0,0,0)
(0,0,0)
(0,0,0)
(0,0,0)
(0,0,0)
(0,0,0)
(0,0,0)
(0,0,0)
(0,0,0)
(0,0,0)
(0,0,0)
(0,0,0)
(0,0,0)
(0,0,0)
(0,0,0)
(0,0,0)
(0,0,0)
(0,0,0)
(0,0,0)
(0,0,0)
(0,0,0)
(0,0,0)
(0,0,0)
(0,0,0)
(0,0,0)
(0,0,0)
(0,0,0)
(0,0,0)
(0,0,0)
(0,0,0)
(0,0,0)
(0,0,0)
(0,0,0)
(0,0,0)
(0,0,0)
(0,0,0)
(0,0,0)
(0,0,0)
(0,0,0)
(0,0,0)
(0,0,0)
(0,0,0)
(0,0,0)
(0,0,0)
(0,0,0)
(0,0,0)
(0,0,0)
(0,0,0)
(0,0,0)
(0,0,0)
(0,0,0)
(0,0,0)
(0,0,0)
(0,0,0)
(0,0,0)
(0,0,0)
(0,0,0)
(0,0,0)
(0,0,0)
(0,0,0)
(0,0,0)
(0,0,0)
(0,0,0)
(0,0,0)
(0,0,0)
(-536882.178025607,46322.4874034132,36633.4997108911)
(-552788.965498973,42654.8133731909,74107.2895970625)
(-587908.102291574,34341.8180178699,112568.193707872)
(-649160.793799072,19229.1438999003,150133.734818899)
(-748028.568281488,-5587.72787605986,179177.914332923)
(-899984.447351077,-41142.6725091647,175204.01229059)
(-1118461.61835799,-76794.475316713,64616.1415127066)
(-1389395.01264151,-76917.177765147,-345904.575130714)
(-1606076.6447319,-47280.0807629393,-1388042.1294071)
(-1395638.09018028,-20079.7783159099,-3276574.24074528)
(0,0,0)
(0,0,0)
(0,0,0)
(0,0,0)
(0,0,0)
(0,0,0)
(-554863.630542177,94510.2561306039,32954.7224620297)
(-569904.191545462,87598.5121684839,65740.7604007753)
(-603109.604354633,71544.3627746318,97426.1018452458)
(-661140.452823732,40903.1847157152,125300.002585904)
(-755499.289536825,-14243.4743661549,143638.336529895)
(-903091.966409547,-106295.814307964,139543.252847467)
(-1120139.94850352,-223112.729935212,64473.303973301)
(-1382835.90182191,-220370.436900128,-316205.50920513)
(-1595444.60031605,-117853.176985707,-1360797.11532473)
(-1389080.60860668,-44843.9671940064,-3256537.24141361)
(0,0,0)
(0,0,0)
(0,0,0)
(0,0,0)
(0,0,0)
(0,0,0)
(-594323.6318309,144801.587734861,26050.406265543)
(-607663.470303464,135796.70625389,49656.4684354453)
(-637036.965317166,114305.895022347,66748.757847551)
(-688414.926429717,70672.4620305212,70083.4888345778)
(-773375.411261958,-18787.4308353882,51508.9789779256)
(-914935.473506144,-208876.738018324,22673.6823829499)
(-1154029.39362804,-574250.828170807,67187.549568405)
(-1383229.08288283,-567528.732495404,-213623.155563933)
(-1569599.93234196,-230499.524813382,-1287702.22157538)
(-1373093.37158614,-72022.2243124645,-3211664.79361698)
(0,0,0)
(0,0,0)
(0,0,0)
(0,0,0)
(0,0,0)
(0,0,0)
(-662409.175401026,193003.418556833,17069.5705839312)
(-673342.417338316,183916.078628936,28185.5135941314)
(-697068.236026882,162187.31178784,23087.0446108965)
(-737616.51259575,116840.588798149,-19464.9076924473)
(-804195.190700194,13751.1670594939,-138693.85939097)
(-935563.244314653,-278484.917999471,-342756.650127747)
(-1410888.53676087,-1410751.112672,73911.4255710972)
(-1484749.6478696,-1484701.18331448,123473.552563551)
(-1509470.11256975,-339262.631335911,-1129170.53195105)
(-1340831.98015951,-76492.2038546624,-3139530.62679442)
(0,0,0)
(0,0,0)
(0,0,0)
(0,0,0)
(0,0,0)
(0,0,0)
(-770166.843787238,225030.121773585,8005.1294013321)
(-778241.457568589,217996.262428942,6456.67977479073)
(-794880.772413538,202135.166087613,-22288.9087210975)
(-818826.39392078,172551.948688822,-122600.069992562)
(-835767.061727997,118979.361823177,-430963.21455503)
(-753100.649265294,30669.1804591366,-1475024.90325621)
(7.17038426200604e-05,1.73244925767236e-05,-4.61145131524502e-05)