/*--------------------------------*- C++ -*----------------------------------*\
| =========                 |                                                 |
| \\      /  F ield         | foam-extend: Open Source Cstd::filesystem::create_directory();FD                    |
|  \\    /   O peration     | Version:     4.0                                |
|   \\  /    A nd           | Web:         http://www.foam-extend.org         |
|    \\/     M anipulation  |                                                 |
\*---------------------------------------------------------------------------*/
FoamFile
{
    version 2.0;
    format ascii;
    class volVectorField;
    location "Data/2417";
    object      H;
}
// * * * * * * * * * * * * * * * * * * * * * * * * * * * * * * * * * * * * * //

dimensions      [0 1 -1 0 0 0 0];

internalField   nonuniform List<vector>
4096
(
(0,0,0)
(0,0,0)
(0,0,0)
(0,0,0)
(0,0,0)
(0,0,0)
(0,0,0)
(0,0,0)
(0,0,0)
(0,0,0)
(0,0,0)
(0,0,0)
(0,0,0)
(0,0,0)
(0,0,0)
(0,0,0)
(0,0,0)
(0,0,0)
(0,0,0)
(0,0,0)
(0,0,0)
(0,0,0)
(0,0,0)
(0,0,0)
(0,0,0)
(0,0,0)
(0,0,0)
(0,0,0)
(0,0,0)
(0,0,0)
(0,0,0)
(0,0,0)
(0,0,0)
(0,0,0)
(0,0,0)
(0,0,0)
(0,0,0)
(0,0,0)
(0,0,0)
(0,0,0)
(0,0,0)
(0,0,0)
(0,0,0)
(0,0,0)
(0,0,0)
(0,0,0)
(0,0,0)
(0,0,0)
(0,0,0)
(0,0,0)
(0,0,0)
(0,0,0)
(0,0,0)
(0,0,0)
(0,0,0)
(0,0,0)
(0,0,0)
(0,0,0)
(0,0,0)
(0,0,0)
(0,0,0)
(0,0,0)
(0,0,0)
(0,0,0)
(0,0,0)
(0,0,0)
(0,0,0)
(0,0,0)
(0,0,0)
(0,0,0)
(0,0,0)
(0,0,0)
(0,0,0)
(0,0,0)
(0,0,0)
(0,0,0)
(0,0,0)
(0,0,0)
(0,0,0)
(0,0,0)
(0,0,0)
(0,0,0)
(0,0,0)
(0,0,0)
(0,0,0)
(0,0,0)
(0,0,0)
(0,0,0)
(0,0,0)
(0,0,0)
(0,0,0)
(0,0,0)
(0,0,0)
(0,0,0)
(0,0,0)
(0,0,0)
(0,0,0)
(0,0,0)
(0,0,0)
(0,0,0)
(0,0,0)
(0,0,0)
(0,0,0)
(0,0,0)
(0,0,0)
(0,0,0)
(0,0,0)
(0,0,0)
(0,0,0)
(0,0,0)
(0,0,0)
(0,0,0)
(0,0,0)
(0,0,0)
(0,0,0)
(0,0,0)
(0,0,0)
(0,0,0)
(0,0,0)
(0,0,0)
(0,0,0)
(0,0,0)
(0,0,0)
(0,0,0)
(0,0,0)
(0,0,0)
(0,0,0)
(0,0,0)
(0,0,0)
(0,0,0)
(0,0,0)
(0,0,0)
(0,0,0)
(0,0,0)
(0,0,0)
(0,0,0)
(0,0,0)
(0,0,0)
(0,0,0)
(0,0,0)
(0,0,0)
(0,0,0)
(0,0,0)
(0,0,0)
(0,0,0)
(0,0,0)
(0,0,0)
(0,0,0)
(0,0,0)
(0,0,0)
(0,0,0)
(0,0,0)
(0,0,0)
(0,0,0)
(0,0,0)
(0,0,0)
(0,0,0)
(0,0,0)
(0,0,0)
(0,0,0)
(0,0,0)
(0,0,0)
(0,0,0)
(0,0,0)
(0,0,0)
(0,0,0)
(0,0,0)
(0,0,0)
(0,0,0)
(0,0,0)
(0,0,0)
(0,0,0)
(0,0,0)
(0,0,0)
(0,0,0)
(0,0,0)
(0,0,0)
(0,0,0)
(0,0,0)
(0,0,0)
(0,0,0)
(0,0,0)
(0,0,0)
(0,0,0)
(0,0,0)
(0,0,0)
(0,0,0)
(0,0,0)
(0,0,0)
(0,0,0)
(0,0,0)
(0,0,0)
(0,0,0)
(0,0,0)
(0,0,0)
(0,0,0)
(0,0,0)
(0,0,0)
(0,0,0)
(0,0,0)
(0,0,0)
(0,0,0)
(0,0,0)
(0,0,0)
(0,0,0)
(0,0,0)
(0,0,0)
(0,0,0)
(0,0,0)
(0,0,0)
(0,0,0)
(0,0,0)
(0,0,0)
(0,0,0)
(0,0,0)
(0,0,0)
(0,0,0)
(0,0,0)
(0,0,0)
(0,0,0)
(0,0,0)
(0,0,0)
(0,0,0)
(0,0,0)
(0,0,0)
(0,0,0)
(0,0,0)
(0,0,0)
(0,0,0)
(0,0,0)
(0,0,0)
(0,0,0)
(0,0,0)
(0,0,0)
(0,0,0)
(0,0,0)
(0,0,0)
(0,0,0)
(0,0,0)
(0,0,0)
(0,0,0)
(0,0,0)
(0,0,0)
(0,0,0)
(0,0,0)
(0,0,0)
(0,0,0)
(0,0,0)
(0,0,0)
(0,0,0)
(0,0,0)
(0,0,0)
(0,0,0)
(0,0,0)
(0,0,0)
(0,0,0)
(0,0,0)
(0,0,0)
(0,0,0)
(0,0,0)
(0,0,0)
(0,0,0)
(0,0,0)
(0,0,0)
(0,0,0)
(0,0,0)
(0,0,0)
(0,0,0)
(0,0,0)
(0,0,0)
(0,0,0)
(0,0,0)
(0,0,0)
(0,0,0)
(0,0,0)
(0,0,0)
(0,0,0)
(0,0,0)
(0,0,0)
(0,0,0)
(0,0,0)
(0,0,0)
(0,0,0)
(0,0,0)
(0,0,0)
(0,0,0)
(0,0,0)
(0,0,0)
(0,0,0)
(0,0,0)
(0,0,0)
(0,0,0)
(0,0,0)
(0,0,0)
(0,0,0)
(0,0,0)
(0,0,0)
(0,0,0)
(0,0,0)
(0,0,0)
(0,0,0)
(0,0,0)
(0,0,0)
(0,0,0)
(0,0,0)
(0,0,0)
(0,0,0)
(0,0,0)
(0,0,0)
(0,0,0)
(0,0,0)
(0,0,0)
(0,0,0)
(0,0,0)
(0,0,0)
(0,0,0)
(0,0,0)
(0,0,0)
(0,0,0)
(0,0,0)
(0,0,0)
(0,0,0)
(0,0,0)
(0,0,0)
(0,0,0)
(0,0,0)
(0,0,0)
(0,0,0)
(0,0,0)
(0,0,0)
(0,0,0)
(0,0,0)
(0,0,0)
(0,0,0)
(0,0,0)
(0,0,0)
(0,0,0)
(0,0,0)
(0,0,0)
(0,0,0)
(0,0,0)
(0,0,0)
(0,0,0)
(0,0,0)
(0,0,0)
(0,0,0)
(0,0,0)
(0,0,0)
(0,0,0)
(0,0,0)
(0,0,0)
(0,0,0)
(0,0,0)
(0,0,0)
(0,0,0)
(0,0,0)
(0,0,0)
(0,0,0)
(0,0,0)
(0,0,0)
(0,0,0)
(0,0,0)
(0,0,0)
(0,0,0)
(0,0,0)
(0,0,0)
(0,0,0)
(0,0,0)
(0,0,0)
(0,0,0)
(0,0,0)
(0,0,0)
(0,0,0)
(0,0,0)
(0,0,0)
(0,0,0)
(0,0,0)
(0,0,0)
(0,0,0)
(0,0,0)
(0,0,0)
(0,0,0)
(0,0,0)
(0,0,0)
(0,0,0)
(0,0,0)
(0,0,0)
(0,0,0)
(0,0,0)
(0,0,0)
(0,0,0)
(0,0,0)
(0,0,0)
(0,0,0)
(0,0,0)
(0,0,0)
(0,0,0)
(0,0,0)
(0,0,0)
(0,0,0)
(0,0,0)
(0,0,0)
(0,0,0)
(0,0,0)
(0,0,0)
(0,0,0)
(0,0,0)
(0,0,0)
(0,0,0)
(0,0,0)
(0,0,0)
(0,0,0)
(0,0,0)
(0,0,0)
(0,0,0)
(0,0,0)
(0,0,0)
(0,0,0)
(0,0,0)
(0,0,0)
(0,0,0)
(0,0,0)
(0,0,0)
(0,0,0)
(0,0,0)
(0,0,0)
(0,0,0)
(0,0,0)
(0,0,0)
(0,0,0)
(0,0,0)
(0,0,0)
(0,0,0)
(0,0,0)
(0,0,0)
(0,0,0)
(0,0,0)
(0,0,0)
(0,0,0)
(0,0,0)
(0,0,0)
(0,0,0)
(0,0,0)
(0,0,0)
(0,0,0)
(0,0,0)
(0,0,0)
(0,0,0)
(0,0,0)
(0,0,0)
(0,0,0)
(0,0,0)
(0,0,0)
(0,0,0)
(0,0,0)
(0,0,0)
(0,0,0)
(0,0,0)
(0,0,0)
(0,0,0)
(0,0,0)
(0,0,0)
(0,0,0)
(0,0,0)
(0,0,0)
(0,0,0)
(0,0,0)
(0,0,0)
(0,0,0)
(0,0,0)
(0,0,0)
(0,0,0)
(0,0,0)
(0,0,0)
(0,0,0)
(0,0,0)
(0,0,0)
(0,0,0)
(0,0,0)
(0,0,0)
(0,0,0)
(0,0,0)
(0,0,0)
(0,0,0)
(0,0,0)
(0,0,0)
(0,0,0)
(0,0,0)
(0,0,0)
(0,0,0)
(0,0,0)
(0,0,0)
(0,0,0)
(0,0,0)
(0,0,0)
(0,0,0)
(0,0,0)
(0,0,0)
(0,0,0)
(0,0,0)
(0,0,0)
(0,0,0)
(0,0,0)
(0,0,0)
(0,0,0)
(0,0,0)
(0,0,0)
(0,0,0)
(0,0,0)
(0,0,0)
(0,0,0)
(0,0,0)
(0,0,0)
(0,0,0)
(0,0,0)
(0,0,0)
(0,0,0)
(0,0,0)
(0,0,0)
(0,0,0)
(0,0,0)
(0,0,0)
(0,0,0)
(0,0,0)
(0,0,0)
(0,0,0)
(0,0,0)
(0,0,0)
(0,0,0)
(0,0,0)
(0,0,0)
(0,0,0)
(0,0,0)
(0,0,0)
(0,0,0)
(0,0,0)
(0,0,0)
(0,0,0)
(0,0,0)
(0,0,0)
(0,0,0)
(0,0,0)
(0,0,0)
(0,0,0)
(0,0,0)
(0,0,0)
(0,0,0)
(0,0,0)
(0,0,0)
(0,0,0)
(0,0,0)
(0,0,0)
(0,0,0)
(0,0,0)
(0,0,0)
(0,0,0)
(0,0,0)
(0,0,0)
(0,0,0)
(0,0,0)
(0,0,0)
(0,0,0)
(0,0,0)
(0,0,0)
(0,0,0)
(0,0,0)
(0,0,0)
(0,0,0)
(0,0,0)
(0,0,0)
(0,0,0)
(0,0,0)
(0,0,0)
(0,0,0)
(0,0,0)
(0,0,0)
(0,0,0)
(0,0,0)
(0,0,0)
(0,0,0)
(0,0,0)
(0,0,0)
(0,0,0)
(0,0,0)
(0,0,0)
(0,0,0)
(0,0,0)
(0,0,0)
(0,0,0)
(0,0,0)
(0,0,0)
(0,0,0)
(0,0,0)
(0,0,0)
(0,0,0)
(0,0,0)
(0,0,0)
(0,0,0)
(0,0,0)
(0,0,0)
(0,0,0)
(0,0,0)
(0,0,0)
(0,0,0)
(0,0,0)
(0,0,0)
(0,0,0)
(0,0,0)
(0,0,0)
(0,0,0)
(0,0,0)
(0,0,0)
(0,0,0)
(0,0,0)
(0,0,0)
(0,0,0)
(0,0,0)
(0,0,0)
(0,0,0)
(0,0,0)
(0,0,0)
(0,0,0)
(0,0,0)
(0,0,0)
(0,0,0)
(0,0,0)
(0,0,0)
(0,0,0)
(0,0,0)
(0,0,0)
(0,0,0)
(0,0,0)
(0,0,0)
(0,0,0)
(0,0,0)
(0,0,0)
(0,0,0)
(0,0,0)
(0,0,0)
(0,0,0)
(0,0,0)
(0,0,0)
(0,0,0)
(0,0,0)
(0,0,0)
(0,0,0)
(0,0,0)
(0,0,0)
(0,0,0)
(0,0,0)
(0,0,0)
(0,0,0)
(0,0,0)
(0,0,0)
(0,0,0)
(0,0,0)
(0,0,0)
(0,0,0)
(0,0,0)
(0,0,0)
(0,0,0)
(0,0,0)
(0,0,0)
(0,0,0)
(0,0,0)
(0,0,0)
(0,0,0)
(0,0,0)
(0,0,0)
(0,0,0)
(0,0,0)
(0,0,0)
(0,0,0)
(0,0,0)
(0,0,0)
(0,0,0)
(0,0,0)
(0,0,0)
(0,0,0)
(0,0,0)
(0,0,0)
(0,0,0)
(0,0,0)
(0,0,0)
(0,0,0)
(0,0,0)
(0,0,0)
(0,0,0)
(0,0,0)
(0,0,0)
(0,0,0)
(0,0,0)
(0,0,0)
(0,0,0)
(0,0,0)
(0,0,0)
(0,0,0)
(0,0,0)
(0,0,0)
(0,0,0)
(0,0,0)
(0,0,0)
(0,0,0)
(0,0,0)
(0,0,0)
(0,0,0)
(0,0,0)
(0,0,0)
(0,0,0)
(0,0,0)
(0,0,0)
(0,0,0)
(0,0,0)
(0,0,0)
(0,0,0)
(0,0,0)
(0,0,0)
(0,0,0)
(0,0,0)
(0,0,0)
(0,0,0)
(0,0,0)
(0,0,0)
(0,0,0)
(0,0,0)
(0,0,0)
(0,0,0)
(0,0,0)
(0,0,0)
(0,0,0)
(0,0,0)
(0,0,0)
(0,0,0)
(0,0,0)
(0,0,0)
(0,0,0)
(0,0,0)
(0,0,0)
(0,0,0)
(0,0,0)
(0,0,0)
(0,0,0)
(0,0,0)
(0,0,0)
(0,0,0)
(0,0,0)
(0,0,0)
(0,0,0)
(0,0,0)
(0,0,0)
(0,0,0)
(0,0,0)
(0,0,0)
(0,0,0)
(0,0,0)
(0,0,0)
(0,0,0)
(0,0,0)
(0,0,0)
(0,0,0)
(0,0,0)
(0,0,0)
(0,0,0)
(0,0,0)
(0,0,0)
(0,0,0)
(0,0,0)
(0,0,0)
(0,0,0)
(0,0,0)
(0,0,0)
(0,0,0)
(0,0,0)
(0,0,0)
(0,0,0)
(0,0,0)
(0,0,0)
(0,0,0)
(0,0,0)
(0,0,0)
(0,0,0)
(0,0,0)
(0,0,0)
(0,0,0)
(0,0,0)
(0,0,0)
(0,0,0)
(0,0,0)
(0,0,0)
(0,0,0)
(0,0,0)
(0,0,0)
(0,0,0)
(0,0,0)
(0,0,0)
(0,0,0)
(0,0,0)
(0,0,0)
(0,0,0)
(0,0,0)
(0,0,0)
(0,0,0)
(0,0,0)
(0,0,0)
(0,0,0)
(0,0,0)
(0,0,0)
(0,0,0)
(0,0,0)
(0,0,0)
(0,0,0)
(0,0,0)
(0,0,0)
(0,0,0)
(0,0,0)
(0,0,0)
(0,0,0)
(0,0,0)
(0,0,0)
(-3.73771982115408e-13,1.14928321352644e-11,-1.22601711121873e-11)
(7.98547966884194e-14,2.43209627435312e-11,-1.19596170887268e-11)
(-2.04877560217924e-13,4.14483209420557e-11,-1.09322356825403e-11)
(7.82160977834456e-13,6.58516302816588e-11,-9.39200124103854e-12)
(2.09080185358122e-12,1.02833869071507e-10,-6.8715601383365e-12)
(1.68388287481033e-12,1.62258161944737e-10,-4.10074195459612e-12)
(-1.91501640780902e-13,2.60372168443629e-10,-2.10932249488677e-12)
(-1.78785278852998e-12,4.24817095751195e-10,-1.16872148415305e-12)
(-3.1901997968662e-12,6.95602390419332e-10,-1.8475905436805e-13)
(-5.9615806515007e-12,1.07436750563987e-09,3.88603402513837e-13)
(0,0,0)
(0,0,0)
(0,0,0)
(0,0,0)
(0,0,0)
(0,0,0)
(-6.82635382010493e-14,1.10511687526604e-11,-2.65597582677805e-11)
(1.66575681521035e-12,2.33796991633222e-11,-2.58929376140501e-11)
(1.31687938082e-12,3.96999012581851e-11,-2.4036503336668e-11)
(2.72805147229538e-12,6.33223096639521e-11,-2.11072849688128e-11)
(3.46837292756521e-12,1.00419268797998e-10,-1.68570152278497e-11)
(2.05187864914708e-12,1.60346871122417e-10,-1.16874308512422e-11)
(-7.28435292801194e-13,2.59506839991175e-10,-6.81382011434499e-12)
(-4.86221326608563e-12,4.24370677745949e-10,-3.90530600121133e-12)
(-8.10271331803582e-12,6.95599014961413e-10,-2.0429998115497e-12)
(-1.14453721199188e-11,1.07480050844778e-09,-7.25516225407778e-13)
(0,0,0)
(0,0,0)
(0,0,0)
(0,0,0)
(0,0,0)
(0,0,0)
(-9.81424880262868e-13,1.04014207964786e-11,-4.54441466918014e-11)
(6.5224413828336e-13,2.20667245365826e-11,-4.41639066197054e-11)
(4.07889826034901e-13,3.70003414716586e-11,-4.13158479013742e-11)
(2.27282324632327e-12,5.93863503468228e-11,-3.71352903834916e-11)
(2.39480102263414e-12,9.5970546198111e-11,-3.13231150578617e-11)
(-2.29954847285614e-13,1.56207233952971e-10,-2.39659865481929e-11)
(-4.42794962891849e-12,2.57267821772482e-10,-1.66122352506175e-11)
(-1.0472277175394e-11,4.23565630443512e-10,-1.14215987824196e-11)
(-1.46071824661948e-11,6.95454356692428e-10,-7.56410585209012e-12)
(-1.84208386309585e-11,1.07465308859342e-09,-3.83714492895951e-12)
(0,0,0)
(0,0,0)
(0,0,0)
(0,0,0)
(0,0,0)
(0,0,0)
(-1.56319548945407e-12,8.70728443669482e-12,-7.1016367020217e-11)
(-5.81543425428691e-13,1.91035247641906e-11,-6.95092256135229e-11)
(-4.10328188255516e-13,3.24152282381386e-11,-6.64713296262388e-11)
(1.1036672362227e-12,5.30166999943076e-11,-6.1888915423715e-11)
(8.45362902194792e-13,8.82763950123747e-11,-5.53993701116422e-11)
(-2.54673025883495e-12,1.48452084200489e-10,-4.68088906885212e-11)
(-8.89636539750973e-12,2.52030536958779e-10,-3.77508730256804e-11)
(-1.61670181146452e-11,4.21200357844736e-10,-2.91225552211659e-11)
(-2.12925002269725e-11,6.93836478187888e-10,-2.02148057009526e-11)
(-2.51615368850681e-11,1.07247021104849e-09,-1.03918893504684e-11)
(0,0,0)
(0,0,0)
(0,0,0)
(0,0,0)
(0,0,0)
(0,0,0)
(-1.07042969466594e-12,6.65447637546994e-12,-1.07725842591735e-10)
(-1.58706626692749e-13,1.54491883779975e-11,-1.06922840402019e-10)
(-3.96384560808335e-13,2.70180680737214e-11,-1.04704804127353e-10)
(-1.76876839550045e-13,4.53075669372767e-11,-1.00636600836013e-10)
(-1.28092410189066e-12,7.81967980868759e-11,-9.4488880060235e-11)
(-5.4189993490214e-12,1.37300947144155e-10,-8.6384325708215e-11)
(-1.30741697915198e-11,2.42056199096076e-10,-7.68811019335906e-11)
(-2.01765559265136e-11,4.14531715720213e-10,-6.23913824347218e-11)
(-2.56124485275324e-11,6.87307881282515e-10,-4.3916390927646e-11)
(-2.87112473924102e-11,1.06510085134414e-09,-2.26782176441682e-11)
(0,0,0)
(0,0,0)
(0,0,0)
(0,0,0)
(0,0,0)
(0,0,0)
(-5.4005132544913e-13,5.03293052948839e-12,-1.65360950371984e-10)
(-2.60928188192443e-13,1.19634680084537e-11,-1.6512219284895e-10)
(-5.23169645395012e-13,2.12499466178635e-11,-1.63612412408799e-10)
(-8.63424528393143e-13,3.69825485989828e-11,-1.60663192572197e-10)
(-3.43768181906474e-12,6.72724110919066e-11,-1.55525574095665e-10)
(-8.08240567649409e-12,1.24615563366095e-10,-1.47591012007657e-10)
(-1.48875502494714e-11,2.2975656606619e-10,-1.3543908687799e-10)
(-2.04390158006394e-11,4.00741963371045e-10,-1.14188345176242e-10)
(-2.54331337733052e-11,6.70580719727962e-10,-8.25583535831701e-11)
(-2.87474758389937e-11,1.04626325024949e-09,-4.36095877636069e-11)
(0,0,0)
(0,0,0)
(0,0,0)
(0,0,0)
(0,0,0)
(0,0,0)
(2.4159867867102e-13,4.23665903457234e-12,-2.61270073300489e-10)
(4.51791988205299e-13,9.49663821524234e-12,-2.61032915219464e-10)
(-1.06937742734696e-13,1.67511589525043e-11,-2.59842599309118e-10)
(-7.51846080554968e-13,2.98973594121415e-11,-2.57742416038501e-10)
(-4.3462054141937e-12,5.67067075155487e-11,-2.53155873514347e-10)
(-9.7613321382028e-12,1.09734149582573e-10,-2.43993741066202e-10)
(-1.47374777025706e-11,2.10639242070335e-10,-2.25926123043536e-10)
(-1.80714189849707e-11,3.73739699331264e-10,-1.95550390664868e-10)
(-2.25703714450163e-11,6.3549131579372e-10,-1.45543994764801e-10)
(-2.62714785099067e-11,1.00559158727911e-09,-7.88785231651065e-11)
(0,0,0)
(0,0,0)
(0,0,0)
(0,0,0)
(0,0,0)
(0,0,0)
(7.46719229789399e-13,3.62704703702196e-12,-4.23081394337777e-10)
(1.71556018923469e-12,7.65706032573998e-12,-4.22318811651179e-10)
(2.05316475635528e-12,1.34777270498076e-11,-4.20842354972601e-10)
(1.14167623724819e-12,2.44833239938833e-11,-4.18348132764789e-10)
(-2.32059642219185e-12,4.73652675882072e-11,-4.12686631056627e-10)
(-6.48986398145909e-12,9.37383639907903e-11,-4.01250810960192e-10)
(-1.0365948360993e-11,1.81257701680768e-10,-3.77608852465832e-10)
(-1.29961173840051e-11,3.26318760033258e-10,-3.32274719973409e-10)
(-1.63905185685898e-11,5.70937718103656e-10,-2.56457426249059e-10)
(-1.98761261331774e-11,9.27997698080561e-10,-1.45093538244531e-10)
(0,0,0)
(0,0,0)
(0,0,0)
(0,0,0)
(0,0,0)
(0,0,0)
(3.5229448856177e-13,2.69207838952012e-12,-6.92995212597654e-10)
(1.77026756776499e-12,5.78298280279506e-12,-6.91845416992922e-10)
(2.96503836204649e-12,1.00609375329491e-11,-6.896577900935e-10)
(2.13967868964198e-12,1.80067566550594e-11,-6.85960823467188e-10)
(-3.69333908117124e-13,3.49543884970374e-11,-6.78673823764639e-10)
(-3.7844911336677e-12,7.02054735043432e-11,-6.63859402276853e-10)
(-7.29744945750234e-12,1.36324300762174e-10,-6.32631368470905e-10)
(-1.05373988593888e-11,2.52201472772688e-10,-5.71190059984047e-10)
(-1.37690875429412e-11,4.61089381152252e-10,-4.61528692975399e-10)
(-1.62713711579867e-11,7.83638619674985e-10,-2.77198547426757e-10)
(0,0,0)
(0,0,0)
(0,0,0)
(0,0,0)
(0,0,0)
(0,0,0)
(-7.12275816897139e-13,1.52009269653509e-12,-1.07131022401211e-09)
(6.47766758213378e-13,3.22643801692985e-12,-1.07007848923017e-09)
(2.7756270236134e-12,5.54511031870491e-12,-1.06721192610132e-09)
(2.97830572827281e-12,9.74683535667184e-12,-1.06239054986328e-09)
(1.87283539216962e-12,1.86347798887524e-11,-1.05367768457464e-09)
(-1.00534599517033e-12,3.79042224736169e-11,-1.03641069345562e-09)
(-4.79177648603254e-12,7.47234191121627e-11,-9.99947358898359e-10)
(-9.04712898592914e-12,1.43238293525864e-10,-9.25704395430197e-10)
(-1.2690048299983e-11,2.77222148106029e-10,-7.82198431570299e-10)
(-1.53548986823575e-11,5.06312990017771e-10,-5.05302033712901e-10)
(0,0,0)
(0,0,0)
(0,0,0)
(0,0,0)
(0,0,0)
(0,0,0)
(0,0,0)
(0,0,0)
(0,0,0)
(0,0,0)
(0,0,0)
(0,0,0)
(0,0,0)
(0,0,0)
(0,0,0)
(0,0,0)
(0,0,0)
(0,0,0)
(0,0,0)
(0,0,0)
(0,0,0)
(0,0,0)
(0,0,0)
(0,0,0)
(0,0,0)
(0,0,0)
(0,0,0)
(0,0,0)
(0,0,0)
(0,0,0)
(0,0,0)
(0,0,0)
(0,0,0)
(0,0,0)
(0,0,0)
(0,0,0)
(0,0,0)
(0,0,0)
(0,0,0)
(0,0,0)
(0,0,0)
(0,0,0)
(0,0,0)
(0,0,0)
(0,0,0)
(0,0,0)
(0,0,0)
(0,0,0)
(0,0,0)
(0,0,0)
(0,0,0)
(0,0,0)
(0,0,0)
(0,0,0)
(0,0,0)
(0,0,0)
(0,0,0)
(0,0,0)
(0,0,0)
(0,0,0)
(0,0,0)
(0,0,0)
(0,0,0)
(0,0,0)
(0,0,0)
(0,0,0)
(0,0,0)
(0,0,0)
(0,0,0)
(0,0,0)
(0,0,0)
(0,0,0)
(0,0,0)
(0,0,0)
(0,0,0)
(0,0,0)
(0,0,0)
(0,0,0)
(0,0,0)
(0,0,0)
(0,0,0)
(0,0,0)
(0,0,0)
(0,0,0)
(0,0,0)
(0,0,0)
(0,0,0)
(0,0,0)
(0,0,0)
(0,0,0)
(0,0,0)
(0,0,0)
(0,0,0)
(0,0,0)
(0,0,0)
(0,0,0)
(0,0,0)
(0,0,0)
(0,0,0)
(0,0,0)
(0,0,0)
(0,0,0)
(-2.32662622974048e-13,2.19130637342823e-11,-2.23889462017775e-11)
(-6.26302928891102e-15,4.68348128308045e-11,-2.16122192889177e-11)
(3.30768212876589e-15,7.86407648238523e-11,-1.97070514524139e-11)
(7.91040492837307e-13,1.23403560479557e-10,-1.68361201409049e-11)
(1.73458394328989e-12,1.89172722954758e-10,-1.22469439560759e-11)
(1.60375423743786e-12,2.91984668796216e-10,-6.75001406520452e-12)
(-2.66774198971325e-13,4.58172764031974e-10,-2.193761522844e-12)
(-2.32539721318731e-12,7.43440428360466e-10,-3.93488942202939e-13)
(-3.76018679619737e-12,1.28491705591135e-09,6.13158812098156e-13)
(-6.00598005742821e-12,2.52746361568116e-09,8.76440245941019e-13)
(0,0,0)
(0,0,0)
(0,0,0)
(0,0,0)
(0,0,0)
(0,0,0)
(-8.53362357488889e-14,2.10672275584447e-11,-4.99514801404051e-11)
(1.1222971645713e-12,4.51263283191672e-11,-4.82525341003901e-11)
(1.08722079949723e-12,7.56955662562134e-11,-4.41398903379694e-11)
(2.41374104845083e-12,1.18800637075728e-10,-3.79568410952526e-11)
(2.74751115085752e-12,1.84300319216004e-10,-2.8907819710366e-11)
(1.31790508167292e-12,2.88236942449224e-10,-1.7780145655874e-11)
(-1.3979311873575e-12,4.57359027587879e-10,-7.50430850224584e-12)
(-5.91947215305321e-12,7.44161779259811e-10,-2.73632340542912e-12)
(-9.2755386348285e-12,1.28665794953524e-09,-9.4635542931605e-13)
(-1.20234684907665e-11,2.53003462493069e-09,-2.7267570542207e-13)
(0,0,0)
(0,0,0)
(0,0,0)
(0,0,0)
(0,0,0)
(0,0,0)
(-5.67528592574315e-13,1.96940174790696e-11,-8.44947627034092e-11)
(7.67385192349436e-13,4.18376719564334e-11,-8.20170158140668e-11)
(8.12445541686082e-13,6.98987458328331e-11,-7.65304595962803e-11)
(2.83029827321814e-12,1.10005516340709e-10,-6.7786302607691e-11)
(2.73182369865343e-12,1.73691827809454e-10,-5.44911850915221e-11)
(1.71443607642003e-13,2.78512027461435e-10,-3.75287472180746e-11)
(-4.38130128342984e-12,4.53673780745133e-10,-2.10755154903459e-11)
(-1.19644975071443e-11,7.45065573530487e-10,-1.29317917561873e-11)
(-1.67162648850784e-11,1.28937096548889e-09,-8.99276225257949e-12)
(-2.00751060152205e-11,2.53282295507391e-09,-4.91319320216237e-12)
(0,0,0)
(0,0,0)
(0,0,0)
(0,0,0)
(0,0,0)
(0,0,0)
(-1.01752883492398e-12,1.68096230068157e-11,-1.29686261193712e-10)
(3.48969734772276e-14,3.60301133969841e-11,-1.27212827686828e-10)
(4.04417773630048e-13,6.02769804601006e-11,-1.21409555870523e-10)
(2.32325498118157e-12,9.5793222101273e-11,-1.11855103685962e-10)
(2.33448040455468e-12,1.55494615232749e-10,-9.71072912852694e-11)
(-4.53610865329784e-13,2.598328851676e-10,-7.72694451903294e-11)
(-7.55034533933348e-12,4.43737812700631e-10,-5.63951901617029e-11)
(-1.84061255102492e-11,7.44514391181382e-10,-4.24704907881945e-11)
(-2.45868196715557e-11,1.2901951311499e-09,-3.06662107543819e-11)
(-2.81840665303552e-11,2.53225863516111e-09,-1.635920134429e-11)
(0,0,0)
(0,0,0)
(0,0,0)
(0,0,0)
(0,0,0)
(0,0,0)
(-2.51886038400133e-13,1.32129840171823e-11,-1.93616302863335e-10)
(1.10897746818321e-12,2.88237643565142e-11,-1.92194942988485e-10)
(1.30353360370927e-12,4.84793632198289e-11,-1.87622853153628e-10)
(2.00042072296015e-12,7.80688739708204e-11,-1.79375709955034e-10)
(1.53890854106523e-12,1.3104861840745e-10,-1.6724511684373e-10)
(-2.23683934557872e-12,2.30931718005304e-10,-1.52388988433561e-10)
(-1.52642562605075e-11,4.20177129344417e-10,-1.39816288324085e-10)
(-2.48617950842086e-11,7.37268047507818e-10,-1.09448336317405e-10)
(-3.01234602565643e-11,1.28267621248388e-09,-7.64176834137815e-11)
(-3.2551863942486e-11,2.52172531348859e-09,-3.95643379512696e-11)
(0,0,0)
(0,0,0)
(0,0,0)
(0,0,0)
(0,0,0)
(0,0,0)
(1.74626464329202e-14,1.03376167919481e-11,-2.94290055550287e-10)
(6.96121164865696e-13,2.21534511436956e-11,-2.93536831130856e-10)
(1.02639818335669e-12,3.67648785599095e-11,-2.90458703660683e-10)
(1.08414618192935e-12,6.05820342533699e-11,-2.84729713633973e-10)
(-8.06540330700748e-13,1.06959045288254e-10,-2.76064382749404e-10)
(-5.35291702268677e-12,2.03546304896254e-10,-2.64068285632037e-10)
(-1.70209679553244e-11,4.02010465392424e-10,-2.47609948027501e-10)
(-2.5066743353924e-11,7.16615298933349e-10,-2.06888602484312e-10)
(-2.92924956586909e-11,1.25490716074394e-09,-1.48313574403638e-10)
(-3.16854006319588e-11,2.48882113756854e-09,-7.79118857012013e-11)
(0,0,0)
(0,0,0)
(0,0,0)
(0,0,0)
(0,0,0)
(0,0,0)
(6.14052595195504e-13,8.18435398973398e-12,-4.58169094488879e-10)
(1.10105396736298e-12,1.68494007245488e-11,-4.57236687010369e-10)
(1.0663108893465e-12,2.73798202051954e-11,-4.54913510546788e-10)
(7.56468135395852e-14,4.59095528869263e-11,-4.51688001751135e-10)
(-4.16689793497514e-12,8.49222725405471e-11,-4.46536070009417e-10)
(-1.18331645690571e-11,1.72307667615962e-10,-4.35759493384189e-10)
(-1.57316696916623e-11,3.69474095902523e-10,-4.029130688771e-10)
(-2.0656875587122e-11,6.69223115619783e-10,-3.5343000048085e-10)
(-2.46822453549159e-11,1.19251258539218e-09,-2.60573028741355e-10)
(-2.75561124760008e-11,2.41638428110082e-09,-1.40155774605534e-10)
(0,0,0)
(0,0,0)
(0,0,0)
(0,0,0)
(0,0,0)
(0,0,0)
(9.1910519069329e-13,6.43526667383229e-12,-7.39002268400316e-10)
(2.11318103360221e-12,1.29215479477939e-11,-7.3766109674216e-10)
(2.97573206540544e-12,2.11185092124172e-11,-7.35338394473365e-10)
(1.95674186791194e-12,3.68172304848996e-11,-7.31837718952391e-10)
(-1.34553742748521e-12,7.25045114862256e-11,-7.25385004861631e-10)
(-6.59893198934174e-12,1.53430692791956e-10,-7.11681471727319e-10)
(-1.07666799347884e-11,3.20192119491721e-10,-6.75219006092821e-10)
(-1.46961238479566e-11,5.80344220552817e-10,-5.93478795413111e-10)
(-1.79060696215631e-11,1.0760280580129e-09,-4.56447019265721e-10)
(-2.06105859727598e-11,2.27913972588058e-09,-2.59225470468571e-10)
(0,0,0)
(0,0,0)
(0,0,0)
(0,0,0)
(0,0,0)
(0,0,0)
(3.7448457681452e-13,4.55402112091525e-12,-1.28005518132692e-09)
(2.1391854542093e-12,9.52611910359866e-12,-1.27788303212192e-09)
(3.78389894997971e-12,1.55583317278826e-11,-1.27378386034842e-09)
(3.11260028548512e-12,2.75243642882525e-11,-1.26796388240871e-09)
(1.13585321239815e-12,5.59573255886764e-11,-1.25801564030641e-09)
(-2.71127390891042e-12,1.18289859677408e-10,-1.2363439210739e-09)
(-7.13787629434548e-12,2.38417730729856e-10,-1.18524202838091e-09)
(-1.12355866212265e-11,4.45310723382733e-10,-1.07725535015839e-09)
(-1.42320000453849e-11,8.81186049251934e-10,-8.84589276831026e-10)
(-1.61442889274781e-11,2.02188729976794e-09,-5.52729302556198e-10)
(0,0,0)
(0,0,0)
(0,0,0)
(0,0,0)
(0,0,0)
(0,0,0)
(-4.23917902306247e-13,2.53719689367804e-12,-2.52313301670902e-09)
(1.00764164629706e-12,5.36320065558771e-12,-2.52028893287629e-09)
(3.49936110427366e-12,8.73999084309624e-12,-2.5146534906663e-09)
(4.01227579630472e-12,1.53022403396265e-11,-2.50674143522492e-09)
(3.2406241618929e-12,3.08430321414539e-11,-2.49373738784083e-09)
(4.35541921176834e-13,6.46538273259021e-11,-2.46603411494728e-09)
(-4.31132084204239e-12,1.29546158436159e-10,-2.40427044266538e-09)
(-9.31479931991843e-12,2.53358628720749e-10,-2.27584159238404e-09)
(-1.23642980513497e-11,5.50370609397523e-10,-2.02207999425683e-09)
(-1.43439423773991e-11,1.47039318899508e-09,-1.47115002672504e-09)
(0,0,0)
(0,0,0)
(0,0,0)
(0,0,0)
(0,0,0)
(0,0,0)
(0,0,0)
(0,0,0)
(0,0,0)
(0,0,0)
(0,0,0)
(0,0,0)
(0,0,0)
(0,0,0)
(0,0,0)
(0,0,0)
(0,0,0)
(0,0,0)
(0,0,0)
(0,0,0)
(0,0,0)
(0,0,0)
(0,0,0)
(0,0,0)
(0,0,0)
(0,0,0)
(0,0,0)
(0,0,0)
(0,0,0)
(0,0,0)
(0,0,0)
(0,0,0)
(0,0,0)
(0,0,0)
(0,0,0)
(0,0,0)
(0,0,0)
(0,0,0)
(0,0,0)
(0,0,0)
(0,0,0)
(0,0,0)
(0,0,0)
(0,0,0)
(0,0,0)
(0,0,0)
(0,0,0)
(0,0,0)
(0,0,0)
(0,0,0)
(0,0,0)
(0,0,0)
(0,0,0)
(0,0,0)
(0,0,0)
(0,0,0)
(0,0,0)
(0,0,0)
(0,0,0)
(0,0,0)
(0,0,0)
(0,0,0)
(0,0,0)
(0,0,0)
(0,0,0)
(0,0,0)
(0,0,0)
(0,0,0)
(0,0,0)
(0,0,0)
(0,0,0)
(0,0,0)
(0,0,0)
(0,0,0)
(0,0,0)
(0,0,0)
(0,0,0)
(0,0,0)
(0,0,0)
(0,0,0)
(0,0,0)
(0,0,0)
(0,0,0)
(0,0,0)
(0,0,0)
(0,0,0)
(0,0,0)
(0,0,0)
(0,0,0)
(0,0,0)
(0,0,0)
(0,0,0)
(0,0,0)
(0,0,0)
(0,0,0)
(0,0,0)
(0,0,0)
(0,0,0)
(0,0,0)
(0,0,0)
(0,0,0)
(0,0,0)
(-1.63553360051535e-13,3.00270191839413e-11,-3.01876169213798e-11)
(-2.02946354491787e-13,6.40817057199293e-11,-2.89171556898486e-11)
(7.75749390372958e-14,1.06153275252397e-10,-2.63112577230216e-11)
(8.04787711895197e-13,1.63895493929984e-10,-2.16190567139105e-11)
(1.11005779080871e-12,2.46208738264227e-10,-1.40775017835967e-11)
(7.9522804215257e-13,3.66446676049678e-10,-4.83988015622827e-12)
(-1.25331033552934e-12,5.43851421645838e-10,3.18925349757475e-12)
(-4.05339586725414e-12,8.04737596595203e-10,5.36356551570909e-12)
(-5.76436185371938e-12,1.1744358846712e-09,4.63137348887089e-12)
(-7.7005490613114e-12,1.62576733527385e-09,2.83642396503712e-12)
(0,0,0)
(0,0,0)
(0,0,0)
(0,0,0)
(0,0,0)
(0,0,0)
(-4.11072196673426e-13,2.85093456909414e-11,-6.68773564218892e-11)
(2.98309764353579e-13,6.14242971050308e-11,-6.45620429508309e-11)
(7.00991978934735e-13,1.01903579804075e-10,-5.88359338625292e-11)
(2.15984039927806e-12,1.57043150435068e-10,-4.89488167896766e-11)
(2.22832850333702e-12,2.3807512741518e-10,-3.3513105809406e-11)
(7.6698291566684e-13,3.59874891396182e-10,-1.33072301602268e-11)
(-2.48066944260069e-12,5.43393286548165e-10,5.90991105346326e-12)
(-8.61323439831361e-12,8.08057844131785e-10,1.04574593304005e-11)
(-1.26622343127429e-11,1.17892299267832e-09,7.66008352541451e-12)
(-1.50844743388872e-11,1.63064688164266e-09,3.68386746185169e-12)
(0,0,0)
(0,0,0)
(0,0,0)
(0,0,0)
(0,0,0)
(0,0,0)
(-1.60881011777465e-13,2.59522005175083e-11,-1.11997784245547e-10)
(1.08838753521078e-12,5.58420999584971e-11,-1.08816359606464e-10)
(1.69005392645906e-12,9.25147623554298e-11,-1.00972882157296e-10)
(3.74747499590212e-12,1.42293665544392e-10,-8.68670437838385e-11)
(3.96659840204457e-12,2.19236118937867e-10,-6.37214670307712e-11)
(2.39735417347061e-12,3.4234451141263e-10,-3.05277474990248e-11)
(-2.58905697203447e-12,5.41081919598099e-10,5.46318130542048e-12)
(-1.53523446627497e-11,8.15745882341951e-10,9.69849970817309e-12)
(-2.16199995953956e-11,1.18817708384209e-09,3.60963270078947e-12)
(-2.4423979305298e-11,1.63892107708014e-09,1.58200552901609e-13)
(0,0,0)
(0,0,0)
(0,0,0)
(0,0,0)
(0,0,0)
(0,0,0)
(1.05676647223388e-13,2.20395777125822e-11,-1.7014122671953e-10)
(1.43797419876253e-12,4.73560632990248e-11,-1.66806958758736e-10)
(2.64758282860939e-12,7.76840939873851e-11,-1.58093715909633e-10)
(5.29979071030233e-12,1.19001204851287e-10,-1.42415998594761e-10)
(6.9426311353476e-12,1.86592234693173e-10,-1.16315067723926e-10)
(7.57330126806568e-12,3.05979051061827e-10,-7.50146595025486e-11)
(2.08563864358126e-12,5.32631368708952e-10,-2.01633168591128e-11)
(-2.29640618702532e-11,8.30064500764691e-10,-1.78023263872565e-11)
(-3.13749104153185e-11,1.20018302596912e-09,-2.03565264582993e-11)
(-3.40099462027114e-11,1.64589595645425e-09,-1.34513643263094e-11)
(0,0,0)
(0,0,0)
(0,0,0)
(0,0,0)
(0,0,0)
(0,0,0)
(1.2021213116082e-12,1.7331476729831e-11,-2.49254167280308e-10)
(3.20720084703244e-12,3.70931146435999e-11,-2.46948905510617e-10)
(4.77087506392097e-12,5.96528130466373e-11,-2.39483379048106e-10)
(7.35666732935e-12,8.98534444615733e-11,-2.26044310649095e-10)
(1.07723532510671e-11,1.40477697102523e-10,-2.05923938615838e-10)
(1.25758736530719e-11,2.36979311830614e-10,-1.81689689407353e-10)
(-2.74655443161426e-11,4.67108235770204e-10,-1.96828180454683e-10)
(-3.72396994133359e-11,8.44924726382384e-10,-1.28713847887732e-10)
(-3.92077539773992e-11,1.20550468132396e-09,-8.67705466395353e-11)
(-3.92120259742828e-11,1.6406047474599e-09,-4.52442927014096e-11)
(0,0,0)
(0,0,0)
(0,0,0)
(0,0,0)
(0,0,0)
(0,0,0)
(1.41750102925867e-12,1.36027298980365e-11,-3.66344873096198e-10)
(2.92204411363522e-12,2.7704998849952e-11,-3.64510429169184e-10)
(4.68246651117027e-12,4.2369570953771e-11,-3.59329169638714e-10)
(7.09129666524512e-12,6.20378167728851e-11,-3.50577610784653e-10)
(9.23413529853324e-12,9.78029521451403e-11,-3.38760697080341e-10)
(9.42738265301467e-12,1.867222127562e-10,-3.24458747700087e-10)
(-2.52059440080845e-11,4.74617814741007e-10,-3.33681948802231e-10)
(-3.62495881214288e-11,8.35664328370482e-10,-2.63929571254644e-10)
(-3.72996090088347e-11,1.1794060977831e-09,-1.82476929328456e-10)
(-3.71604298664396e-11,1.60388842543176e-09,-9.37685026923659e-11)
(0,0,0)
(0,0,0)
(0,0,0)
(0,0,0)
(0,0,0)
(0,0,0)
(1.43073243321474e-12,1.01959067978511e-11,-5.3994765353315e-10)
(2.70573027956255e-12,1.95419624381369e-11,-5.38268790955742e-10)
(4.10211308698592e-12,2.81550439732493e-11,-5.35378054766614e-10)
(4.01603747359232e-12,3.91054447036813e-11,-5.32899653630653e-10)
(-2.52571350554746e-12,5.7972503515001e-11,-5.34865241246328e-10)
(-2.58026142522395e-11,1.14395849062252e-10,-5.43438123399008e-10)
(-1.59327616768436e-11,4.43446234297664e-10,-4.77505651431112e-10)
(-2.46349522604565e-11,7.82897421525843e-10,-4.58206812212871e-10)
(-2.86149721108042e-11,1.10409395489915e-09,-3.1803378786693e-10)
(-3.04673318609936e-11,1.51705108740001e-09,-1.63482945822941e-10)
(0,0,0)
(0,0,0)
(0,0,0)
(0,0,0)
(0,0,0)
(0,0,0)
(1.45917908566673e-12,7.41539107560906e-12,-7.95250465157075e-10)
(3.18590760908451e-12,1.38795322392724e-11,-7.93329527379643e-10)
(5.03523402821482e-12,2.02220146186857e-11,-7.9105870320348e-10)
(4.79689397491045e-12,3.12049047471738e-11,-7.89713332274766e-10)
(1.4981153348508e-12,5.92570363473555e-11,-7.91588700545088e-10)
(-7.92056450895502e-12,1.45601312797544e-10,-7.96832130001413e-10)
(-1.07325018523624e-11,3.99387706104154e-10,-7.7910604343292e-10)
(-1.66944028264867e-11,6.46368034387911e-10,-6.64388165141966e-10)
(-2.0285609657295e-11,9.54277884738063e-10,-4.84565617461519e-10)
(-2.25836303280664e-11,1.35690558830882e-09,-2.61353768315151e-10)
(0,0,0)
(0,0,0)
(0,0,0)
(0,0,0)
(0,0,0)
(0,0,0)
(2.19159599055326e-13,4.97240701713346e-12,-1.16465877461448e-09)
(2.20293212874944e-12,9.95066429789693e-12,-1.16185171769261e-09)
(4.78226189558118e-12,1.50502755641648e-11,-1.1573959178822e-09)
(5.38648213165499e-12,2.55849844744447e-11,-1.15296130911969e-09)
(4.57842742768148e-12,5.41237715810028e-11,-1.14757442121248e-09)
(-1.77134250723464e-13,1.26982355211298e-10,-1.13306407677016e-09)
(-6.25298222306488e-12,2.80265284013829e-10,-1.08423721605843e-09)
(-1.19495652877805e-11,4.66862312477338e-10,-9.52915371894953e-10)
(-1.52765344651932e-11,7.32679363161866e-10,-7.38182400772885e-10)
(-1.73794807108884e-11,1.09736523359955e-09,-4.24142133282364e-10)
(0,0,0)
(0,0,0)
(0,0,0)
(0,0,0)
(0,0,0)
(0,0,0)
(-7.30804841966901e-13,2.59909862642247e-12,-1.61643410726817e-09)
(7.35400091532106e-13,5.56885387997289e-12,-1.61302270118227e-09)
(4.32729650635162e-12,8.70188312890539e-12,-1.60684840473344e-09)
(6.3104687516459e-12,1.51918248269977e-11,-1.59959335603114e-09)
(6.38038340999204e-12,3.22802828215589e-11,-1.58821703728563e-09)
(3.32569696454857e-12,7.18172477246558e-11,-1.56074459305147e-09)