/*--------------------------------*- C++ -*----------------------------------*\
| =========                 |                                                 |
| \\      /  F ield         | foam-extend: Open Source CFD                    |
|  \\    /   O peration     | Version:     4.0                                |
|   \\  /    A nd           | Web:         http://www.foam-extend.org         |
|    \\/     M anipulation  |                                                 |
\*---------------------------------------------------------------------------*/
FoamFile
{
    version 2.0;
    format ascii;
    class volVectorField;
    location "2119";
    object      H;
}
// * * * * * * * * * * * * * * * * * * * * * * * * * * * * * * * * * * * * * //

dimensions      [0 1 -1 0 0 0 0];

internalField   nonuniform List<vector>
4096
(
(0,0,0)
(0,0,0)
(0,0,0)
(0,0,0)
(0,0,0)
(0,0,0)
(0,0,0)
(0,0,0)
(0,0,0)
(0,0,0)
(0,0,0)
(0,0,0)
(0,0,0)
(0,0,0)
(0,0,0)
(0,0,0)
(0,0,0)
(0,0,0)
(0,0,0)
(0,0,0)
(0,0,0)
(0,0,0)
(0,0,0)
(0,0,0)
(0,0,0)
(0,0,0)
(0,0,0)
(0,0,0)
(0,0,0)
(0,0,0)
(0,0,0)
(0,0,0)
(0,0,0)
(0,0,0)
(0,0,0)
(0,0,0)
(0,0,0)
(0,0,0)
(0,0,0)
(0,0,0)
(0,0,0)
(0,0,0)
(0,0,0)
(0,0,0)
(0,0,0)
(0,0,0)
(0,0,0)
(0,0,0)
(0,0,0)
(0,0,0)
(0,0,0)
(0,0,0)
(0,0,0)
(0,0,0)
(0,0,0)
(0,0,0)
(0,0,0)
(0,0,0)
(0,0,0)
(0,0,0)
(0,0,0)
(0,0,0)
(0,0,0)
(0,0,0)
(0,0,0)
(0,0,0)
(0,0,0)
(0,0,0)
(0,0,0)
(0,0,0)
(0,0,0)
(0,0,0)
(0,0,0)
(0,0,0)
(0,0,0)
(0,0,0)
(0,0,0)
(0,0,0)
(0,0,0)
(0,0,0)
(0,0,0)
(0,0,0)
(0,0,0)
(0,0,0)
(0,0,0)
(0,0,0)
(0,0,0)
(0,0,0)
(0,0,0)
(0,0,0)
(0,0,0)
(0,0,0)
(0,0,0)
(0,0,0)
(0,0,0)
(0,0,0)
(0,0,0)
(0,0,0)
(0,0,0)
(0,0,0)
(0,0,0)
(0,0,0)
(0,0,0)
(0,0,0)
(0,0,0)
(0,0,0)
(0,0,0)
(0,0,0)
(0,0,0)
(0,0,0)
(0,0,0)
(0,0,0)
(0,0,0)
(0,0,0)
(0,0,0)
(0,0,0)
(0,0,0)
(0,0,0)
(0,0,0)
(0,0,0)
(0,0,0)
(0,0,0)
(0,0,0)
(0,0,0)
(0,0,0)
(0,0,0)
(0,0,0)
(0,0,0)
(0,0,0)
(0,0,0)
(0,0,0)
(0,0,0)
(0,0,0)
(0,0,0)
(0,0,0)
(0,0,0)
(0,0,0)
(0,0,0)
(0,0,0)
(0,0,0)
(0,0,0)
(0,0,0)
(0,0,0)
(0,0,0)
(0,0,0)
(0,0,0)
(0,0,0)
(0,0,0)
(0,0,0)
(0,0,0)
(0,0,0)
(0,0,0)
(0,0,0)
(0,0,0)
(0,0,0)
(0,0,0)
(0,0,0)
(0,0,0)
(0,0,0)
(0,0,0)
(0,0,0)
(0,0,0)
(0,0,0)
(0,0,0)
(0,0,0)
(0,0,0)
(0,0,0)
(0,0,0)
(0,0,0)
(0,0,0)
(0,0,0)
(0,0,0)
(0,0,0)
(0,0,0)
(0,0,0)
(0,0,0)
(0,0,0)
(0,0,0)
(0,0,0)
(0,0,0)
(0,0,0)
(0,0,0)
(0,0,0)
(0,0,0)
(0,0,0)
(0,0,0)
(0,0,0)
(0,0,0)
(0,0,0)
(0,0,0)
(0,0,0)
(0,0,0)
(0,0,0)
(0,0,0)
(0,0,0)
(0,0,0)
(0,0,0)
(0,0,0)
(0,0,0)
(0,0,0)
(0,0,0)
(0,0,0)
(0,0,0)
(0,0,0)
(0,0,0)
(0,0,0)
(0,0,0)
(0,0,0)
(0,0,0)
(0,0,0)
(0,0,0)
(0,0,0)
(0,0,0)
(0,0,0)
(0,0,0)
(0,0,0)
(0,0,0)
(0,0,0)
(0,0,0)
(0,0,0)
(0,0,0)
(0,0,0)
(0,0,0)
(0,0,0)
(0,0,0)
(0,0,0)
(0,0,0)
(0,0,0)
(0,0,0)
(0,0,0)
(0,0,0)
(0,0,0)
(0,0,0)
(0,0,0)
(0,0,0)
(0,0,0)
(0,0,0)
(0,0,0)
(0,0,0)
(0,0,0)
(0,0,0)
(0,0,0)
(0,0,0)
(0,0,0)
(0,0,0)
(0,0,0)
(0,0,0)
(0,0,0)
(0,0,0)
(0,0,0)
(0,0,0)
(0,0,0)
(0,0,0)
(0,0,0)
(0,0,0)
(0,0,0)
(0,0,0)
(0,0,0)
(0,0,0)
(0,0,0)
(0,0,0)
(0,0,0)
(0,0,0)
(0,0,0)
(0,0,0)
(0,0,0)
(0,0,0)
(0,0,0)
(0,0,0)
(0,0,0)
(0,0,0)
(0,0,0)
(0,0,0)
(0,0,0)
(0,0,0)
(0,0,0)
(0,0,0)
(0,0,0)
(0,0,0)
(0,0,0)
(0,0,0)
(0,0,0)
(0,0,0)
(0,0,0)
(0,0,0)
(0,0,0)
(0,0,0)
(0,0,0)
(0,0,0)
(0,0,0)
(0,0,0)
(0,0,0)
(0,0,0)
(0,0,0)
(0,0,0)
(0,0,0)
(0,0,0)
(0,0,0)
(0,0,0)
(0,0,0)
(0,0,0)
(0,0,0)
(0,0,0)
(0,0,0)
(0,0,0)
(0,0,0)
(0,0,0)
(0,0,0)
(0,0,0)
(0,0,0)
(0,0,0)
(0,0,0)
(0,0,0)
(0,0,0)
(0,0,0)
(0,0,0)
(0,0,0)
(0,0,0)
(0,0,0)
(0,0,0)
(0,0,0)
(0,0,0)
(0,0,0)
(0,0,0)
(0,0,0)
(0,0,0)
(0,0,0)
(0,0,0)
(0,0,0)
(0,0,0)
(0,0,0)
(0,0,0)
(0,0,0)
(0,0,0)
(0,0,0)
(0,0,0)
(0,0,0)
(0,0,0)
(0,0,0)
(0,0,0)
(0,0,0)
(0,0,0)
(0,0,0)
(0,0,0)
(0,0,0)
(0,0,0)
(0,0,0)
(0,0,0)
(0,0,0)
(0,0,0)
(0,0,0)
(0,0,0)
(0,0,0)
(0,0,0)
(0,0,0)
(0,0,0)
(0,0,0)
(0,0,0)
(0,0,0)
(0,0,0)
(0,0,0)
(0,0,0)
(0,0,0)
(0,0,0)
(0,0,0)
(0,0,0)
(0,0,0)
(0,0,0)
(0,0,0)
(0,0,0)
(0,0,0)
(0,0,0)
(0,0,0)
(0,0,0)
(0,0,0)
(0,0,0)
(0,0,0)
(0,0,0)
(0,0,0)
(0,0,0)
(0,0,0)
(0,0,0)
(0,0,0)
(0,0,0)
(0,0,0)
(0,0,0)
(0,0,0)
(0,0,0)
(0,0,0)
(0,0,0)
(0,0,0)
(0,0,0)
(0,0,0)
(0,0,0)
(0,0,0)
(0,0,0)
(0,0,0)
(0,0,0)
(0,0,0)
(0,0,0)
(0,0,0)
(0,0,0)
(0,0,0)
(0,0,0)
(0,0,0)
(0,0,0)
(0,0,0)
(0,0,0)
(0,0,0)
(0,0,0)
(0,0,0)
(0,0,0)
(0,0,0)
(0,0,0)
(0,0,0)
(0,0,0)
(0,0,0)
(0,0,0)
(0,0,0)
(0,0,0)
(0,0,0)
(0,0,0)
(0,0,0)
(0,0,0)
(0,0,0)
(0,0,0)
(0,0,0)
(0,0,0)
(0,0,0)
(0,0,0)
(0,0,0)
(0,0,0)
(0,0,0)
(0,0,0)
(0,0,0)
(0,0,0)
(0,0,0)
(0,0,0)
(0,0,0)
(0,0,0)
(0,0,0)
(0,0,0)
(0,0,0)
(0,0,0)
(0,0,0)
(0,0,0)
(0,0,0)
(0,0,0)
(0,0,0)
(0,0,0)
(0,0,0)
(0,0,0)
(0,0,0)
(0,0,0)
(0,0,0)
(0,0,0)
(0,0,0)
(0,0,0)
(0,0,0)
(0,0,0)
(0,0,0)
(0,0,0)
(0,0,0)
(0,0,0)
(0,0,0)
(0,0,0)
(0,0,0)
(0,0,0)
(0,0,0)
(0,0,0)
(0,0,0)
(0,0,0)
(0,0,0)
(0,0,0)
(0,0,0)
(0,0,0)
(0,0,0)
(0,0,0)
(0,0,0)
(0,0,0)
(0,0,0)
(0,0,0)
(0,0,0)
(0,0,0)
(0,0,0)
(0,0,0)
(0,0,0)
(0,0,0)
(0,0,0)
(0,0,0)
(0,0,0)
(0,0,0)
(0,0,0)
(0,0,0)
(0,0,0)
(0,0,0)
(0,0,0)
(0,0,0)
(0,0,0)
(0,0,0)
(0,0,0)
(0,0,0)
(0,0,0)
(0,0,0)
(0,0,0)
(0,0,0)
(0,0,0)
(0,0,0)
(0,0,0)
(0,0,0)
(0,0,0)
(0,0,0)
(0,0,0)
(0,0,0)
(0,0,0)
(0,0,0)
(0,0,0)
(0,0,0)
(0,0,0)
(0,0,0)
(0,0,0)
(0,0,0)
(0,0,0)
(0,0,0)
(0,0,0)
(0,0,0)
(0,0,0)
(0,0,0)
(0,0,0)
(0,0,0)
(0,0,0)
(0,0,0)
(0,0,0)
(0,0,0)
(0,0,0)
(0,0,0)
(0,0,0)
(0,0,0)
(0,0,0)
(0,0,0)
(0,0,0)
(0,0,0)
(0,0,0)
(0,0,0)
(0,0,0)
(0,0,0)
(0,0,0)
(0,0,0)
(0,0,0)
(0,0,0)
(0,0,0)
(0,0,0)
(0,0,0)
(0,0,0)
(0,0,0)
(0,0,0)
(0,0,0)
(0,0,0)
(0,0,0)
(0,0,0)
(0,0,0)
(0,0,0)
(0,0,0)
(0,0,0)
(0,0,0)
(0,0,0)
(0,0,0)
(0,0,0)
(0,0,0)
(0,0,0)
(0,0,0)
(0,0,0)
(0,0,0)
(0,0,0)
(0,0,0)
(0,0,0)
(0,0,0)
(0,0,0)
(0,0,0)
(0,0,0)
(0,0,0)
(0,0,0)
(0,0,0)
(0,0,0)
(0,0,0)
(0,0,0)
(0,0,0)
(0,0,0)
(0,0,0)
(0,0,0)
(0,0,0)
(0,0,0)
(0,0,0)
(0,0,0)
(0,0,0)
(0,0,0)
(0,0,0)
(0,0,0)
(0,0,0)
(0,0,0)
(0,0,0)
(0,0,0)
(0,0,0)
(0,0,0)
(0,0,0)
(0,0,0)
(0,0,0)
(0,0,0)
(0,0,0)
(0,0,0)
(0,0,0)
(0,0,0)
(0,0,0)
(0,0,0)
(0,0,0)
(0,0,0)
(0,0,0)
(0,0,0)
(0,0,0)
(0,0,0)
(0,0,0)
(0,0,0)
(0,0,0)
(0,0,0)
(0,0,0)
(0,0,0)
(0,0,0)
(0,0,0)
(0,0,0)
(0,0,0)
(0,0,0)
(0,0,0)
(0,0,0)
(0,0,0)
(0,0,0)
(0,0,0)
(0,0,0)
(0,0,0)
(0,0,0)
(0,0,0)
(0,0,0)
(0,0,0)
(0,0,0)
(0,0,0)
(0,0,0)
(0,0,0)
(0,0,0)
(0,0,0)
(0,0,0)
(0,0,0)
(0,0,0)
(0,0,0)
(0,0,0)
(0,0,0)
(0,0,0)
(0,0,0)
(0,0,0)
(0,0,0)
(0,0,0)
(0,0,0)
(0,0,0)
(0,0,0)
(0,0,0)
(0,0,0)
(0,0,0)
(0,0,0)
(0,0,0)
(0,0,0)
(0,0,0)
(0,0,0)
(0,0,0)
(0,0,0)
(0,0,0)
(0,0,0)
(0,0,0)
(0,0,0)
(0,0,0)
(0,0,0)
(0,0,0)
(0,0,0)
(0,0,0)
(0,0,0)
(0,0,0)
(0,0,0)
(0,0,0)
(0,0,0)
(0,0,0)
(0,0,0)
(0,0,0)
(0,0,0)
(0,0,0)
(0,0,0)
(0,0,0)
(0,0,0)
(0,0,0)
(0,0,0)
(0,0,0)
(0,0,0)
(0,0,0)
(0,0,0)
(0,0,0)
(0,0,0)
(0,0,0)
(0,0,0)
(0,0,0)
(0,0,0)
(0,0,0)
(0,0,0)
(0,0,0)
(0,0,0)
(0,0,0)
(0,0,0)
(0,0,0)
(0,0,0)
(0,0,0)
(0,0,0)
(0,0,0)
(0,0,0)
(0,0,0)
(0,0,0)
(0,0,0)
(0,0,0)
(0,0,0)
(0,0,0)
(0,0,0)
(0,0,0)
(0,0,0)
(0,0,0)
(0,0,0)
(0,0,0)
(0,0,0)
(0,0,0)
(0,0,0)
(0,0,0)
(0,0,0)
(0,0,0)
(0,0,0)
(0,0,0)
(0,0,0)
(0,0,0)
(0,0,0)
(0,0,0)
(0,0,0)
(0,0,0)
(0,0,0)
(0,0,0)
(0,0,0)
(0,0,0)
(0,0,0)
(0,0,0)
(0,0,0)
(0,0,0)
(0,0,0)
(0,0,0)
(0,0,0)
(0,0,0)
(0,0,0)
(0,0,0)
(0,0,0)
(0,0,0)
(0,0,0)
(0,0,0)
(0,0,0)
(0,0,0)
(0,0,0)
(0,0,0)
(0,0,0)
(0,0,0)
(0,0,0)
(0,0,0)
(0,0,0)
(0,0,0)
(0,0,0)
(0,0,0)
(0,0,0)
(0,0,0)
(0,0,0)
(0,0,0)
(0,0,0)
(0,0,0)
(0,0,0)
(0,0,0)
(0,0,0)
(0,0,0)
(0,0,0)
(0,0,0)
(0,0,0)
(0,0,0)
(0,0,0)
(0,0,0)
(0,0,0)
(0,0,0)
(0,0,0)
(0,0,0)
(0,0,0)
(0,0,0)
(0,0,0)
(0,0,0)
(0,0,0)
(0,0,0)
(0,0,0)
(0,0,0)
(0,0,0)
(0,0,0)
(0,0,0)
(0,0,0)
(0,0,0)
(0,0,0)
(0,0,0)
(0,0,0)
(0,0,0)
(0,0,0)
(0,0,0)
(0,0,0)
(0,0,0)
(0,0,0)
(0,0,0)
(0,0,0)
(0,0,0)
(-1.27399664766488e-12,2.03400031664136e-12,-2.37838738203944e-12)
(-1.79710889747664e-12,3.32674013906268e-12,-1.8513142739777e-12)
(-3.02771534254023e-12,6.94862827227528e-12,-1.51961154750878e-12)
(-3.52080752607687e-12,1.41994230126996e-11,-1.59206818686018e-12)
(-2.84652666807617e-12,2.64638280512836e-11,-1.61874246976761e-12)
(-2.9189406206799e-12,4.52683918841196e-11,-1.50899886882551e-12)
(-4.39230168943793e-12,7.45707490166998e-11,-1.03810655913864e-12)
(-6.29600177741298e-12,1.22177838321606e-10,-4.92312671286505e-13)
(-7.3845609367049e-12,2.004819720357e-10,-2.4535416676252e-13)
(-7.7172105878239e-12,3.08056799914103e-10,-4.57627964676827e-14)
(0,0,0)
(0,0,0)
(0,0,0)
(0,0,0)
(0,0,0)
(0,0,0)
(-1.35032173183397e-12,1.76865758376021e-12,-5.0125039312774e-12)
(-2.65192539582241e-12,3.25288590248266e-12,-4.39164347929242e-12)
(-4.3488768196615e-12,6.93733293709249e-12,-3.88580377003451e-12)
(-5.75574788466594e-12,1.41062740334184e-11,-3.8414012317202e-12)
(-5.60087019587781e-12,2.64768379450631e-11,-3.86113039788911e-12)
(-6.71317560670992e-12,4.52720168738544e-11,-3.53087857572414e-12)
(-9.47014387387706e-12,7.42359741935157e-11,-2.69765753214726e-12)
(-1.20744007108213e-11,1.21689856708479e-10,-1.90522253238214e-12)
(-1.31865620327199e-11,1.99883924470312e-10,-1.26731554297052e-12)
(-1.32934063792137e-11,3.07612953310601e-10,-6.40811298542813e-13)
(0,0,0)
(0,0,0)
(0,0,0)
(0,0,0)
(0,0,0)
(0,0,0)
(-1.10050333090084e-12,1.66772424672385e-12,-8.45038915343074e-12)
(-3.44171361743008e-12,3.39873966349108e-12,-8.22973564514606e-12)
(-5.64515495628341e-12,7.03930270076668e-12,-8.13400878448764e-12)
(-8.30234808930137e-12,1.40979118492682e-11,-8.35426142981737e-12)
(-9.48600739342901e-12,2.60164105371941e-11,-8.25263827352531e-12)
(-1.1200091451684e-11,4.46527862511642e-11,-7.32806685058349e-12)
(-1.45940625662532e-11,7.37714133695505e-11,-5.85754024172191e-12)
(-1.73741853530687e-11,1.21127034924331e-10,-4.65777235955196e-12)
(-1.92911309229395e-11,1.99270617635275e-10,-3.39981630159299e-12)
(-2.00769238916222e-11,3.07117969816267e-10,-1.86432774720357e-12)
(0,0,0)
(0,0,0)
(0,0,0)
(0,0,0)
(0,0,0)
(0,0,0)
(-9.92510372040557e-13,1.87212872674004e-12,-1.48534955102665e-11)
(-4.34314821577914e-12,3.8478284703518e-12,-1.47612437027821e-11)
(-7.44445043653795e-12,7.37185811625883e-12,-1.48476528401675e-11)
(-1.10148673510199e-11,1.37926739449286e-11,-1.53040444121445e-11)
(-1.32070021382347e-11,2.46187336987147e-11,-1.52442850865657e-11)
(-1.60364625723651e-11,4.29084200733885e-11,-1.37960481932258e-11)
(-1.97348057168489e-11,7.23982224520984e-11,-1.18794471661752e-11)
(-2.21056751201508e-11,1.20286376294713e-10,-1.00073178305654e-11)
(-2.46497324215118e-11,1.98656321564141e-10,-7.41844610067928e-12)
(-2.60511648153189e-11,3.0631953908256e-10,-4.00912000719823e-12)
(0,0,0)
(0,0,0)
(0,0,0)
(0,0,0)
(0,0,0)
(0,0,0)
(-9.10552964893499e-13,1.92462882024266e-12,-2.69194993102037e-11)
(-4.39207641706197e-12,4.02281397044625e-12,-2.64457918503642e-11)
(-7.56061120462175e-12,7.36098987607903e-12,-2.62623692590523e-11)
(-1.0902083620667e-11,1.27062630395596e-11,-2.64733747913439e-11)
(-1.36112809705247e-11,2.20089059839371e-11,-2.5940597554335e-11)
(-1.75221579395841e-11,3.99456754526111e-11,-2.43051879072784e-11)
(-2.26155455424816e-11,6.98407217255733e-11,-2.23306766547141e-11)
(-2.53994867240212e-11,1.18390877149482e-10,-1.91965068063625e-11)
(-2.7577434987392e-11,1.9662695645666e-10,-1.41712852400222e-11)
(-2.88979465823484e-11,3.03569531121542e-10,-7.54833499936317e-12)
(0,0,0)
(0,0,0)
(0,0,0)
(0,0,0)
(0,0,0)
(0,0,0)
(-2.92024436883164e-13,1.55998349859161e-12,-4.49544291407477e-11)
(-3.27916129032369e-12,3.56650838319446e-12,-4.42979849533143e-11)
(-7.01946378904e-12,6.67914942874828e-12,-4.37106450781192e-11)
(-1.04116198094592e-11,1.11664313605397e-11,-4.33588914451735e-11)
(-1.3370212267615e-11,1.93865577799667e-11,-4.24324260494185e-11)
(-1.69821800571104e-11,3.66621902214752e-11,-4.0894395454004e-11)
(-2.19931444490187e-11,6.63588648819801e-11,-3.81391485643747e-11)
(-2.52300665839377e-11,1.14113249618217e-10,-3.31565953753846e-11)
(-2.69857412372964e-11,1.91225809599207e-10,-2.46112681012831e-11)
(-2.7007705530528e-11,2.97168469841241e-10,-1.29897663101322e-11)
(0,0,0)
(0,0,0)
(0,0,0)
(0,0,0)
(0,0,0)
(0,0,0)
(-2.19477813081915e-13,1.23787003256045e-12,-7.24919212513877e-11)
(-3.07554201000747e-12,2.63315557415261e-12,-7.18665915901948e-11)
(-6.20165533502717e-12,4.93521162472349e-12,-7.12154436348772e-11)
(-9.19864960514929e-12,8.6775201268245e-12,-7.09142927466796e-11)
(-1.18513892720427e-11,1.6344892188668e-11,-7.01135775655277e-11)
(-1.44814076881142e-11,3.22049455293185e-11,-6.83950483771054e-11)
(-1.81500974636209e-11,6.05417337796766e-11,-6.3983135762682e-11)
(-2.06502498258549e-11,1.05913861716646e-10,-5.59424154589455e-11)
(-2.22828040017822e-11,1.80417734654424e-10,-4.20452159947182e-11)
(-2.23380561004322e-11,2.852065194538e-10,-2.27117844024156e-11)
(0,0,0)
(0,0,0)
(0,0,0)
(0,0,0)
(0,0,0)
(0,0,0)
(-2.20356305511383e-12,1.04712616409502e-12,-1.18963485720581e-10)
(-4.7986688180935e-12,1.71746249679758e-12,-1.184260714146e-10)
(-6.16887730977283e-12,3.55756123504187e-12,-1.17955380872163e-10)
(-8.12717490910756e-12,6.6486947092225e-12,-1.17819583209531e-10)
(-9.49767713933788e-12,1.34412408360025e-11,-1.16988206964361e-10)
(-1.10709423177504e-11,2.71646972895049e-11,-1.14497090471166e-10)
(-1.34044839526239e-11,5.1809881642282e-11,-1.08226638627413e-10)
(-1.48451932471717e-11,9.25134217437524e-11,-9.55741677415616e-11)
(-1.60848785351233e-11,1.61880362641953e-10,-7.39078014730388e-11)
(-1.56553373568264e-11,2.63387963457668e-10,-4.18225756091233e-11)
(0,0,0)
(0,0,0)
(0,0,0)
(0,0,0)
(0,0,0)
(0,0,0)
(-4.22847640123208e-12,8.75267768628678e-13,-1.95934192040038e-10)
(-7.86871109547202e-12,1.04106390025618e-12,-1.95576470272306e-10)
(-8.36088803790852e-12,2.69728921218448e-12,-1.95279287736156e-10)
(-8.59614283060375e-12,5.02842004860923e-12,-1.94481115602616e-10)
(-8.20356951777747e-12,1.0170757900491e-11,-1.93001762309448e-10)
(-8.46209878990971e-12,2.0389855366298e-11,-1.89505820495553e-10)
(-9.90206325199835e-12,3.89972230930186e-11,-1.81146868490323e-10)
(-1.14885342190245e-11,7.17283016705525e-11,-1.63966784318077e-10)
(-1.17031804785137e-11,1.30723538803291e-10,-1.3261108128593e-10)
(-1.05306784670597e-11,2.22662397972252e-10,-7.99010711168476e-11)
(0,0,0)
(0,0,0)
(0,0,0)
(0,0,0)
(0,0,0)
(0,0,0)
(-5.36032455971225e-12,6.26543126213884e-13,-3.02504371424494e-10)
(-1.01424635853766e-11,5.12669311979905e-13,-3.02222918446425e-10)
(-1.01866947341883e-11,1.36085720659892e-12,-3.02685258499532e-10)
(-9.38363440645453e-12,2.85787837289894e-12,-3.02178724258689e-10)
(-8.53725245499625e-12,5.780346099404e-12,-3.00139754737559e-10)
(-8.28648136933921e-12,1.12979330765941e-11,-2.95731196755705e-10)
(-7.91636624245027e-12,2.15271577723377e-11,-2.85901555475797e-10)
(-9.55403152162445e-12,4.08933691131622e-11,-2.64958425208387e-10)
(-9.90404178795183e-12,7.87184029568292e-11,-2.2390379815777e-10)
(-8.83821770325339e-12,1.4402346829694e-10,-1.44795224638747e-10)
(0,0,0)
(0,0,0)
(0,0,0)
(0,0,0)
(0,0,0)
(0,0,0)
(0,0,0)
(0,0,0)
(0,0,0)
(0,0,0)
(0,0,0)
(0,0,0)
(0,0,0)
(0,0,0)
(0,0,0)
(0,0,0)
(0,0,0)
(0,0,0)
(0,0,0)
(0,0,0)
(0,0,0)
(0,0,0)
(0,0,0)
(0,0,0)
(0,0,0)
(0,0,0)
(0,0,0)
(0,0,0)
(0,0,0)
(0,0,0)
(0,0,0)
(0,0,0)
(0,0,0)
(0,0,0)
(0,0,0)
(0,0,0)
(0,0,0)
(0,0,0)
(0,0,0)
(0,0,0)
(0,0,0)
(0,0,0)
(0,0,0)
(0,0,0)
(0,0,0)
(0,0,0)
(0,0,0)
(0,0,0)
(0,0,0)
(0,0,0)
(0,0,0)
(0,0,0)
(0,0,0)
(0,0,0)
(0,0,0)
(0,0,0)
(0,0,0)
(0,0,0)
(0,0,0)
(0,0,0)
(0,0,0)
(0,0,0)
(0,0,0)
(0,0,0)
(0,0,0)
(0,0,0)
(0,0,0)
(0,0,0)
(0,0,0)
(0,0,0)
(0,0,0)
(0,0,0)
(0,0,0)
(0,0,0)
(0,0,0)
(0,0,0)
(0,0,0)
(0,0,0)
(0,0,0)
(0,0,0)
(0,0,0)
(0,0,0)
(0,0,0)
(0,0,0)
(0,0,0)
(0,0,0)
(0,0,0)
(0,0,0)
(0,0,0)
(0,0,0)
(0,0,0)
(0,0,0)
(0,0,0)
(0,0,0)
(0,0,0)
(0,0,0)
(0,0,0)
(0,0,0)
(0,0,0)
(0,0,0)
(0,0,0)
(0,0,0)
(-1.5357270228491e-12,3.8171272454433e-12,-4.62415885825793e-12)
(-2.05495738736693e-12,7.25437480265173e-12,-4.28754472545237e-12)
(-2.9439633680281e-12,1.41053032651321e-11,-4.14173326154886e-12)
(-3.40098426389031e-12,2.72345485634142e-11,-4.11122789938277e-12)
(-2.96928016284398e-12,4.83803529113231e-11,-3.59605290004994e-12)
(-3.3934579200764e-12,8.00766697962648e-11,-2.78842993435712e-12)
(-4.6033207540406e-12,1.29471483382486e-10,-1.88901213644373e-12)
(-6.05497866897715e-12,2.12409656027524e-10,-9.73565479943315e-13)
(-6.98610474195596e-12,3.67526418165144e-10,-2.56765266549816e-13)
(-7.31912678123261e-12,7.21176985394246e-10,9.07530228070302e-14)
(0,0,0)
(0,0,0)
(0,0,0)
(0,0,0)
(0,0,0)
(0,0,0)
(-1.8702488467815e-12,3.64361350472188e-12,-9.78919265755332e-12)
(-3.30361886608515e-12,7.30412898270125e-12,-9.14191860060605e-12)
(-4.49524912164146e-12,1.39149717985367e-11,-8.7662760812411e-12)
(-5.72765653435477e-12,2.64518455703143e-11,-8.40095069287046e-12)
(-5.4706946101767e-12,4.76651833352516e-11,-7.40221962800306e-12)
(-6.92716602762277e-12,7.94423630827853e-11,-5.546359714555e-12)
(-9.79801804976639e-12,1.28682655837428e-10,-3.58302284592976e-12)
(-1.21494859158648e-11,2.11869838399094e-10,-2.57102647507181e-12)
(-1.31997594417042e-11,3.67719248249662e-10,-1.64334937118223e-12)
(-1.34392341831914e-11,7.21839577756773e-10,-9.20687021307212e-13)
(0,0,0)
(0,0,0)
(0,0,0)
(0,0,0)
(0,0,0)
(0,0,0)
(-1.52556131920081e-12,3.57854005164291e-12,-1.71171282361518e-11)
(-3.98652928494403e-12,7.54405508900935e-12,-1.63909081604637e-11)
(-5.75745772642977e-12,1.37316819096467e-11,-1.59894029107685e-11)
(-8.0987333412483e-12,2.54781739671101e-11,-1.5456770333474e-11)
(-9.01290197794315e-12,4.5881008603928e-11,-1.40533855401645e-11)
(-1.09262518827735e-11,7.73620589157842e-11,-1.095053998872e-11)
(-1.44206395309391e-11,1.27444555972876e-10,-7.39601762853194e-12)
(-1.77914827815569e-11,2.11328818465493e-10,-5.71342923829455e-12)
(-2.02123234064251e-11,3.67996381097902e-10,-4.04487771815887e-12)
(-2.11428209053003e-11,7.2214922260492e-10,-2.31045224392804e-12)
(0,0,0)
(0,0,0)
(0,0,0)
(0,0,0)
(0,0,0)
(0,0,0)
(-1.13726227302825e-12,3.78803473906548e-12,-2.88059047750131e-11)
(-4.43172457849138e-12,7.81489126260954e-12,-2.80888694520873e-11)
(-6.9771906243888e-12,1.34791362467919e-11,-2.75966418360963e-11)
(-9.9882157712252e-12,2.37804695082781e-11,-2.69935796778471e-11)
(-1.20454113168035e-11,4.22371506672984e-11,-2.56479394738826e-11)
(-1.49903189786247e-11,7.30470554828083e-11,-2.20582805913255e-11)
(-1.9049434325951e-11,1.24729294923112e-10,-1.76965029843322e-11)
(-2.27990477047333e-11,2.10406955719371e-10,-1.4729135670152e-11)
(-2.60296934070679e-11,3.67565876570307e-10,-1.07512030577056e-11)
(-2.73102768606654e-11,7.21214625937331e-10,-5.80719765748853e-12)
(0,0,0)
(0,0,0)
(0,0,0)
(0,0,0)
(0,0,0)
(0,0,0)
(-1.01961510308194e-12,3.76332176459859e-12,-4.88312028020294e-11)
(-4.11919342112432e-12,7.59985570227595e-12,-4.80234813317283e-11)
(-6.66776522500011e-12,1.25946665984837e-11,-4.71562175023536e-11)
(-9.89502917865951e-12,2.09103515096318e-11,-4.6103984432892e-11)
(-1.26243424136008e-11,3.65784273648044e-11,-4.47197203135267e-11)
(-1.62131839610178e-11,6.61212333178294e-11,-4.21686488103972e-11)
(-2.22678585472354e-11,1.19185361381545e-10,-4.02081087951354e-11)
(-2.61470807588925e-11,2.08142532958713e-10,-3.32173809164421e-11)
(-2.87992383706424e-11,3.64579034446258e-10,-2.36730034755374e-11)
(-3.0045220301827e-11,7.17000333031696e-10,-1.24557277226578e-11)
(0,0,0)
(0,0,0)
(0,0,0)
(0,0,0)
(0,0,0)
(0,0,0)
(-6.26355158284928e-13,3.08183473269031e-12,-7.9470832976468e-11)
(-2.93314835647809e-12,6.42490959357339e-12,-7.88639288786236e-11)
(-5.62727961796489e-12,1.07254323649039e-11,-7.79973748250346e-11)
(-8.8491739714891e-12,1.75043393342201e-11,-7.677467840704e-11)
(-1.18665772717182e-11,3.08338551450009e-11,-7.54108312031534e-11)
(-1.52801822546173e-11,5.92061884260852e-11,-7.33822908748818e-11)
(-2.11585665356634e-11,1.14813939394119e-10,-6.97867456381163e-11)
(-2.55760059564387e-11,2.02558429051098e-10,-5.96440305023207e-11)
(-2.7799168083787e-11,3.55979774897323e-10,-4.31081429344416e-11)
(-2.80355214531039e-11,7.06278325171833e-10,-2.25135239474281e-11)
(0,0,0)
(0,0,0)
(0,0,0)
(0,0,0)
(0,0,0)
(0,0,0)
(-6.54063605810189e-13,2.45340961771362e-12,-1.26589861535955e-10)
(-2.81099688796891e-12,4.81857014549195e-12,-1.2604052669368e-10)
(-5.1251558335425e-12,8.27760176887445e-12,-1.2530546271831e-10)
(-7.97053936870574e-12,1.38959220827817e-11,-1.24436066192258e-10)
(-1.0666267107779e-11,2.51434031751074e-11,-1.23872443106067e-10)
(-1.38530720627005e-11,5.02522858711964e-11,-1.22214636480769e-10)
(-1.74589656299061e-11,1.05307398991931e-10,-1.13861855667296e-10)
(-2.11470093173675e-11,1.88959687347566e-10,-1.00467276532767e-10)
(-2.3078863581915e-11,3.37472526954527e-10,-7.42935312731664e-11)
(-2.3231284506153e-11,6.85370292660161e-10,-3.99107645566271e-11)
(0,0,0)
(0,0,0)
(0,0,0)
(0,0,0)
(0,0,0)
(0,0,0)
(-2.56911896562862e-12,2.10691412196503e-12,-2.06661805162858e-10)
(-4.59296076398897e-12,3.30021959861005e-12,-2.06107374542321e-10)
(-5.44440294954418e-12,6.28461168137454e-12,-2.05729758670936e-10)
(-7.33827649366406e-12,1.15166919567115e-11,-2.05146994113497e-10)
(-8.71831069704622e-12,2.19848460143397e-11,-2.04525743256288e-10)
(-1.05665522382703e-11,4.47401488981455e-11,-2.01618074679928e-10)
(-1.32442962891825e-11,9.10081756391321e-11,-1.9183955153195e-10)
(-1.57264394426765e-11,1.64220279047226e-10,-1.69215116185481e-10)
(-1.70132805601974e-11,3.04931008498086e-10,-1.30542453185606e-10)
(-1.67523474811282e-11,6.47270345940642e-10,-7.42563874244149e-11)
(0,0,0)
(0,0,0)
(0,0,0)
(0,0,0)
(0,0,0)
(0,0,0)
(-4.33747352654903e-12,1.78648324545995e-12,-3.60733330318896e-10)
(-7.63749904334489e-12,2.21404743255472e-12,-3.6018594682458e-10)
(-7.82262816586112e-12,4.82604560414323e-12,-3.5991189153837e-10)
(-7.90495444805843e-12,9.21112336463791e-12,-3.58706570932085e-10)
(-7.30909953057108e-12,1.72982775391571e-11,-3.56990820877592e-10)
(-7.72912850545667e-12,3.4399192742461e-11,-3.51601017370808e-10)
(-9.61208210356102e-12,6.78129766034059e-11,-3.37564111135229e-10)
(-1.2009304693787e-11,1.26425963696883e-10,-3.07687065541385e-10)
(-1.24080548011556e-11,2.5030864492199e-10,-2.53437514471651e-10)
(-1.17928199084634e-11,5.749734336987e-10,-1.58546389184882e-10)
(0,0,0)
(0,0,0)
(0,0,0)
(0,0,0)
(0,0,0)
(0,0,0)
(-5.015234411567e-12,9.97820296085464e-13,-7.12865705161118e-10)
(-9.16745422028976e-12,8.76574939547277e-13,-7.12501127226183e-10)
(-9.3323717684342e-12,2.27769541220849e-12,-7.12984930961681e-10)
(-8.56472555468519e-12,5.12695854363418e-12,-7.11876934543847e-10)
(-7.16546433745448e-12,9.67605583424745e-12,-7.09053905044248e-10)
(-6.81818957266432e-12,1.87832795195965e-11,-7.01879763905785e-10)
(-7.33233873753753e-12,3.68569383926493e-11,-6.85013380222394e-10)
(-9.7152894590316e-12,7.20204000435869e-11,-6.49056491854298e-10)
(-1.02942123501446e-11,1.56568742344939e-10,-5.77166650672858e-10)
(-9.60997404496549e-12,4.18255640655193e-10,-4.19696622543144e-10)
(0,0,0)
(0,0,0)
(0,0,0)
(0,0,0)
(0,0,0)
(0,0,0)
(0,0,0)
(0,0,0)
(0,0,0)
(0,0,0)
(0,0,0)
(0,0,0)
(0,0,0)
(0,0,0)
(0,0,0)
(0,0,0)
(0,0,0)
(0,0,0)
(0,0,0)
(0,0,0)
(0,0,0)
(0,0,0)
(0,0,0)
(0,0,0)
(0,0,0)
(0,0,0)
(0,0,0)
(0,0,0)
(0,0,0)
(0,0,0)
(0,0,0)
(0,0,0)
(0,0,0)
(0,0,0)
(0,0,0)
(0,0,0)
(0,0,0)
(0,0,0)
(0,0,0)
(0,0,0)
(0,0,0)
(0,0,0)
(0,0,0)
(0,0,0)
(0,0,0)
(0,0,0)
(0,0,0)
(0,0,0)
(0,0,0)
(0,0,0)
(0,0,0)
(0,0,0)
(0,0,0)
(0,0,0)
(0,0,0)
(0,0,0)
(0,0,0)
(0,0,0)
(0,0,0)
(0,0,0)
(0,0,0)
(0,0,0)
(0,0,0)
(0,0,0)
(0,0,0)
(0,0,0)
(0,0,0)
(0,0,0)
(0,0,0)
(0,0,0)
(0,0,0)
(0,0,0)
(0,0,0)
(0,0,0)
(0,0,0)
(0,0,0)
(0,0,0)
(0,0,0)
(0,0,0)
(0,0,0)
(0,0,0)
(0,0,0)
(0,0,0)
(0,0,0)
(0,0,0)
(0,0,0)
(0,0,0)
(0,0,0)
(0,0,0)
(0,0,0)
(0,0,0)
(0,0,0)
(0,0,0)
(0,0,0)
(0,0,0)
(0,0,0)
(0,0,0)
(0,0,0)
(0,0,0)
(0,0,0)
(0,0,0)
(0,0,0)
(-1.69882741494853e-12,6.46575472114762e-12,-6.64717425952136e-12)
(-2.25052303160709e-12,1.26631094557883e-11,-6.3549507993136e-12)
(-2.78413726300639e-12,2.30148918448832e-11,-6.10420867010543e-12)
(-3.13345626987323e-12,3.94989578363571e-11,-5.7392815590351e-12)
(-3.06173355272776e-12,6.32313923490788e-11,-4.49801993894795e-12)
(-3.65856900435756e-12,9.8989115191273e-11,-2.57429181702994e-12)
(-4.72993986600436e-12,1.51794560855709e-10,-8.85942310587892e-13)
(-6.23196125389822e-12,2.28166489450198e-10,1.39598600791149e-13)
(-7.52645311572592e-12,3.34290078811831e-10,6.54070073777369e-13)
(-7.89096612114236e-12,4.63601154046997e-10,5.94042646061817e-13)
(0,0,0)
(0,0,0)
(0,0,0)
(0,0,0)
(0,0,0)
(0,0,0)
(-2.45244945099824e-12,6.13735698543074e-12,-1.33508523037922e-11)
(-3.91918749246473e-12,1.25709903332313e-11,-1.28926422091301e-11)
(-4.67728462212488e-12,2.24085918006927e-11,-1.24300243706231e-11)
(-5.75271599504192e-12,3.79786164762667e-11,-1.13820964888488e-11)
(-5.54237979241659e-12,6.14616142989301e-11,-8.69875352556717e-12)
(-6.81019872914721e-12,9.72920559464066e-11,-4.17330155021988e-12)
(-9.57191455713613e-12,1.50811647428786e-10,1.81256768475138e-13)
(-1.25361430849123e-11,2.27999949834395e-10,1.08672770434254e-12)
(-1.41995546398801e-11,3.34800573946945e-10,9.91882098669626e-13)
(-1.46695660523921e-11,4.64238489135548e-10,3.60274917705506e-13)
(0,0,0)
(0,0,0)
(0,0,0)
(0,0,0)
(0,0,0)
(0,0,0)
(-2.46127608424703e-12,5.52639061531096e-12,-2.39024829518435e-11)
(-4.65887070716463e-12,1.18563958362597e-11,-2.32561136533715e-11)
(-6.03754464027302e-12,2.0906684189187e-11,-2.23918580835293e-11)
(-7.80441367636616e-12,3.51134576980047e-11,-2.06563740549816e-11)
(-8.47188959281424e-12,5.75355086605792e-11,-1.65287845959018e-11)
(-1.01657708100222e-11,9.31803875301302e-11,-9.04483420558974e-12)
(-1.33879668704682e-11,1.49631864288887e-10,-5.49761548320561e-13)
(-1.85381715565948e-11,2.28809070731841e-10,1.00447021958488e-13)
(-2.15162443520712e-11,3.36739129771468e-10,-6.90206546753889e-13)
(-2.2518676482364e-11,4.65864351989769e-10,-8.28879734437396e-13)
(0,0,0)
(0,0,0)
(0,0,0)
(0,0,0)
(0,0,0)
(0,0,0)
(-1.82958462218523e-12,4.8538926924843e-12,-3.88678423671733e-11)
(-4.70891663297658e-12,1.06117906636485e-11,-3.81330524389597e-11)
(-6.69578313497404e-12,1.84422274765704e-11,-3.71337432233514e-11)
(-8.46373797721557e-12,3.02397326695295e-11,-3.49531342682557e-11)
(-9.97634689615101e-12,5.0049899618147e-11,-3.03531151055679e-11)
(-1.24262744212299e-11,8.43434650112386e-11,-2.11823224967534e-11)
(-1.64728680983002e-11,1.47084674957595e-10,-8.74029363076088e-12)
(-2.45125575561554e-11,2.3139484831266e-10,-9.1291858760283e-12)
(-2.79868566828731e-11,3.38708858140331e-10,-8.4886815346155e-12)
(-2.89031816131455e-11,4.66298613370853e-10,-5.03522817000272e-12)
(0,0,0)
(0,0,0)
(0,0,0)
(0,0,0)
(0,0,0)
(0,0,0)
(-1.14584954191052e-12,4.30555371693339e-12,-6.25216307599485e-11)
(-3.81151114079853e-12,9.12218295364031e-12,-6.16833795004719e-11)
(-5.8507640621303e-12,1.51159562231466e-11,-5.99598403977902e-11)
(-7.87328112238726e-12,2.35824970627578e-11,-5.73906059500754e-11)
(-9.43084169595358e-12,3.84206729202056e-11,-5.41933747851548e-11)
(-1.12586790855038e-11,6.67749136961806e-11,-4.97978536944933e-11)
(-2.48871644394205e-11,1.31334616959696e-10,-5.74105073763661e-11)
(-3.0107354292178e-11,2.34869325438671e-10,-4.12949486268027e-11)
(-3.14172545729901e-11,3.38868665563534e-10,-2.77298378269403e-11)
(-3.17789401650792e-11,4.63297536020086e-10,-1.4327305372691e-11)
(0,0,0)
(0,0,0)
(0,0,0)
(0,0,0)
(0,0,0)
(0,0,0)
(-6.04834140580107e-13,3.63576623658504e-12,-9.71356299308169e-11)
(-2.19336296230543e-12,7.12724860660523e-12,-9.65136212397259e-11)
(-4.40214544012939e-12,1.15668614293407e-11,-9.5025906734693e-11)
(-6.60460392266095e-12,1.73405813382821e-11,-9.31092651263876e-11)
(-8.20466563116083e-12,2.74300418678735e-11,-9.14864418457163e-11)
(-9.9218249363361e-12,5.33968709906352e-11,-8.92994896725053e-11)
(-2.17947412688837e-11,1.34888754549148e-10,-9.37430756288564e-11)
(-2.85131518214873e-11,2.3417800294782e-10,-7.77130844469266e-11)
(-2.98865391272909e-11,3.31656006346532e-10,-5.33778289997029e-11)
(-2.96410128897716e-11,4.51913905101154e-10,-2.71125776829719e-11)
(0,0,0)
(0,0,0)
(0,0,0)
(0,0,0)
(0,0,0)
(0,0,0)
(-8.56902951717206e-13,2.99650214850033e-12,-1.46586830904861e-10)
(-2.0277103170294e-12,5.34190415469881e-12,-1.46499046567923e-10)
(-4.00156227202898e-12,8.66402132103447e-12,-1.45825825749009e-10)
(-6.15493232878105e-12,1.22644069925074e-11,-1.44979507291316e-10)
(-9.16551657204357e-12,1.70585918223673e-11,-1.46467101490823e-10)
(-1.66937159033351e-11,3.31169932077336e-11,-1.50451512423995e-10)
(-1.65543214114505e-11,1.25673106492081e-10,-1.33829155888366e-10)
(-2.2581346277165e-11,2.20005905746739e-10,-1.30507379870177e-10)
(-2.49201118415768e-11,3.10608736882424e-10,-9.02121420003946e-11)
(-2.50421023427128e-11,4.2759095639823e-10,-4.62605755658125e-11)
(0,0,0)
(0,0,0)
(0,0,0)
(0,0,0)
(0,0,0)
(0,0,0)
(-2.80311870936683e-12,2.83778630992922e-12,-2.18870966711202e-10)
(-3.88440446921048e-12,4.12282439365518e-12,-2.19401284138353e-10)
(-4.56860143052217e-12,6.82026503696704e-12,-2.19698728053124e-10)
(-5.65395875758191e-12,1.07538573115105e-11,-2.19109952885881e-10)
(-6.93941079899466e-12,1.8131506235602e-11,-2.20156135177543e-10)
(-1.00041192302613e-11,4.18438262566644e-11,-2.22575382198516e-10)
(-1.26735325998671e-11,1.11828331919997e-10,-2.18990381771348e-10)
(-1.66047870933806e-11,1.81266106392615e-10,-1.87802867934393e-10)
(-1.8676982744941e-11,2.68891680741409e-10,-1.37275046987786e-10)
(-1.87118226629972e-11,3.83402841946791e-10,-7.41982533203035e-11)
(0,0,0)
(0,0,0)
(0,0,0)
(0,0,0)
(0,0,0)
(0,0,0)
(-4.09619407159877e-12,2.47560842004859e-12,-3.2420098594008e-10)
(-6.5740818367359e-12,3.09559584221079e-12,-3.24421386616606e-10)
(-6.47959857956585e-12,5.27799859495648e-12,-3.24984572405259e-10)
(-5.53653968146702e-12,9.25769811032103e-12,-3.24150246914228e-10)
(-5.07668133206359e-12,1.64484994662393e-11,-3.2299127233298e-10)
(-6.15012151850558e-12,3.61879574860153e-11,-3.19321077033675e-10)
(-8.53308948679973e-12,7.86446617848658e-11,-3.06334541815884e-10)
(-1.18532921112473e-11,1.31235386726638e-10,-2.70056226804473e-10)
(-1.35592775100767e-11,2.0714039542014e-10,-2.09788820912446e-10)
(-1.36214160499942e-11,3.11130862937983e-10,-1.20793069801996e-10)
(0,0,0)
(0,0,0)
(0,0,0)
(0,0,0)
(0,0,0)
(0,0,0)
(-4.38199205100637e-12,1.17725274981385e-12,-4.5124655280979e-10)
(-7.80707554561139e-12,1.24395887727749e-12,-4.51303491856125e-10)
(-8.16267277361759e-12,2.49370490478601e-12,-4.52294616884562e-10)
(-6.26079651099387e-12,5.3450731653594e-12,-4.51813871899408e-10)
(-4.66354964127461e-12,9.54583905866699e-12,-4.49087173932576e-10)