/*--------------------------------*- C++ -*----------------------------------*\
| =========                 |                                                 |
| \\      /  F ield         | foam-extend: Open Source Cstd::filesystem::create_directory();FD                    |
|  \\    /   O peration     | Version:     4.0                                |
|   \\  /    A nd           | Web:         http://www.foam-extend.org         |
|    \\/     M anipulation  |                                                 |
\*---------------------------------------------------------------------------*/
FoamFile
{
    version 2.0;
    format ascii;
    class volVectorField;
    location "Data/249";
    object      H;
}
// * * * * * * * * * * * * * * * * * * * * * * * * * * * * * * * * * * * * * //

dimensions      [0 1 -1 0 0 0 0];

internalField   nonuniform List<vector>
4096
(
(0,0,0)
(0,0,0)
(0,0,0)
(0,0,0)
(0,0,0)
(0,0,0)
(0,0,0)
(0,0,0)
(0,0,0)
(0,0,0)
(0,0,0)
(0,0,0)
(0,0,0)
(0,0,0)
(0,0,0)
(0,0,0)
(0,0,0)
(0,0,0)
(0,0,0)
(0,0,0)
(0,0,0)
(0,0,0)
(0,0,0)
(0,0,0)
(0,0,0)
(0,0,0)
(0,0,0)
(0,0,0)
(0,0,0)
(0,0,0)
(0,0,0)
(0,0,0)
(0,0,0)
(0,0,0)
(0,0,0)
(0,0,0)
(0,0,0)
(0,0,0)
(0,0,0)
(0,0,0)
(0,0,0)
(0,0,0)
(0,0,0)
(0,0,0)
(0,0,0)
(0,0,0)
(0,0,0)
(0,0,0)
(0,0,0)
(0,0,0)
(0,0,0)
(0,0,0)
(0,0,0)
(0,0,0)
(0,0,0)
(0,0,0)
(0,0,0)
(0,0,0)
(0,0,0)
(0,0,0)
(0,0,0)
(0,0,0)
(0,0,0)
(0,0,0)
(0,0,0)
(0,0,0)
(0,0,0)
(0,0,0)
(0,0,0)
(0,0,0)
(0,0,0)
(0,0,0)
(0,0,0)
(0,0,0)
(0,0,0)
(0,0,0)
(0,0,0)
(0,0,0)
(0,0,0)
(0,0,0)
(0,0,0)
(0,0,0)
(0,0,0)
(0,0,0)
(0,0,0)
(0,0,0)
(0,0,0)
(0,0,0)
(0,0,0)
(0,0,0)
(0,0,0)
(0,0,0)
(0,0,0)
(0,0,0)
(0,0,0)
(0,0,0)
(0,0,0)
(0,0,0)
(0,0,0)
(0,0,0)
(0,0,0)
(0,0,0)
(0,0,0)
(0,0,0)
(0,0,0)
(0,0,0)
(0,0,0)
(0,0,0)
(0,0,0)
(0,0,0)
(0,0,0)
(0,0,0)
(0,0,0)
(0,0,0)
(0,0,0)
(0,0,0)
(0,0,0)
(0,0,0)
(0,0,0)
(0,0,0)
(0,0,0)
(0,0,0)
(0,0,0)
(0,0,0)
(0,0,0)
(0,0,0)
(0,0,0)
(0,0,0)
(0,0,0)
(0,0,0)
(0,0,0)
(0,0,0)
(0,0,0)
(0,0,0)
(0,0,0)
(0,0,0)
(0,0,0)
(0,0,0)
(0,0,0)
(0,0,0)
(0,0,0)
(0,0,0)
(0,0,0)
(0,0,0)
(0,0,0)
(0,0,0)
(0,0,0)
(0,0,0)
(0,0,0)
(0,0,0)
(0,0,0)
(0,0,0)
(0,0,0)
(0,0,0)
(0,0,0)
(0,0,0)
(0,0,0)
(0,0,0)
(0,0,0)
(0,0,0)
(0,0,0)
(0,0,0)
(0,0,0)
(0,0,0)
(0,0,0)
(0,0,0)
(0,0,0)
(0,0,0)
(0,0,0)
(0,0,0)
(0,0,0)
(0,0,0)
(0,0,0)
(0,0,0)
(0,0,0)
(0,0,0)
(0,0,0)
(0,0,0)
(0,0,0)
(0,0,0)
(0,0,0)
(0,0,0)
(0,0,0)
(0,0,0)
(0,0,0)
(0,0,0)
(0,0,0)
(0,0,0)
(0,0,0)
(0,0,0)
(0,0,0)
(0,0,0)
(0,0,0)
(0,0,0)
(0,0,0)
(0,0,0)
(0,0,0)
(0,0,0)
(0,0,0)
(0,0,0)
(0,0,0)
(0,0,0)
(0,0,0)
(0,0,0)
(0,0,0)
(0,0,0)
(0,0,0)
(0,0,0)
(0,0,0)
(0,0,0)
(0,0,0)
(0,0,0)
(0,0,0)
(0,0,0)
(0,0,0)
(0,0,0)
(0,0,0)
(0,0,0)
(0,0,0)
(0,0,0)
(0,0,0)
(0,0,0)
(0,0,0)
(0,0,0)
(0,0,0)
(0,0,0)
(0,0,0)
(0,0,0)
(0,0,0)
(0,0,0)
(0,0,0)
(0,0,0)
(0,0,0)
(0,0,0)
(0,0,0)
(0,0,0)
(0,0,0)
(0,0,0)
(0,0,0)
(0,0,0)
(0,0,0)
(0,0,0)
(0,0,0)
(0,0,0)
(0,0,0)
(0,0,0)
(0,0,0)
(0,0,0)
(0,0,0)
(0,0,0)
(0,0,0)
(0,0,0)
(0,0,0)
(0,0,0)
(0,0,0)
(0,0,0)
(0,0,0)
(0,0,0)
(0,0,0)
(0,0,0)
(0,0,0)
(0,0,0)
(0,0,0)
(0,0,0)
(0,0,0)
(0,0,0)
(0,0,0)
(0,0,0)
(0,0,0)
(0,0,0)
(0,0,0)
(0,0,0)
(0,0,0)
(0,0,0)
(0,0,0)
(0,0,0)
(0,0,0)
(0,0,0)
(0,0,0)
(0,0,0)
(0,0,0)
(0,0,0)
(0,0,0)
(0,0,0)
(0,0,0)
(0,0,0)
(0,0,0)
(0,0,0)
(0,0,0)
(0,0,0)
(0,0,0)
(0,0,0)
(0,0,0)
(0,0,0)
(0,0,0)
(0,0,0)
(0,0,0)
(0,0,0)
(0,0,0)
(0,0,0)
(0,0,0)
(0,0,0)
(0,0,0)
(0,0,0)
(0,0,0)
(0,0,0)
(0,0,0)
(0,0,0)
(0,0,0)
(0,0,0)
(0,0,0)
(0,0,0)
(0,0,0)
(0,0,0)
(0,0,0)
(0,0,0)
(0,0,0)
(0,0,0)
(0,0,0)
(0,0,0)
(0,0,0)
(0,0,0)
(0,0,0)
(0,0,0)
(0,0,0)
(0,0,0)
(0,0,0)
(0,0,0)
(0,0,0)
(0,0,0)
(0,0,0)
(0,0,0)
(0,0,0)
(0,0,0)
(0,0,0)
(0,0,0)
(0,0,0)
(0,0,0)
(0,0,0)
(0,0,0)
(0,0,0)
(0,0,0)
(0,0,0)
(0,0,0)
(0,0,0)
(0,0,0)
(0,0,0)
(0,0,0)
(0,0,0)
(0,0,0)
(0,0,0)
(0,0,0)
(0,0,0)
(0,0,0)
(0,0,0)
(0,0,0)
(0,0,0)
(0,0,0)
(0,0,0)
(0,0,0)
(0,0,0)
(0,0,0)
(0,0,0)
(0,0,0)
(0,0,0)
(0,0,0)
(0,0,0)
(0,0,0)
(0,0,0)
(0,0,0)
(0,0,0)
(0,0,0)
(0,0,0)
(0,0,0)
(0,0,0)
(0,0,0)
(0,0,0)
(0,0,0)
(0,0,0)
(0,0,0)
(0,0,0)
(0,0,0)
(0,0,0)
(0,0,0)
(0,0,0)
(0,0,0)
(0,0,0)
(0,0,0)
(0,0,0)
(0,0,0)
(0,0,0)
(0,0,0)
(0,0,0)
(0,0,0)
(0,0,0)
(0,0,0)
(0,0,0)
(0,0,0)
(0,0,0)
(0,0,0)
(0,0,0)
(0,0,0)
(0,0,0)
(0,0,0)
(0,0,0)
(0,0,0)
(0,0,0)
(0,0,0)
(0,0,0)
(0,0,0)
(0,0,0)
(0,0,0)
(0,0,0)
(0,0,0)
(0,0,0)
(0,0,0)
(0,0,0)
(0,0,0)
(0,0,0)
(0,0,0)
(0,0,0)
(0,0,0)
(0,0,0)
(0,0,0)
(0,0,0)
(0,0,0)
(0,0,0)
(0,0,0)
(0,0,0)
(0,0,0)
(0,0,0)
(0,0,0)
(0,0,0)
(0,0,0)
(0,0,0)
(0,0,0)
(0,0,0)
(0,0,0)
(0,0,0)
(0,0,0)
(0,0,0)
(0,0,0)
(0,0,0)
(0,0,0)
(0,0,0)
(0,0,0)
(0,0,0)
(0,0,0)
(0,0,0)
(0,0,0)
(0,0,0)
(0,0,0)
(0,0,0)
(0,0,0)
(0,0,0)
(0,0,0)
(0,0,0)
(0,0,0)
(0,0,0)
(0,0,0)
(0,0,0)
(0,0,0)
(0,0,0)
(0,0,0)
(0,0,0)
(0,0,0)
(0,0,0)
(0,0,0)
(0,0,0)
(0,0,0)
(0,0,0)
(0,0,0)
(0,0,0)
(0,0,0)
(0,0,0)
(0,0,0)
(0,0,0)
(0,0,0)
(0,0,0)
(0,0,0)
(0,0,0)
(0,0,0)
(0,0,0)
(0,0,0)
(0,0,0)
(0,0,0)
(0,0,0)
(0,0,0)
(0,0,0)
(0,0,0)
(0,0,0)
(0,0,0)
(0,0,0)
(0,0,0)
(0,0,0)
(0,0,0)
(0,0,0)
(0,0,0)
(0,0,0)
(0,0,0)
(0,0,0)
(0,0,0)
(0,0,0)
(0,0,0)
(0,0,0)
(0,0,0)
(0,0,0)
(0,0,0)
(0,0,0)
(0,0,0)
(0,0,0)
(0,0,0)
(0,0,0)
(0,0,0)
(0,0,0)
(0,0,0)
(0,0,0)
(0,0,0)
(0,0,0)
(0,0,0)
(0,0,0)
(0,0,0)
(0,0,0)
(0,0,0)
(0,0,0)
(0,0,0)
(0,0,0)
(0,0,0)
(0,0,0)
(0,0,0)
(0,0,0)
(0,0,0)
(0,0,0)
(0,0,0)
(0,0,0)
(0,0,0)
(0,0,0)
(0,0,0)
(0,0,0)
(0,0,0)
(0,0,0)
(0,0,0)
(0,0,0)
(0,0,0)
(0,0,0)
(0,0,0)
(0,0,0)
(0,0,0)
(0,0,0)
(0,0,0)
(0,0,0)
(0,0,0)
(0,0,0)
(0,0,0)
(0,0,0)
(0,0,0)
(0,0,0)
(0,0,0)
(0,0,0)
(0,0,0)
(0,0,0)
(0,0,0)
(0,0,0)
(0,0,0)
(0,0,0)
(0,0,0)
(0,0,0)
(0,0,0)
(0,0,0)
(0,0,0)
(0,0,0)
(0,0,0)
(0,0,0)
(0,0,0)
(0,0,0)
(0,0,0)
(0,0,0)
(0,0,0)
(0,0,0)
(0,0,0)
(0,0,0)
(0,0,0)
(0,0,0)
(0,0,0)
(0,0,0)
(0,0,0)
(0,0,0)
(0,0,0)
(0,0,0)
(0,0,0)
(0,0,0)
(0,0,0)
(0,0,0)
(0,0,0)
(0,0,0)
(0,0,0)
(0,0,0)
(0,0,0)
(0,0,0)
(0,0,0)
(0,0,0)
(0,0,0)
(0,0,0)
(0,0,0)
(0,0,0)
(0,0,0)
(0,0,0)
(0,0,0)
(0,0,0)
(0,0,0)
(0,0,0)
(0,0,0)
(0,0,0)
(0,0,0)
(0,0,0)
(0,0,0)
(0,0,0)
(0,0,0)
(0,0,0)
(0,0,0)
(0,0,0)
(0,0,0)
(0,0,0)
(0,0,0)
(0,0,0)
(0,0,0)
(0,0,0)
(0,0,0)
(0,0,0)
(0,0,0)
(0,0,0)
(0,0,0)
(0,0,0)
(0,0,0)
(0,0,0)
(0,0,0)
(0,0,0)
(0,0,0)
(0,0,0)
(0,0,0)
(0,0,0)
(0,0,0)
(0,0,0)
(0,0,0)
(0,0,0)
(0,0,0)
(0,0,0)
(0,0,0)
(0,0,0)
(0,0,0)
(0,0,0)
(0,0,0)
(0,0,0)
(0,0,0)
(0,0,0)
(0,0,0)
(0,0,0)
(0,0,0)
(0,0,0)
(0,0,0)
(0,0,0)
(0,0,0)
(0,0,0)
(0,0,0)
(0,0,0)
(0,0,0)
(0,0,0)
(0,0,0)
(0,0,0)
(0,0,0)
(0,0,0)
(0,0,0)
(0,0,0)
(0,0,0)
(0,0,0)
(0,0,0)
(0,0,0)
(0,0,0)
(0,0,0)
(0,0,0)
(0,0,0)
(0,0,0)
(0,0,0)
(0,0,0)
(0,0,0)
(0,0,0)
(0,0,0)
(0,0,0)
(0,0,0)
(0,0,0)
(0,0,0)
(0,0,0)
(0,0,0)
(0,0,0)
(0,0,0)
(0,0,0)
(0,0,0)
(0,0,0)
(0,0,0)
(0,0,0)
(0,0,0)
(0,0,0)
(0,0,0)
(0,0,0)
(0,0,0)
(0,0,0)
(0,0,0)
(0,0,0)
(0,0,0)
(0,0,0)
(0,0,0)
(0,0,0)
(0,0,0)
(0,0,0)
(0,0,0)
(0,0,0)
(0,0,0)
(0,0,0)
(0,0,0)
(0,0,0)
(0,0,0)
(0,0,0)
(0,0,0)
(0,0,0)
(0,0,0)
(0,0,0)
(0,0,0)
(0,0,0)
(0,0,0)
(0,0,0)
(0,0,0)
(0,0,0)
(0,0,0)
(0,0,0)
(0,0,0)
(0,0,0)
(0,0,0)
(0,0,0)
(0,0,0)
(0,0,0)
(0,0,0)
(0,0,0)
(0,0,0)
(0,0,0)
(0,0,0)
(0,0,0)
(0,0,0)
(0,0,0)
(0,0,0)
(0,0,0)
(0,0,0)
(0,0,0)
(0,0,0)
(0,0,0)
(0,0,0)
(0,0,0)
(0,0,0)
(0,0,0)
(0,0,0)
(0,0,0)
(0,0,0)
(0,0,0)
(0,0,0)
(0,0,0)
(0,0,0)
(0,0,0)
(0,0,0)
(0,0,0)
(0,0,0)
(0,0,0)
(0,0,0)
(0,0,0)
(0,0,0)
(0,0,0)
(0,0,0)
(0,0,0)
(0,0,0)
(0,0,0)
(0,0,0)
(0,0,0)
(0,0,0)
(0,0,0)
(0,0,0)
(0,0,0)
(0,0,0)
(0,0,0)
(0,0,0)
(0,0,0)
(0,0,0)
(0,0,0)
(0,0,0)
(0,0,0)
(0,0,0)
(0,0,0)
(0,0,0)
(0,0,0)
(0,0,0)
(0,0,0)
(0,0,0)
(0,0,0)
(0,0,0)
(0,0,0)
(0,0,0)
(0,0,0)
(0,0,0)
(0,0,0)
(0,0,0)
(0,0,0)
(0,0,0)
(0,0,0)
(0,0,0)
(0,0,0)
(0,0,0)
(0,0,0)
(0,0,0)
(0,0,0)
(0,0,0)
(0,0,0)
(0,0,0)
(1.36846432158358e-12,1.42147254924371e-11,-1.45291242375872e-11)
(1.83132908557397e-12,3.03492311443383e-11,-1.33214277399333e-11)
(1.88999308615881e-12,5.05005110969694e-11,-1.12274924573302e-11)
(1.92297541306362e-12,7.84848991705355e-11,-9.15481413817224e-12)
(1.32062874417142e-12,1.21686596557516e-10,-6.70746329615442e-12)
(4.23756144752934e-13,1.90575356381059e-10,-4.00982065903991e-12)
(8.73994299808425e-14,3.01302206356624e-10,-1.35404404551634e-12)
(-1.21719047978827e-12,4.86175252415694e-10,1.99692800658607e-13)
(-2.02584465832765e-12,7.93013004113166e-10,5.11504280580299e-13)
(-2.16898959935078e-12,1.22026620465832e-09,2.63517400029012e-13)
(0,0,0)
(0,0,0)
(0,0,0)
(0,0,0)
(0,0,0)
(0,0,0)
(2.28216517584119e-12,1.32139355526801e-11,-3.11147537335725e-11)
(2.84131457995177e-12,2.85399560716157e-11,-2.94188282608382e-11)
(3.15235364651635e-12,4.86287042063735e-11,-2.6101407994393e-11)
(3.46080433961092e-12,7.6327856759303e-11,-2.18506345122106e-11)
(2.7054614271116e-12,1.19166037653172e-10,-1.69490999996262e-11)
(1.7363802497893e-12,1.88044511957739e-10,-1.15534401944333e-11)
(5.88028651367393e-13,2.99885498315438e-10,-6.37345814603839e-12)
(-1.74697812106508e-12,4.85906018884938e-10,-3.33152462677499e-12)
(-3.50637127247932e-12,7.93284805575229e-10,-2.05135114814078e-12)
(-4.50940346549071e-12,1.22089868657262e-09,-1.14316876143767e-12)
(0,0,0)
(0,0,0)
(0,0,0)
(0,0,0)
(0,0,0)
(0,0,0)
(2.53894535699579e-12,1.17148418041638e-11,-5.27479200970406e-11)
(3.52607466089842e-12,2.54758820583163e-11,-5.06446020914943e-11)
(3.90198416834391e-12,4.43843893860655e-11,-4.66295785759301e-11)
(4.46660224227424e-12,7.13807485116594e-11,-4.11879903471931e-11)
(3.87659857749278e-12,1.13325309674644e-10,-3.45025461457513e-11)
(3.02020234948291e-12,1.82307134714725e-10,-2.65351856758044e-11)
(1.1651949743668e-12,2.96394293476678e-10,-1.83679368610691e-11)
(-2.28376326913967e-12,4.84620236088144e-10,-1.29473956363574e-11)
(-4.61634008837003e-12,7.92541393375216e-10,-8.89638329184656e-12)
(-6.63576222960658e-12,1.22000920871642e-09,-4.61514453898717e-12)
(0,0,0)
(0,0,0)
(0,0,0)
(0,0,0)
(0,0,0)
(0,0,0)
(1.92121724518803e-12,9.82348629306909e-12,-8.18541608225694e-11)
(3.42609743398458e-12,2.18720983524719e-11,-7.98303896646605e-11)
(4.66639692826473e-12,3.87991719715325e-11,-7.59410635186755e-11)
(5.60638646660133e-12,6.39782096065159e-11,-7.0241983290727e-11)
(5.68654551527929e-12,1.03939389614553e-10,-6.24103031490946e-11)
(4.94096202809072e-12,1.72629608702284e-10,-5.27977305245184e-11)
(1.81749801583948e-12,2.89790302457045e-10,-4.21755714324122e-11)
(-3.41640030013171e-12,4.80986019056755e-10,-3.27004132622562e-11)
(-6.99833686606591e-12,7.89344060097754e-10,-2.29387238319986e-11)
(-9.8776432856995e-12,1.21630779111128e-09,-1.18440311208909e-11)
(0,0,0)
(0,0,0)
(0,0,0)
(0,0,0)
(0,0,0)
(0,0,0)
(1.86038251905453e-12,7.65261433331581e-12,-1.24921862495155e-10)
(4.06388827010269e-12,1.79206147571156e-11,-1.23357676350013e-10)
(6.148918178246e-12,3.26231551241436e-11,-1.19905048544641e-10)
(6.77630650393652e-12,5.48773168619159e-11,-1.14361798504458e-10)
(7.25268845708455e-12,9.1951159648503e-11,-1.06599304537604e-10)
(6.3583950840281e-12,1.59060041792049e-10,-9.70517793920764e-11)
(8.17916317907571e-13,2.78093267813874e-10,-8.54421942841016e-11)
(-5.5598965254226e-12,4.72269304918151e-10,-6.87018951958315e-11)
(-9.6171829322096e-12,7.80403562812435e-10,-4.85922523297808e-11)
(-1.20686502178373e-11,1.20655252735227e-09,-2.52653313451345e-11)
(0,0,0)
(0,0,0)
(0,0,0)
(0,0,0)
(0,0,0)
(0,0,0)
(2.87081437405443e-12,5.70782888860567e-12,-1.92623873187851e-10)
(5.37760647890741e-12,1.38046367503597e-11,-1.90950441966407e-10)
(7.26304397440917e-12,2.60773119720525e-11,-1.87937105816465e-10)
(6.94488285923517e-12,4.51784995150137e-11,-1.83096251179435e-10)
(6.67547262374246e-12,7.91472662451106e-11,-1.75928995029009e-10)
(4.61927770924289e-12,1.44003117815387e-10,-1.65703601890973e-10)
(-1.70800187313505e-12,2.63157068080559e-10,-1.50263668764172e-10)
(-8.2127653172505e-12,4.5518266792506e-10,-1.25394705472673e-10)
(-1.2270178929833e-11,7.60092154878088e-10,-9.10472501724476e-11)
(-1.41781865234326e-11,1.18409291922364e-09,-4.82675760080588e-11)
(0,0,0)
(0,0,0)
(0,0,0)
(0,0,0)
(0,0,0)
(0,0,0)
(2.78641841276161e-12,3.96575090813202e-12,-3.00889786067372e-10)
(5.27173612552226e-12,1.02108448650133e-11,-3.0001792512169e-10)
(7.26402093090679e-12,2.0193813114089e-11,-2.97748533163211e-10)
(6.90718739648723e-12,3.62187520990237e-11,-2.93595832417924e-10)
(5.11320799466977e-12,6.64034706693616e-11,-2.86727075330895e-10)
(6.10467346096179e-13,1.26285088156056e-10,-2.74938230983789e-10)
(-4.87820252670859e-12,2.39991698881517e-10,-2.53117173787519e-10)
(-1.00038897898288e-11,4.23524239310786e-10,-2.17817280462814e-10)
(-1.35783443680288e-11,7.19782742664532e-10,-1.62529897659735e-10)
(-1.5594865183968e-11,1.137837578239e-09,-8.81575911410905e-11)
(0,0,0)
(0,0,0)
(0,0,0)
(0,0,0)
(0,0,0)
(0,0,0)
(2.12237232824174e-12,2.84404705588635e-12,-4.8124847820952e-10)
(4.37989113540584e-12,7.24435218111993e-12,-4.80848016636241e-10)
(6.45412427298581e-12,1.50926546738709e-11,-4.79075450085957e-10)
(6.91098113602481e-12,2.85122554810022e-11,-4.75426473349266e-10)
(4.24300394615833e-12,5.48840508769856e-11,-4.67940332616727e-10)
(-1.23125589957791e-12,1.07673203885772e-10,-4.53532074084411e-10)
(-6.85105632418086e-12,2.06308953906149e-10,-4.25619014800196e-10)
(-1.10361679853502e-11,3.70134673379386e-10,-3.73822083880519e-10)
(-1.42189087753314e-11,6.47173353535851e-10,-2.8906491255128e-10)
(-1.66579251394755e-11,1.05067536013565e-09,-1.63532164381416e-10)
(0,0,0)
(0,0,0)
(0,0,0)
(0,0,0)
(0,0,0)
(0,0,0)
(1.84223098695991e-12,1.76442995025581e-12,-7.83409831502639e-10)
(4.72957172026104e-12,4.40716914248613e-12,-7.83084519779955e-10)
(6.52485540695266e-12,1.00782978878204e-11,-7.81303005013188e-10)
(7.13302033527278e-12,2.01813200340671e-11,-7.77559707996523e-10)
(3.76615862259484e-12,4.0430375895788e-11,-7.68954024502198e-10)
(-2.17892749832714e-12,8.08672271743188e-11,-7.50962589752778e-10)
(-8.04647375785623e-12,1.55244287672969e-10,-7.14502884024624e-10)
(-1.21905974161499e-11,2.86215500998808e-10,-6.44830276754143e-10)
(-1.44764833148381e-11,5.22288740918419e-10,-5.21622795822528e-10)
(-1.63023588029761e-11,8.8713770699823e-10,-3.13354227235787e-10)
(0,0,0)
(0,0,0)
(0,0,0)
(0,0,0)
(0,0,0)
(0,0,0)
(2.33958132665564e-12,6.67516445731168e-13,-1.20878686610489e-09)
(5.23226583896154e-12,1.8808878231905e-12,-1.20849233448577e-09)
(6.42169816936971e-12,5.09951836478142e-12,-1.206858264092e-09)
(7.25259666635403e-12,1.06982796961214e-11,-1.20285714837874e-09)
(3.96812140557604e-12,2.1833001765334e-11,-1.19300680645218e-09)
(-2.20316516452419e-12,4.39360436261961e-11,-1.17163600175068e-09)
(-9.16426052110221e-12,8.50769428553236e-11,-1.12826851603742e-09)
(-1.42842295257909e-11,1.62387058841901e-10,-1.04424864760398e-09)
(-1.59372897767061e-11,3.13630808282904e-10,-8.83720648380093e-10)
(-1.69446756027128e-11,5.73098084294171e-10,-5.71590142560515e-10)
(0,0,0)
(0,0,0)
(0,0,0)
(0,0,0)
(0,0,0)
(0,0,0)
(0,0,0)
(0,0,0)
(0,0,0)
(0,0,0)
(0,0,0)
(0,0,0)
(0,0,0)
(0,0,0)
(0,0,0)
(0,0,0)
(0,0,0)
(0,0,0)
(0,0,0)
(0,0,0)
(0,0,0)
(0,0,0)
(0,0,0)
(0,0,0)
(0,0,0)
(0,0,0)
(0,0,0)
(0,0,0)
(0,0,0)
(0,0,0)
(0,0,0)
(0,0,0)
(0,0,0)
(0,0,0)
(0,0,0)
(0,0,0)
(0,0,0)
(0,0,0)
(0,0,0)
(0,0,0)
(0,0,0)
(0,0,0)
(0,0,0)
(0,0,0)
(0,0,0)
(0,0,0)
(0,0,0)
(0,0,0)
(0,0,0)
(0,0,0)
(0,0,0)
(0,0,0)
(0,0,0)
(0,0,0)
(0,0,0)
(0,0,0)
(0,0,0)
(0,0,0)
(0,0,0)
(0,0,0)
(0,0,0)
(0,0,0)
(0,0,0)
(0,0,0)
(0,0,0)
(0,0,0)
(0,0,0)
(0,0,0)
(0,0,0)
(0,0,0)
(0,0,0)
(0,0,0)
(0,0,0)
(0,0,0)
(0,0,0)
(0,0,0)
(0,0,0)
(0,0,0)
(0,0,0)
(0,0,0)
(0,0,0)
(0,0,0)
(0,0,0)
(0,0,0)
(0,0,0)
(0,0,0)
(0,0,0)
(0,0,0)
(0,0,0)
(0,0,0)
(0,0,0)
(0,0,0)
(0,0,0)
(0,0,0)
(0,0,0)
(0,0,0)
(0,0,0)
(0,0,0)
(0,0,0)
(0,0,0)
(0,0,0)
(0,0,0)
(1.16155776368595e-12,2.67210668484233e-11,-2.80658507754596e-11)
(1.54666887569385e-12,5.64012597788771e-11,-2.5799963870273e-11)
(1.68912165759426e-12,9.32279369735311e-11,-2.19497562127049e-11)
(1.63266698227906e-12,1.44041285666576e-10,-1.7525994843238e-11)
(1.14354501139756e-12,2.20831985603923e-10,-1.22202769404514e-11)
(2.98823954565461e-13,3.40177515089763e-10,-6.20180312672182e-12)
(-4.96293750037652e-14,5.29757414246545e-10,-1.01569995915091e-12)
(-1.25976842896574e-12,8.51837343163154e-10,1.3607506031658e-12)
(-2.0496592398594e-12,1.46542184574221e-09,1.65231123686734e-12)
(-2.53795411374927e-12,2.8685171367415e-09,9.56572964359859e-13)
(0,0,0)
(0,0,0)
(0,0,0)
(0,0,0)
(0,0,0)
(0,0,0)
(2.08533345162315e-12,2.49063549318271e-11,-5.89660158688077e-11)
(2.58796832680565e-12,5.27295771782979e-11,-5.56462389333737e-11)
(3.14589498464271e-12,8.87601556960395e-11,-4.95589962571543e-11)
(3.50637807466716e-12,1.38949216444125e-10,-4.09536243703868e-11)
(3.15052960044334e-12,2.14908827141122e-10,-3.0083213739071e-11)
(2.29377544439326e-12,3.35022347092938e-10,-1.74791332986906e-11)
(1.03729997087635e-12,5.27555978025963e-10,-6.04416746619811e-12)
(-1.74136880289328e-12,8.51751319763323e-10,-1.06231607105503e-12)
(-3.67114145915743e-12,1.46618790684016e-09,-3.40275780863571e-13)
(-4.76309437071201e-12,2.86955906960134e-09,-3.25884708707478e-13)
(0,0,0)
(0,0,0)
(0,0,0)
(0,0,0)
(0,0,0)
(0,0,0)
(2.326982862544e-12,2.22112358855651e-11,-9.83134747467898e-11)
(3.1148348511793e-12,4.71375862952428e-11,-9.43664531137892e-11)
(4.04561335413955e-12,8.04354105876159e-11,-8.69214689028599e-11)
(5.18369694597316e-12,1.28433359115e-10,-7.5510549037169e-11)
(5.29515816764047e-12,2.02184103757198e-10,-6.00147492226857e-11)
(4.53047954718045e-12,3.23294570004143e-10,-4.08360158491252e-11)
(2.3486447692974e-12,5.2232788495527e-10,-2.17163699836662e-11)
(-2.70055858221257e-12,8.51889950360579e-10,-1.31608707486119e-11)
(-5.70024556374878e-12,1.46724825099507e-09,-9.43937676925085e-12)
(-7.54948916339769e-12,2.86999387287131e-09,-5.18386738980162e-12)
(0,0,0)
(0,0,0)
(0,0,0)
(0,0,0)
(0,0,0)
(0,0,0)
(2.06831804703237e-12,1.87339337861697e-11,-1.51903386544458e-10)
(3.48825488335577e-12,4.01516547492993e-11,-1.47950334206503e-10)
(5.14333354770642e-12,6.90607568518904e-11,-1.40196586049618e-10)
(6.87559906957074e-12,1.12685381449899e-10,-1.28071962036381e-10)
(8.06220285675245e-12,1.8184512198946e-10,-1.10234081206776e-10)
(7.88836984622583e-12,3.01911983614509e-10,-8.70286792155126e-11)
(4.03937448882729e-12,5.10462087777173e-10,-6.16933412038026e-11)
(-4.46137559179251e-12,8.49854419397351e-10,-4.64733430885891e-11)
(-9.15253229182812e-12,1.46604023347624e-09,-3.37484416758308e-11)
(-1.19664106475582e-11,2.86718452444496e-09,-1.80919940614653e-11)
(0,0,0)
(0,0,0)
(0,0,0)
(0,0,0)
(0,0,0)
(0,0,0)
(2.24098181862279e-12,1.48466442323456e-11,-2.29123672204531e-10)
(4.72723847148606e-12,3.23415802347746e-11,-2.25697492111914e-10)
(7.15151129015305e-12,5.62879063355153e-11,-2.18339014665373e-10)
(8.71262988398288e-12,9.31081887312348e-11,-2.06790939975054e-10)
(1.05090567149549e-11,1.54532016529756e-10,-1.90618675912804e-10)
(9.80573395270466e-12,2.68234491492604e-10,-1.71475587261759e-10)
(-9.86183037024518e-13,4.82811314445972e-10,-1.53935904637487e-10)
(-8.58290239835145e-12,8.39868062227433e-10,-1.19323973700829e-10)
(-1.26326959825032e-11,1.45538931373905e-09,-8.33686733812652e-11)
(-1.48743734344541e-11,2.85300343342121e-09,-4.3380659657392e-11)
(0,0,0)
(0,0,0)
(0,0,0)
(0,0,0)
(0,0,0)
(0,0,0)
(2.93946113308396e-12,1.0942050544661e-11,-3.44992434178442e-10)
(5.95806221431139e-12,2.41974722235632e-11,-3.41865594541224e-10)
(8.30568819534241e-12,4.32448813309422e-11,-3.35969324199857e-10)
(8.73737412480021e-12,7.30278829691179e-11,-3.26784376407641e-10)
(9.19387506145366e-12,1.26751643050399e-10,-3.13927515770661e-10)
(6.89737424178363e-12,2.36007379045326e-10,-2.96869086013443e-10)
(-3.41159596561306e-12,4.60372630542968e-10,-2.73815105752504e-10)
(-1.0901792003214e-11,8.14502192017895e-10,-2.27062522006717e-10)
(-1.47404408806912e-11,1.422255374828e-09,-1.62787706630674e-10)
(-1.6190421546802e-11,2.81421933960112e-09,-8.55139457473931e-11)
(0,0,0)
(0,0,0)
(0,0,0)
(0,0,0)
(0,0,0)
(0,0,0)
(3.03626131932502e-12,7.45206475631295e-12,-5.28239882427017e-10)
(5.96883685093643e-12,1.72888231265921e-11,-5.26217660952117e-10)
(8.21247862583744e-12,3.20547891714827e-11,-5.22199590100043e-10)
(7.74492692747936e-12,5.56149569386282e-11,-5.16086674726479e-10)
(4.84378343993907e-12,1.00780683095066e-10,-5.07170724277517e-10)
(-2.59870557988367e-12,1.99173755020599e-10,-4.91890854080939e-10)
(-6.49535087605548e-12,4.20819286324561e-10,-4.51891667400047e-10)
(-1.19017066615022e-11,7.59143212007494e-10,-3.94607073516143e-10)
(-1.53412617579825e-11,1.35074589388303e-09,-2.90615975683788e-10)
(-1.65902382217292e-11,2.73253123206492e-09,-1.56045281161796e-10)
(0,0,0)
(0,0,0)
(0,0,0)
(0,0,0)
(0,0,0)
(0,0,0)
(2.80152786059318e-12,4.9006913629609e-12,-8.40884949527494e-10)
(5.44450762375525e-12,1.1979419066888e-11,-8.39631395933037e-10)
(7.8195043223458e-12,2.38897925536702e-11,-8.36726415480253e-10)
(7.75577585042115e-12,4.40307347408657e-11,-8.3194620148306e-10)
(4.28842039504065e-12,8.56440973090489e-11,-8.23060664215646e-10)
(-2.33833847234406e-12,1.77306335213266e-10,-8.05154332864893e-10)
(-7.58332101067099e-12,3.65270022388728e-10,-7.61496366935104e-10)
(-1.18741669340101e-11,6.58842532130914e-10,-6.67941803759268e-10)
(-1.48670443277422e-11,1.21918275359963e-09,-5.1352090810888e-10)
(-1.66524363834531e-11,2.57837327557706e-09,-2.91387165301237e-10)
(0,0,0)
(0,0,0)
(0,0,0)
(0,0,0)
(0,0,0)
(0,0,0)
(2.61383276880054e-12,2.83309749086317e-12,-1.44656683950256e-09)
(5.4743382727904e-12,7.49942068765671e-12,-1.44589220725365e-09)
(7.76033791332701e-12,1.66052883388602e-11,-1.44325718833457e-09)
(8.01037717889321e-12,3.24294244140627e-11,-1.43764503227781e-09)
(4.3720980036278e-12,6.57669472331098e-11,-1.4252573607757e-09)
(-1.70744967835689e-12,1.3658440499431e-10,-1.39835697462418e-09)
(-7.55173621069981e-12,2.7193366994248e-10,-1.33822314810861e-09)
(-1.15696361908555e-11,5.05534896018217e-10,-1.21547075989275e-09)
(-1.40871192660733e-11,9.97796214289875e-10,-9.97988214434326e-10)
(-1.56169633346393e-11,2.28681195805873e-09,-6.23439060680414e-10)
(0,0,0)
(0,0,0)
(0,0,0)
(0,0,0)
(0,0,0)
(0,0,0)
(2.71256615326687e-12,1.13335682424937e-12,-2.84523816979333e-09)
(5.47908326837394e-12,3.50354859406184e-12,-2.84500398811869e-09)
(7.52010082089814e-12,8.69518563389269e-12,-2.84260700355684e-09)
(8.10053443591511e-12,1.76590596521573e-11,-2.83596380867693e-09)
(4.43031846940209e-12,3.61969894424593e-11,-2.8201505248268e-09)
(-1.63460725158246e-12,7.46273956404515e-11,-2.78585509390833e-09)
(-8.10718609921332e-12,1.47679437875251e-10,-2.71331254470559e-09)
(-1.24251699077866e-11,2.87379657971081e-10,-2.56763298459332e-09)
(-1.4436987313382e-11,6.22630790297534e-10,-2.28197108707059e-09)
(-1.54367338690487e-11,1.66219661443271e-09,-1.66069635878114e-09)
(0,0,0)
(0,0,0)
(0,0,0)
(0,0,0)
(0,0,0)
(0,0,0)
(0,0,0)
(0,0,0)
(0,0,0)
(0,0,0)
(0,0,0)
(0,0,0)
(0,0,0)
(0,0,0)
(0,0,0)
(0,0,0)
(0,0,0)
(0,0,0)
(0,0,0)
(0,0,0)
(0,0,0)
(0,0,0)
(0,0,0)
(0,0,0)
(0,0,0)
(0,0,0)
(0,0,0)
(0,0,0)
(0,0,0)
(0,0,0)
(0,0,0)
(0,0,0)
(0,0,0)
(0,0,0)
(0,0,0)
(0,0,0)
(0,0,0)
(0,0,0)
(0,0,0)
(0,0,0)
(0,0,0)
(0,0,0)
(0,0,0)
(0,0,0)
(0,0,0)
(0,0,0)
(0,0,0)
(0,0,0)
(0,0,0)
(0,0,0)
(0,0,0)
(0,0,0)
(0,0,0)
(0,0,0)
(0,0,0)
(0,0,0)
(0,0,0)
(0,0,0)
(0,0,0)
(0,0,0)
(0,0,0)
(0,0,0)
(0,0,0)
(0,0,0)
(0,0,0)
(0,0,0)
(0,0,0)
(0,0,0)
(0,0,0)
(0,0,0)
(0,0,0)
(0,0,0)
(0,0,0)
(0,0,0)
(0,0,0)
(0,0,0)
(0,0,0)
(0,0,0)
(0,0,0)
(0,0,0)
(0,0,0)
(0,0,0)
(0,0,0)
(0,0,0)
(0,0,0)
(0,0,0)
(0,0,0)
(0,0,0)
(0,0,0)
(0,0,0)
(0,0,0)
(0,0,0)
(0,0,0)
(0,0,0)
(0,0,0)
(0,0,0)
(0,0,0)
(0,0,0)
(0,0,0)
(0,0,0)
(0,0,0)
(0,0,0)
(7.10382775010567e-13,3.58253841008948e-11,-3.87477413145764e-11)
(1.36814381873045e-12,7.61924533948653e-11,-3.59549802965828e-11)
(1.73314156554118e-12,1.2453803343637e-10,-3.0876728246352e-11)
(1.41901830208272e-12,1.89327160526227e-10,-2.43065910069416e-11)
(1.04822966042537e-12,2.83164177668524e-10,-1.60152817455511e-11)
(2.67888783683713e-13,4.21705931474707e-10,-5.91012981302293e-12)
(-2.2464371662274e-13,6.25999868292124e-10,2.92363358457733e-12)
(-1.46530566281406e-12,9.21675396872527e-10,5.64981258024332e-12)
(-2.11998206534045e-12,1.34141401014177e-09,4.57355707694216e-12)
(-2.62331400919892e-12,1.85191289115024e-09,2.34061392849152e-12)
(0,0,0)
(0,0,0)
(0,0,0)
(0,0,0)
(0,0,0)
(0,0,0)
(1.46067556229583e-12,3.35860340936612e-11,-8.05538963752951e-11)
(2.09271653396478e-12,7.1517994778006e-11,-7.60506822520539e-11)
(2.86526820607278e-12,1.18265505391387e-10,-6.73168773512688e-11)
(3.15182477250667e-12,1.81494909815855e-10,-5.43991893450375e-11)
(3.27117254409138e-12,2.73870240072201e-10,-3.66674917671515e-11)
(2.58658670066231e-12,4.13913412983136e-10,-1.41158095483179e-11)
(1.28354164636839e-12,6.24733517572394e-10,6.95299007401848e-12)
(-2.60203969032088e-12,9.24837427238687e-10,1.16742875222878e-11)
(-4.74587668617736e-12,1.34546698110125e-09,7.67147604979491e-12)
(-5.52378234937715e-12,1.85543996571988e-09,3.1839957351957e-12)
(0,0,0)
(0,0,0)
(0,0,0)
(0,0,0)
(0,0,0)
(0,0,0)
(1.85726332883202e-12,2.99347099761609e-11,-1.31815714426567e-10)
(2.65578218628812e-12,6.35815291123546e-11,-1.26612757212119e-10)
(4.00934722408204e-12,1.05939848537181e-10,-1.15526098835984e-10)
(5.43587479674841e-12,1.64428804616391e-10,-9.75821635757602e-11)
(6.45540656185407e-12,2.5245891303823e-10,-7.0776413785672e-11)
(6.79342007132741e-12,3.9468529464011e-10,-3.33882071227891e-11)
(5.65894271226254e-12,6.22317839605619e-10,7.61343652733683e-12)
(-4.38652159838144e-12,9.33433341470092e-10,1.11676424843204e-11)
(-8.74773742431033e-12,1.35400133692873e-09,3.54315268860629e-12)
(-9.92400812689173e-12,1.86142392364321e-09,-2.37358849923262e-13)
(0,0,0)
(0,0,0)
(0,0,0)
(0,0,0)
(0,0,0)
(0,0,0)
(2.00255526287907e-12,2.52925172624529e-11,-2.00453627797684e-10)
(3.54458124098318e-12,5.3038051559881e-11,-1.95069810007574e-10)
(5.79156005078167e-12,8.82222867371793e-11,-1.8315296960702e-10)
(8.6149109587154e-12,1.3792018318716e-10,-1.63255299869119e-10)
(1.2169906325208e-11,2.15661124590473e-10,-1.3144663980398e-10)
(1.62305239564438e-11,3.54032854806386e-10,-8.29012346507127e-11)
(1.64701497047867e-11,6.13840459701244e-10,-1.6846520340169e-11)
(-7.19991983471863e-12,9.49257971186501e-10,-1.69243381163192e-11)
(-1.41580601689477e-11,1.36566691582586e-09,-2.18022162931952e-11)
(-1.58773136852873e-11,1.86685691948179e-09,-1.48236652679518e-11)
(0,0,0)
(0,0,0)
(0,0,0)
(0,0,0)
(0,0,0)
(0,0,0)
(2.71939541367561e-12,1.97931653031178e-11,-2.9550860334859e-10)
(5.51286903614373e-12,4.0812309004185e-11,-2.90699072442637e-10)
(8.64646160437618e-12,6.73902390971461e-11,-2.79330429805277e-10)
(1.26206715839476e-11,1.0448263457073e-10,-2.60799211131647e-10)
(1.91463415433829e-11,1.63452972513642e-10,-2.33848863895038e-10)
(2.44931637756085e-11,2.74442187027699e-10,-2.0234748414218e-10)
(-1.31594300707922e-11,5.39079683696232e-10,-2.10488233390178e-10)
(-1.91723325083552e-11,9.65290312726065e-10,-1.35923433518656e-10)
(-1.94867707953459e-11,1.3702482823404e-09,-9.30774496087932e-11)
(-1.94709392716399e-11,1.85944833726736e-09,-4.90341466932574e-11)
(0,0,0)
(0,0,0)
(0,0,0)
(0,0,0)
(0,0,0)
(0,0,0)
(3.30260728408724e-12,1.4286646661203e-11,-4.29225264746821e-10)
(6.97044097016725e-12,2.85575161908124e-11,-4.25301000378645e-10)
(1.03108325624441e-11,4.67320487758925e-11,-4.16607405912082e-10)
(1.32934395184455e-11,7.18035236981609e-11,-4.03252945540537e-10)
(1.8106405259382e-11,1.14637667632611e-10,-3.85324170216818e-10)
(2.06770180056532e-11,2.16023274878843e-10,-3.6343709669548e-10)
(-1.06108354930599e-11,5.43246900675118e-10,-3.62328610498253e-10)
(-1.98176273687796e-11,9.50901732787278e-10,-2.86153048671498e-10)
(-2.05047208189509e-11,1.33877127845699e-09,-1.99179107342936e-10)
(-2.00162597580932e-11,1.81715988641429e-09,-1.02813210539539e-10)
(0,0,0)
(0,0,0)
(0,0,0)
(0,0,0)
(0,0,0)
(0,0,0)
(3.56541323786516e-12,9.50762419266014e-12,-6.22024140650324e-10)
(7.26017005855523e-12,1.84819130893821e-11,-6.19208142411428e-10)
(1.02645598700472e-11,3.00058261570163e-11,-6.14327742844861e-10)
(1.04131986763664e-11,4.49207856394647e-11,-6.08932228277105e-10)
(4.70049902930959e-12,6.85201843787033e-11,-6.07154113293659e-10)
(-2.07304724535191e-11,1.31809993317496e-10,-6.12303887747415e-10)
(-8.23068082407521e-12,4.98811223536083e-10,-5.33284057456964e-10)
(-1.55921246172612e-11,8.8680046660934e-10,-5.10506415165367e-10)
(-1.8348815996489e-11,1.25219092493181e-09,-3.54317702069088e-10)
(-1.84775628956821e-11,1.7190667424304e-09,-1.82131140598787e-10)
(0,0,0)
(0,0,0)
(0,0,0)
(0,0,0)
(0,0,0)
(0,0,0)
(3.61556813814369e-12,5.73260385884322e-12,-9.04971142216903e-10)
(7.01952555034222e-12,1.17333415069819e-11,-9.03053921497266e-10)
(1.03237945398612e-11,2.08377177879298e-11,-9.0036500625112e-10)
(1.04715489099388e-11,3.54854339447921e-11,-8.97703906728306e-10)
(6.2592391201013e-12,6.97297953964156e-11,-8.97715491510093e-10)
(-5.27437418312865e-12,1.68367039835571e-10,-9.00656274773281e-10)
(-7.80153174016502e-12,4.55723333446071e-10,-8.77416581372125e-10)
(-1.29874264718045e-11,7.34807035656807e-10,-7.47028294202147e-10)
(-1.56142478255734e-11,1.08307531270248e-09,-5.44374796210787e-10)
(-1.64782841664083e-11,1.53834912342994e-09,-2.93351787040928e-10)
(0,0,0)
(0,0,0)
(0,0,0)
(0,0,0)
(0,0,0)
(0,0,0)
(3.63894118656089e-12,2.93480362556298e-12,-1.31558805243874e-09)
(6.83519144735041e-12,7.20184110159145e-12,-1.314635699936e-09)
(1.00582845614227e-11,1.48896948334681e-11,-1.31237546713708e-09)
(1.03930704388131e-11,2.903399841412e-11,-1.3077325465624e-09)
(7.04166964272334e-12,6.34900106805161e-11,-1.29993633406174e-09)
(1.15733159853443e-13,1.47085834883187e-10,-1.28102311208628e-09)
(-6.04989235927278e-12,3.20913632988258e-10,-1.22355443317351e-09)
(-1.08969436020794e-11,5.31685930279041e-10,-1.07432851559246e-09)
(-1.34708490276533e-11,8.31858778087691e-10,-8.31514523042572e-10)
(-1.44406803891688e-11,1.2443241505314e-09,-4.77464571492033e-10)
(0,0,0)
(0,0,0)
(0,0,0)
(0,0,0)
(0,0,0)
(0,0,0)
(3.61174130283467e-12,1.14120358568404e-12,-1.82219606783041e-09)
(6.5856473006057e-12,3.57929450336157e-12,-1.82174890428933e-09)
(9.5720915748864e-12,8.25714755774849e-12,-1.81898105175344e-09)
(9.94631023790212e-12,1.71485818652592e-11,-1.81179089237032e-09)
(6.33187699343796e-12,3.77857480898404e-11,-1.79711399327418e-09)
(4.50239186122001e-13,8.31749601457549e-11,-1.76343831647228e-09)
(-6.10730833618962e-12,1.67398750033332e-10,-1.684957535979e-09)