/*--------------------------------*- C++ -*----------------------------------*\
| =========                 |                                                 |
| \\      /  F ield         | foam-extend: Open Source CFD                    |
|  \\    /   O peration     | Version:     4.0                                |
|   \\  /    A nd           | Web:         http://www.foam-extend.org         |
|    \\/     M anipulation  |                                                 |
\*---------------------------------------------------------------------------*/
FoamFile
{
    version 2.0;
    format ascii;
    class volVectorField;
    location "Data/2864";
    object      E;
}
// * * * * * * * * * * * * * * * * * * * * * * * * * * * * * * * * * * * * * //

dimensions      [0 1 -1 0 0 0 0];

internalField   nonuniform List<vector>
4096
(
(0,0,0)
(0,0,0)
(0,0,0)
(0,0,0)
(0,0,0)
(0,0,0)
(0,0,0)
(0,0,0)
(0,0,0)
(0,0,0)
(0,0,0)
(0,0,0)
(0,0,0)
(0,0,0)
(0,0,0)
(0,0,0)
(0,0,0)
(0,0,0)
(0,0,0)
(0,0,0)
(0,0,0)
(0,0,0)
(0,0,0)
(0,0,0)
(0,0,0)
(0,0,0)
(0,0,0)
(0,0,0)
(0,0,0)
(0,0,0)
(0,0,0)
(0,0,0)
(0,0,0)
(0,0,0)
(0,0,0)
(0,0,0)
(0,0,0)
(0,0,0)
(0,0,0)
(0,0,0)
(0,0,0)
(0,0,0)
(0,0,0)
(0,0,0)
(0,0,0)
(0,0,0)
(0,0,0)
(0,0,0)
(0,0,0)
(0,0,0)
(0,0,0)
(0,0,0)
(0,0,0)
(0,0,0)
(0,0,0)
(0,0,0)
(0,0,0)
(0,0,0)
(0,0,0)
(0,0,0)
(0,0,0)
(0,0,0)
(0,0,0)
(0,0,0)
(0,0,0)
(0,0,0)
(0,0,0)
(0,0,0)
(0,0,0)
(0,0,0)
(0,0,0)
(0,0,0)
(0,0,0)
(0,0,0)
(0,0,0)
(0,0,0)
(0,0,0)
(0,0,0)
(0,0,0)
(0,0,0)
(0,0,0)
(0,0,0)
(0,0,0)
(0,0,0)
(0,0,0)
(0,0,0)
(0,0,0)
(0,0,0)
(0,0,0)
(0,0,0)
(0,0,0)
(0,0,0)
(0,0,0)
(0,0,0)
(0,0,0)
(0,0,0)
(0,0,0)
(0,0,0)
(0,0,0)
(0,0,0)
(0,0,0)
(0,0,0)
(0,0,0)
(0,0,0)
(0,0,0)
(0,0,0)
(0,0,0)
(0,0,0)
(0,0,0)
(0,0,0)
(0,0,0)
(0,0,0)
(0,0,0)
(0,0,0)
(0,0,0)
(0,0,0)
(0,0,0)
(0,0,0)
(0,0,0)
(0,0,0)
(0,0,0)
(0,0,0)
(0,0,0)
(0,0,0)
(0,0,0)
(0,0,0)
(0,0,0)
(0,0,0)
(0,0,0)
(0,0,0)
(0,0,0)
(0,0,0)
(0,0,0)
(0,0,0)
(0,0,0)
(0,0,0)
(0,0,0)
(0,0,0)
(0,0,0)
(0,0,0)
(0,0,0)
(0,0,0)
(0,0,0)
(0,0,0)
(0,0,0)
(0,0,0)
(0,0,0)
(0,0,0)
(0,0,0)
(0,0,0)
(0,0,0)
(0,0,0)
(0,0,0)
(0,0,0)
(0,0,0)
(0,0,0)
(0,0,0)
(0,0,0)
(0,0,0)
(0,0,0)
(0,0,0)
(0,0,0)
(0,0,0)
(0,0,0)
(0,0,0)
(0,0,0)
(0,0,0)
(0,0,0)
(0,0,0)
(0,0,0)
(0,0,0)
(0,0,0)
(0,0,0)
(0,0,0)
(0,0,0)
(0,0,0)
(0,0,0)
(0,0,0)
(0,0,0)
(0,0,0)
(0,0,0)
(0,0,0)
(0,0,0)
(0,0,0)
(0,0,0)
(0,0,0)
(0,0,0)
(0,0,0)
(0,0,0)
(0,0,0)
(0,0,0)
(0,0,0)
(0,0,0)
(0,0,0)
(0,0,0)
(0,0,0)
(0,0,0)
(0,0,0)
(0,0,0)
(0,0,0)
(0,0,0)
(0,0,0)
(0,0,0)
(0,0,0)
(0,0,0)
(0,0,0)
(0,0,0)
(0,0,0)
(0,0,0)
(0,0,0)
(0,0,0)
(0,0,0)
(0,0,0)
(0,0,0)
(0,0,0)
(0,0,0)
(0,0,0)
(0,0,0)
(0,0,0)
(0,0,0)
(0,0,0)
(0,0,0)
(0,0,0)
(0,0,0)
(0,0,0)
(0,0,0)
(0,0,0)
(0,0,0)
(0,0,0)
(0,0,0)
(0,0,0)
(0,0,0)
(0,0,0)
(0,0,0)
(0,0,0)
(0,0,0)
(0,0,0)
(0,0,0)
(0,0,0)
(0,0,0)
(0,0,0)
(0,0,0)
(0,0,0)
(0,0,0)
(0,0,0)
(0,0,0)
(0,0,0)
(0,0,0)
(0,0,0)
(0,0,0)
(0,0,0)
(0,0,0)
(0,0,0)
(0,0,0)
(0,0,0)
(0,0,0)
(0,0,0)
(0,0,0)
(0,0,0)
(0,0,0)
(0,0,0)
(0,0,0)
(0,0,0)
(0,0,0)
(0,0,0)
(0,0,0)
(0,0,0)
(0,0,0)
(0,0,0)
(0,0,0)
(0,0,0)
(0,0,0)
(0,0,0)
(0,0,0)
(0,0,0)
(0,0,0)
(0,0,0)
(0,0,0)
(0,0,0)
(0,0,0)
(0,0,0)
(0,0,0)
(0,0,0)
(0,0,0)
(0,0,0)
(0,0,0)
(0,0,0)
(0,0,0)
(0,0,0)
(0,0,0)
(0,0,0)
(0,0,0)
(0,0,0)
(0,0,0)
(0,0,0)
(0,0,0)
(0,0,0)
(0,0,0)
(0,0,0)
(0,0,0)
(0,0,0)
(0,0,0)
(0,0,0)
(0,0,0)
(0,0,0)
(0,0,0)
(0,0,0)
(0,0,0)
(0,0,0)
(0,0,0)
(0,0,0)
(0,0,0)
(0,0,0)
(0,0,0)
(0,0,0)
(0,0,0)
(0,0,0)
(0,0,0)
(0,0,0)
(0,0,0)
(0,0,0)
(0,0,0)
(0,0,0)
(0,0,0)
(0,0,0)
(0,0,0)
(0,0,0)
(0,0,0)
(0,0,0)
(0,0,0)
(0,0,0)
(0,0,0)
(0,0,0)
(0,0,0)
(0,0,0)
(0,0,0)
(0,0,0)
(0,0,0)
(0,0,0)
(0,0,0)
(0,0,0)
(0,0,0)
(0,0,0)
(0,0,0)
(0,0,0)
(0,0,0)
(0,0,0)
(0,0,0)
(0,0,0)
(0,0,0)
(0,0,0)
(0,0,0)
(0,0,0)
(0,0,0)
(0,0,0)
(0,0,0)
(0,0,0)
(0,0,0)
(0,0,0)
(0,0,0)
(0,0,0)
(0,0,0)
(0,0,0)
(0,0,0)
(0,0,0)
(0,0,0)
(0,0,0)
(0,0,0)
(0,0,0)
(0,0,0)
(0,0,0)
(0,0,0)
(0,0,0)
(0,0,0)
(0,0,0)
(0,0,0)
(0,0,0)
(0,0,0)
(0,0,0)
(0,0,0)
(0,0,0)
(0,0,0)
(0,0,0)
(0,0,0)
(0,0,0)
(0,0,0)
(0,0,0)
(0,0,0)
(0,0,0)
(0,0,0)
(0,0,0)
(0,0,0)
(0,0,0)
(0,0,0)
(0,0,0)
(0,0,0)
(0,0,0)
(0,0,0)
(0,0,0)
(0,0,0)
(0,0,0)
(0,0,0)
(0,0,0)
(0,0,0)
(0,0,0)
(0,0,0)
(0,0,0)
(0,0,0)
(0,0,0)
(0,0,0)
(0,0,0)
(0,0,0)
(0,0,0)
(0,0,0)
(0,0,0)
(0,0,0)
(0,0,0)
(0,0,0)
(0,0,0)
(0,0,0)
(0,0,0)
(0,0,0)
(0,0,0)
(0,0,0)
(0,0,0)
(0,0,0)
(0,0,0)
(0,0,0)
(0,0,0)
(0,0,0)
(0,0,0)
(0,0,0)
(0,0,0)
(0,0,0)
(0,0,0)
(0,0,0)
(0,0,0)
(0,0,0)
(0,0,0)
(0,0,0)
(0,0,0)
(0,0,0)
(0,0,0)
(0,0,0)
(0,0,0)
(0,0,0)
(0,0,0)
(0,0,0)
(0,0,0)
(0,0,0)
(0,0,0)
(0,0,0)
(0,0,0)
(0,0,0)
(0,0,0)
(0,0,0)
(0,0,0)
(0,0,0)
(0,0,0)
(0,0,0)
(0,0,0)
(0,0,0)
(0,0,0)
(0,0,0)
(0,0,0)
(0,0,0)
(0,0,0)
(0,0,0)
(0,0,0)
(0,0,0)
(0,0,0)
(0,0,0)
(0,0,0)
(0,0,0)
(0,0,0)
(0,0,0)
(0,0,0)
(0,0,0)
(0,0,0)
(0,0,0)
(0,0,0)
(0,0,0)
(0,0,0)
(0,0,0)
(0,0,0)
(0,0,0)
(0,0,0)
(0,0,0)
(0,0,0)
(0,0,0)
(0,0,0)
(0,0,0)
(0,0,0)
(0,0,0)
(0,0,0)
(0,0,0)
(0,0,0)
(0,0,0)
(0,0,0)
(0,0,0)
(0,0,0)
(0,0,0)
(0,0,0)
(0,0,0)
(0,0,0)
(0,0,0)
(0,0,0)
(0,0,0)
(0,0,0)
(0,0,0)
(0,0,0)
(0,0,0)
(0,0,0)
(0,0,0)
(0,0,0)
(0,0,0)
(0,0,0)
(0,0,0)
(0,0,0)
(0,0,0)
(0,0,0)
(0,0,0)
(0,0,0)
(0,0,0)
(0,0,0)
(0,0,0)
(0,0,0)
(0,0,0)
(0,0,0)
(0,0,0)
(0,0,0)
(0,0,0)
(0,0,0)
(0,0,0)
(0,0,0)
(0,0,0)
(0,0,0)
(0,0,0)
(0,0,0)
(0,0,0)
(0,0,0)
(0,0,0)
(0,0,0)
(0,0,0)
(0,0,0)
(0,0,0)
(0,0,0)
(0,0,0)
(0,0,0)
(0,0,0)
(0,0,0)
(0,0,0)
(0,0,0)
(0,0,0)
(0,0,0)
(0,0,0)
(0,0,0)
(0,0,0)
(0,0,0)
(0,0,0)
(0,0,0)
(0,0,0)
(0,0,0)
(0,0,0)
(0,0,0)
(0,0,0)
(0,0,0)
(0,0,0)
(0,0,0)
(0,0,0)
(0,0,0)
(0,0,0)
(0,0,0)
(0,0,0)
(0,0,0)
(0,0,0)
(0,0,0)
(0,0,0)
(0,0,0)
(0,0,0)
(0,0,0)
(0,0,0)
(0,0,0)
(0,0,0)
(0,0,0)
(0,0,0)
(0,0,0)
(0,0,0)
(0,0,0)
(0,0,0)
(0,0,0)
(0,0,0)
(0,0,0)
(0,0,0)
(0,0,0)
(0,0,0)
(0,0,0)
(0,0,0)
(0,0,0)
(0,0,0)
(0,0,0)
(0,0,0)
(0,0,0)
(0,0,0)
(0,0,0)
(0,0,0)
(0,0,0)
(0,0,0)
(0,0,0)
(0,0,0)
(0,0,0)
(0,0,0)
(0,0,0)
(0,0,0)
(0,0,0)
(0,0,0)
(0,0,0)
(0,0,0)
(0,0,0)
(0,0,0)
(0,0,0)
(0,0,0)
(0,0,0)
(0,0,0)
(0,0,0)
(0,0,0)
(0,0,0)
(0,0,0)
(0,0,0)
(0,0,0)
(0,0,0)
(0,0,0)
(0,0,0)
(0,0,0)
(0,0,0)
(0,0,0)
(0,0,0)
(0,0,0)
(0,0,0)
(0,0,0)
(0,0,0)
(0,0,0)
(0,0,0)
(0,0,0)
(0,0,0)
(0,0,0)
(0,0,0)
(0,0,0)
(0,0,0)
(0,0,0)
(0,0,0)
(0,0,0)
(0,0,0)
(0,0,0)
(0,0,0)
(0,0,0)
(0,0,0)
(0,0,0)
(0,0,0)
(0,0,0)
(0,0,0)
(0,0,0)
(0,0,0)
(0,0,0)
(0,0,0)
(0,0,0)
(0,0,0)
(0,0,0)
(0,0,0)
(0,0,0)
(0,0,0)
(0,0,0)
(0,0,0)
(0,0,0)
(0,0,0)
(0,0,0)
(0,0,0)
(0,0,0)
(0,0,0)
(0,0,0)
(0,0,0)
(0,0,0)
(0,0,0)
(0,0,0)
(0,0,0)
(0,0,0)
(0,0,0)
(0,0,0)
(0,0,0)
(0,0,0)
(0,0,0)
(0,0,0)
(0,0,0)
(0,0,0)
(0,0,0)
(0,0,0)
(0,0,0)
(0,0,0)
(0,0,0)
(0,0,0)
(0,0,0)
(0,0,0)
(0,0,0)
(0,0,0)
(0,0,0)
(0,0,0)
(0,0,0)
(0,0,0)
(0,0,0)
(0,0,0)
(0,0,0)
(0,0,0)
(0,0,0)
(0,0,0)
(0,0,0)
(0,0,0)
(0,0,0)
(0,0,0)
(0,0,0)
(0,0,0)
(0,0,0)
(0,0,0)
(0,0,0)
(0,0,0)
(0,0,0)
(0,0,0)
(0,0,0)
(0,0,0)
(0,0,0)
(0,0,0)
(0,0,0)
(0,0,0)
(0,0,0)
(0,0,0)
(0,0,0)
(0,0,0)
(0,0,0)
(0,0,0)
(0,0,0)
(0,0,0)
(0,0,0)
(0,0,0)
(0,0,0)
(0,0,0)
(0,0,0)
(0,0,0)
(0,0,0)
(0,0,0)
(0,0,0)
(0,0,0)
(0,0,0)
(0,0,0)
(0,0,0)
(0,0,0)
(0,0,0)
(0,0,0)
(0,0,0)
(0,0,0)
(0,0,0)
(0,0,0)
(0,0,0)
(0,0,0)
(0,0,0)
(0,0,0)
(0,0,0)
(0,0,0)
(0,0,0)
(0,0,0)
(0,0,0)
(0,0,0)
(0,0,0)
(0,0,0)
(0,0,0)
(0,0,0)
(0,0,0)
(0,0,0)
(0,0,0)
(0,0,0)
(0,0,0)
(0,0,0)
(0,0,0)
(0,0,0)
(0,0,0)
(0,0,0)
(0,0,0)
(0,0,0)
(0,0,0)
(0,0,0)
(0,0,0)
(0,0,0)
(0,0,0)
(0,0,0)
(0,0,0)
(0,0,0)
(0,0,0)
(0,0,0)
(0,0,0)
(0,0,0)
(0,0,0)
(0,0,0)
(0,0,0)
(0,0,0)
(0,0,0)
(0,0,0)
(0,0,0)
(0,0,0)
(0,0,0)
(0,0,0)
(0,0,0)
(0,0,0)
(0,0,0)
(0,0,0)
(0,0,0)
(0,0,0)
(0,0,0)
(0,0,0)
(0,0,0)
(0,0,0)
(0,0,0)
(-104684.502869879,55787.478107453,48897.0247624251)
(-110703.978767295,53489.7045682857,106111.298961434)
(-124686.012538991,48714.5371826039,182082.774317817)
(-151118.931522031,41206.9494457754,291994.756394084)
(-198762.4521297,31058.0277704955,459699.180753289)
(-284153.604624343,19370.9990105235,724481.786367112)
(-438700.334278172,8755.88099480675,1154426.2396505)
(-717982.743791629,2251.12754996165,1870157.85589218)
(-1184094.92187258,87.8941515191746,3054164.8836132)
(-1649777.50558113,-117.134562172102,4704059.52375658)
(0,0,0)
(0,0,0)
(0,0,0)
(0,0,0)
(0,0,0)
(0,0,0)
(-110742.479471818,119947.919264645,46582.0383146249)
(-116832.815756886,115598.080042532,101306.478597267)
(-131027.235112777,106510.785028396,174537.46586425)
(-158059.228952397,91961.282103321,281842.362159102)
(-207007.55798682,71855.3086625661,448052.639253849)
(-294458.543585797,47975.9194798671,713906.262370291)
(-450695.676940329,25374.2964335898,1147983.52387183)
(-728909.967380159,11056.4608028453,1868088.15799906)
(-1191371.76433575,5456.48260038344,3054091.33388599)
(-1653158.38120697,2795.91656897444,4704336.66396173)
(0,0,0)
(0,0,0)
(0,0,0)
(0,0,0)
(0,0,0)
(0,0,0)
(-124537.727816015,202233.707635408,42251.9394452523)
(-130750.500457754,196401.979343538,92198.5406020038)
(-145397.421062563,184063.202462745,160043.544230223)
(-173763.904909802,163946.572552145,261822.158691202)
(-225820.670366529,135269.616196533,424228.521523751)
(-318690.597640482,99521.2589285121,691373.779715591)
(-480316.628448288,63320.8475225713,1133743.85707491)
(-756196.553743855,38447.863631746,1862549.00798981)
(-1208939.47174969,25362.2687984335,3051582.69354152)
(-1661105.5647607,13745.7967620792,4701738.37810911)
(0,0,0)
(0,0,0)
(0,0,0)
(0,0,0)
(0,0,0)
(0,0,0)
(-150284.325078316,316085.157854527,36432.8748591975)
(-156597.192082782,309552.077689219,79879.9685963003)
(-171815.26550465,295660.490168828,140097.94639486)
(-202129.931027205,272799.631914726,233374.818059476)
(-259342.827916194,239327.801909131,388659.460263084)
(-362615.004110554,195452.943019783,655342.780282358)
(-537074.304955648,146726.078629825,1109011.85413075)
(-808991.387258063,106941.050291262,1849510.05472927)
(-1241144.26989173,75986.8597716978,3040029.73364767)
(-1675155.83172118,40888.1185170392,4688043.24361406)
(0,0,0)
(0,0,0)
(0,0,0)
(0,0,0)
(0,0,0)
(0,0,0)
(-196378.107617182,482500.786926641,29962.4785450625)
(-202683.032652327,476123.640736439,66073.9481501679)
(-218216.055861708,462520.415842632,117430.07833807)
(-250158.538870423,440208.691938921,200179.557184298)
(-312682.969450427,407222.022462396,344968.306081461)
(-428839.920760369,362495.030768973,606766.13909262)
(-623499.347816718,307657.60536061,1069333.96017855)
(-889373.610308041,247072.790673033,1818575.83010486)
(-1287961.87973057,177600.002428478,3004924.56717876)
(-1695471.7049287,94148.5662938733,4647135.82433062)
(0,0,0)
(0,0,0)
(0,0,0)
(0,0,0)
(0,0,0)
(0,0,0)
(-279606.450860533,738413.536669212,23693.7011179674)
(-285590.435440507,732704.621722945,52703.1555719611)
(-300621.446519511,720512.130642178,95332.8872919294)
(-332255.333737662,700416.474840258,167380.438128244)
(-395432.268181585,669720.44843599,300314.280336243)
(-513801.025495861,624571.203891365,552039.132709721)
(-709061.938430154,559943.331632848,1008815.34486763)
(-962879.272743493,469665.153248636,1749102.25503553)
(-1338647.24651085,343899.311916343,2921450.19205858)
(-1721021.50113507,183603.816654525,4553016.44283293)
(0,0,0)
(0,0,0)
(0,0,0)
(0,0,0)
(0,0,0)
(0,0,0)
(-432490.137876179,1152759.93337044,18143.7411749445)
(-437775.082167419,1147774.55025237,40848.8948129522)
(-451239.163570138,1137107.98011856,75492.2089067125)
(-480106.325699809,1119130.06349273,136884.945954052)
(-538772.791956471,1090057.79688526,255320.389461256)
(-650016.485775115,1042339.81492944,487568.264198303)
(-833285.640420885,962193.119469147,918604.116782904)
(-1064086.49287863,828964.631170519,1623391.13173965)
(-1414164.7829701,620229.065679472,2761226.16094656)
(-1762678.67799329,337946.155189026,4369562.50040544)
(0,0,0)
(0,0,0)
(0,0,0)
(0,0,0)
(0,0,0)
(0,0,0)
(-712010.778691679,1851385.56144601,13385.1506161114)
(-716229.037054035,1846853.92167476,30534.8162477682)
(-727061.613277542,1836941.15401446,57763.2556294359)
(-750509.435065217,1819406.24376944,107996.51041792)
(-798710.927196402,1788966.2390154,207798.99548418)
(-891206.067312839,1733759.61297619,407585.264750258)
(-1044696.67919143,1628999.6364806,785475.426930194)
(-1231546.13866263,1431239.09511197,1414747.10165139)
(-1551262.1067382,1107218.09064073,2479020.18342833)
(-1842343.00808762,627586.215027954,4031723.13167699)
(0,0,0)
(0,0,0)
(0,0,0)
(0,0,0)
(0,0,0)
(0,0,0)
(-1180038.84172296,3022428.74262717,8995.66054178443)
(-1182904.79509962,3017882.44096308,20871.9363530748)
(-1190254.41065841,3007608.80660051,40458.6944253623)
(-1206017.8985344,2988174.42293234,77708.4137968486)
(-1237853.50500886,2951788.2575617,152739.900259419)
(-1297704.87703903,2881264.9856512,302939.404623448)
(-1398170.28148507,2742292.8629272,587816.45966192)
(-1547429.71783543,2475654.68583362,1090830.58677573)
(-1804143.79084538,2002741.91819002,1999450.55007171)
(-1981294.09763573,1204117.57707796,3404213.28565745)
(0,0,0)
(0,0,0)
(0,0,0)
(0,0,0)
(0,0,0)
(0,0,0)
(-1647887.85236209,4665732.1813748,4584.41361445732)
(-1649328.69891273,4661024.84851622,10770.7049740475)
(-1652987.62846556,4650115.5474032,21251.5926369528)
(-1660746.94749123,4628674.41323993,41498.5498206375)
(-1676152.15300823,4587052.78798975,82386.172400834)
(-1704961.56794248,4504506.42762115,164106.29837334)
(-1755225.9267939,4340306.83793454,321318.250159872)
(-1839956.99760094,4018873.19255474,618056.741039666)
(-1980845.96603632,3400764.59733433,1200880.02793161)
(-1994922.91677112,2199888.01715044,2200032.50463031)
(0,0,0)
(0,0,0)
(0,0,0)
(0,0,0)
(0,0,0)
(0,0,0)
(0,0,0)
(0,0,0)
(0,0,0)
(0,0,0)
(0,0,0)
(0,0,0)
(0,0,0)
(0,0,0)
(0,0,0)
(0,0,0)
(0,0,0)
(0,0,0)
(0,0,0)
(0,0,0)
(0,0,0)
(0,0,0)
(0,0,0)
(0,0,0)
(0,0,0)
(0,0,0)
(0,0,0)
(0,0,0)
(0,0,0)
(0,0,0)
(0,0,0)
(0,0,0)
(0,0,0)
(0,0,0)
(0,0,0)
(0,0,0)
(0,0,0)
(0,0,0)
(0,0,0)
(0,0,0)
(0,0,0)
(0,0,0)
(0,0,0)
(0,0,0)
(0,0,0)
(0,0,0)
(0,0,0)
(0,0,0)
(0,0,0)
(0,0,0)
(0,0,0)
(0,0,0)
(0,0,0)
(0,0,0)
(0,0,0)
(0,0,0)
(0,0,0)
(0,0,0)
(0,0,0)
(0,0,0)
(0,0,0)
(0,0,0)
(0,0,0)
(0,0,0)
(0,0,0)
(0,0,0)
(0,0,0)
(0,0,0)
(0,0,0)
(0,0,0)
(0,0,0)
(0,0,0)
(0,0,0)
(0,0,0)
(0,0,0)
(0,0,0)
(0,0,0)
(0,0,0)
(0,0,0)
(0,0,0)
(0,0,0)
(0,0,0)
(0,0,0)
(0,0,0)
(0,0,0)
(0,0,0)
(0,0,0)
(0,0,0)
(0,0,0)
(0,0,0)
(0,0,0)
(0,0,0)
(0,0,0)
(0,0,0)
(0,0,0)
(0,0,0)
(0,0,0)
(0,0,0)
(0,0,0)
(0,0,0)
(0,0,0)
(0,0,0)
(15472160.3756701,49744.825816054,42843.0615755407)
(15462056.3139202,47371.3104312372,92144.224388448)
(15438785.0710955,42383.8044150727,155722.102270334)
(15395325.0989623,34267.0573465087,244443.780370991)
(15318026.017028,22795.723331507,374292.353813329)
(15180717.9323733,9048.63895215034,569804.943794988)
(14928874.309921,-3281.67628972697,874944.741816892)
(14431234.29639,-8728.73542445166,1403889.20299129)
(13308147.3551686,-7241.2933326393,2588320.98521431)
(10257860.5280511,-3568.25685598576,6353683.97436967)
(0,0,0)
(0,0,0)
(0,0,0)
(0,0,0)
(0,0,0)
(0,0,0)
(15461820.3481257,106123.714734789,40491.0494153293)
(15451692.7604104,101646.396189859,87123.153421055)
(15428242.6666094,92112.6867281162,147557.135317387)
(15383993.6155053,76227.3683196266,232976.745818193)
(15304591.0475541,53009.3789532378,360597.250587118)
(15163409.703262,23695.1437487464,557515.264874245)
(14907728.048071,-4297.50311126692,869540.132616139)
(14412158.5851044,-16256.0035378868,1405431.61417649)
(13296295.798564,-12155.7381564259,2592111.26203196)
(10252695.4607655,-5216.10455740801,6357338.03369228)
(0,0,0)
(0,0,0)
(0,0,0)
(0,0,0)
(0,0,0)
(0,0,0)
(15438479.5590949,176483.381147539,36055.8126077776)
(15428303.6205731,170525.130617443,77555.7230808161)
(15404404.7501695,157607.526443918,131691.478064576)
(15358240.5275925,135537.563251821,209809.616561715)
(15273359.2915436,101730.549317736,331341.250218623)
(15120600.6587904,55561.1911996324,529616.712268485)
(14850258.5930725,6515.53836994727,857661.215198104)
(14359387.7135633,-14353.926923948,1409607.63720865)
(13265596.5229032,-6853.09385547306,2599201.76418623)
(10239969.2529691,-318.902408537829,6362662.51023914)
(0,0,0)
(0,0,0)
(0,0,0)
(0,0,0)
(0,0,0)
(0,0,0)
(15395564.5181746,269924.034133877,30143.269692249)
(15385418.3179179,263395.521764772,64690.1344757996)
(15360931.5312417,249194.590889819,109789.039215078)
(15311748.5519249,224696.442029483,176184.443416909)
(15216748.1892021,185921.274877857,285335.466670114)
(15037830.1847988,129138.551666974,480745.683224951)
(14722484.6809129,60226.35371572,836908.64794223)
(14239269.9154603,26554.4188253042,1417171.76540619)
(13203586.4804602,29205.8707004766,2605814.81642974)
(10216156.3566835,20600.4952397396,6363015.99630856)
(0,0,0)
(0,0,0)
(0,0,0)
(0,0,0)
(0,0,0)
(0,0,0)
(15320078.3149111,399184.352481574,23716.0250555252)
(15310153.3787312,393104.580256962,50603.3211113388)
(15285527.3415351,380015.587525275,85471.6930107056)
(15233786.6126942,358017.234801074,137638.514605951)
(15127210.8680326,324368.223538437,228730.494393986)
(14909047.7231619,277425.657377976,411988.510692378)
(14492790.0569957,222020.938671462,803337.286855774)
(14016558.0224355,173531.761351164,1419861.07751802)
(13106371.6562509,126926.494969102,2597239.68319934)
(10180725.2081656,68621.2907383144,6342454.74053786)
(0,0,0)
(0,0,0)
(0,0,0)
(0,0,0)
(0,0,0)
(0,0,0)
(15185741.741108,585506.694435589,17762.2320089312)
(15176486.5651661,580486.416958669,37736.1606321045)
(15153020.0956795,569856.25310308,63686.7187868552)
(15102222.744223,552472.616855761,104186.024703227)
(14994427.9928441,526242.755944071,181883.997203403)
(14770003.6641581,488260.498294639,356677.232564284)
(14348483.6816441,435688.077852046,754897.239241097)
(13893302.950917,368432.804299208,1373246.73856413)
(13023656.0503533,268354.739855432,2538947.96274526)
(10140142.1102161,141908.727128633,6273929.68093519)
(0,0,0)
(0,0,0)
(0,0,0)
(0,0,0)
(0,0,0)
(0,0,0)
(14936458.1288581,873120.452905467,12870.7407274038)
(14928400.2684545,869232.242646817,27382.3303488029)
(14907640.7900312,861220.428315956,46570.9674662006)
(14861575.2683952,848605.062869939,78189.6932885119)
(14761089.2105816,829963.427734412,144039.784891712)
(14546446.4759571,801055.098922997,304214.988462596)
(14137589.2873839,750744.721240098,687716.183201207)
(13726784.4897905,661476.507538356,1273234.26322452)
(12901140.8661045,483099.153764676,2412616.96617207)
(10070883.9865858,258233.192662668,6132162.60199054)
(0,0,0)
(0,0,0)
(0,0,0)
(0,0,0)
(0,0,0)
(0,0,0)
(14438210.7767858,1383184.95704061,9146.7063189316)
(14431865.605213,1380055.51624941,19661.5563808253)
(14415357.8528177,1373660.02034617,34235.2641869498)
(14378197.6569401,1363806.71647293,59759.2845101084)
(14295441.0051792,1349723.09544082,115280.450359561)
(14113350.5845868,1327190.81954357,254020.843771056)
(13755446.1584689,1275494.18674942,598561.306532981)
(13487623.8837752,1115330.65860388,1094969.89896106)
(12654050.1790471,854320.056632259,2187869.47623976)
(9910599.43200113,488608.122805977,5873984.87193918)
(0,0,0)
(0,0,0)
(0,0,0)
(0,0,0)
(0,0,0)
(0,0,0)
(13312109.6403265,2554376.90399816,6092.33692457891)
(13307875.8818507,2551325.52658897,13474.4155662516)
(13296868.2925644,2544805.60820179,24638.890419309)
(13272582.8509445,2533427.81033274,45849.8130121307)
(13220814.007295,2513466.97547778,92871.1866027737)
(13115377.6922373,2473994.18802243,202418.014779208)
(12925393.4019142,2385256.25338975,438525.030671241)
(12658616.4289765,2183168.52234022,834073.786054592)
(11905341.6149045,1826095.07625239,1822246.12661617)
(9423019.80057577,1190524.80650578,5385448.31063642)
(0,0,0)
(0,0,0)
(0,0,0)
(0,0,0)
(0,0,0)
(0,0,0)
(10259327.4138123,6313475.40810829,3118.99564698821)
(10257230.6503497,6310236.53544953,7081.40345546048)
(10251828.3038196,6303030.52368902,13473.3216146287)
(10240151.1145115,6289368.12268297,26067.7131933128)
(10216106.1031611,6263165.65158773,53543.546845681)
(10168749.3564373,6209472.40644165,113787.169978248)
(10081083.2229578,6095596.42487863,236570.61466927)
(9913178.49734357,5858897.20572508,477139.202271611)
(9423412.2725771,5381646.54596597,1186762.25987621)
(7662084.19365947,4194804.04270156,4194908.67918137)
(0,0,0)
(0,0,0)
(0,0,0)
(0,0,0)
(0,0,0)
(0,0,0)
(0,0,0)
(0,0,0)
(0,0,0)
(0,0,0)
(0,0,0)
(0,0,0)
(0,0,0)
(0,0,0)
(0,0,0)
(0,0,0)
(0,0,0)
(0,0,0)
(0,0,0)
(0,0,0)
(0,0,0)
(0,0,0)
(0,0,0)
(0,0,0)
(0,0,0)
(0,0,0)
(0,0,0)
(0,0,0)
(0,0,0)
(0,0,0)
(0,0,0)
(0,0,0)
(0,0,0)
(0,0,0)
(0,0,0)
(0,0,0)
(0,0,0)
(0,0,0)
(0,0,0)
(0,0,0)
(0,0,0)
(0,0,0)
(0,0,0)
(0,0,0)
(0,0,0)
(0,0,0)
(0,0,0)
(0,0,0)
(0,0,0)
(0,0,0)
(0,0,0)
(0,0,0)
(0,0,0)
(0,0,0)
(0,0,0)
(0,0,0)
(0,0,0)
(0,0,0)
(0,0,0)
(0,0,0)
(0,0,0)
(0,0,0)
(0,0,0)
(0,0,0)
(0,0,0)
(0,0,0)
(0,0,0)
(0,0,0)
(0,0,0)
(0,0,0)
(0,0,0)
(0,0,0)
(0,0,0)
(0,0,0)
(0,0,0)
(0,0,0)
(0,0,0)
(0,0,0)
(0,0,0)
(0,0,0)
(0,0,0)
(0,0,0)
(0,0,0)
(0,0,0)
(0,0,0)
(0,0,0)
(0,0,0)
(0,0,0)
(0,0,0)
(0,0,0)
(0,0,0)
(0,0,0)
(0,0,0)
(0,0,0)
(0,0,0)
(0,0,0)
(0,0,0)
(0,0,0)
(0,0,0)
(0,0,0)
(0,0,0)
(0,0,0)
(-269465.212166882,39454.3980721845,32738.4238332247)
(-280616.351415244,37048.3022333083,68930.0210037169)
(-305894.207693915,31838.5683492359,112337.965512448)
(-351845.677199037,22894.7408914017,167181.234850882)
(-430399.197569966,9300.08729977456,236873.596217539)
(-561286.114381223,-8300.98970864586,317745.866749244)
(-775279.978652434,-24493.1621038016,376960.551495096)
(-1113856.45770022,-27866.3445275529,280484.884181279)
(-1599386.95061525,-19139.0918121464,-462274.484154261)
(-1960542.22629115,-8776.61667422814,-3904527.8790693)
(0,0,0)
(0,0,0)
(0,0,0)
(0,0,0)
(0,0,0)
(0,0,0)
(-281293.46930396,82754.0559232698,30381.3936469887)
(-292252.968850958,78227.4117200566,63715.2474899639)
(-317244.158584672,68226.1086887841,103381.766412934)
(-363221.784860288,50421.026281766,153638.115456539)
(-442949.81769449,21694.7141382126,219351.587935132)
(-577387.59695594,-19201.0392630851,301616.171775988)
(-796378.022123287,-61838.2604010079,373634.574335816)
(-1131686.20666819,-69061.8353386184,289242.090987957)
(-1608336.08860298,-42876.3174230007,-451821.562165622)
(-1963682.63415041,-17966.2802759978,-3895686.56957932)
(0,0,0)
(0,0,0)
(0,0,0)
(0,0,0)
(0,0,0)
(0,0,0)
(-307631.808600056,133529.51832499,25903.1393617932)
(-318228.526315,127559.255166754,53670.6768717159)
(-342750.199141742,114061.043321623,85557.9256184907)
(-389159.875225482,88996.0415811201,124950.547205493)
(-472994.636201131,45062.1640243426,178504.25913255)
(-621296.692894017,-27298.6489999454,259066.454622195)
(-867105.107344213,-121326.447341851,366485.576048128)
(-1193597.81625713,-134512.715081004,315489.219679322)
(-1635534.25339988,-68901.3829343017,-426787.704437709)
(-1972411.63176783,-24158.12067683,-3877647.74523155)
(0,0,0)
(0,0,0)
(0,0,0)
(0,0,0)
(0,0,0)
(0,0,0)
(-354654.510869825,194306.925059525,20008.8563783822)
(-364667.329397099,187987.754944204,40233.2379843707)
(-388490.900425426,173670.791163,60613.155878586)
(-435854.146096257,146622.353000698,81156.776548566)
(-529016.771927176,96265.0566423287,106286.079128246)
(-718011.221068738,225.23517790114,165170.834886427)
(-1086917.79880513,-169574.390021884,353388.491352887)
(-1396209.89671479,-196230.815397795,381153.637913201)
(-1703584.38783865,-68041.270616684,-381968.372037011)
(-1991097.63683812,-14843.8160458981,-3853461.44907801)
(0,0,0)
(0,0,0)
(0,0,0)
(0,0,0)
(0,0,0)
(0,0,0)
(-433537.786971793,264664.890330349,13825.3706805613)
(-442739.367844096,259235.066693592,26038.0395749339)
(-465262.195059155,247341.356873786,33724.2445267648)
(-512629.75027605,226326.262137626,31003.9324286304)
(-616827.989256942,191453.450573297,10421.629855565)
(-883496.296593667,138246.910183741,-4488.79132635993)
(-1755152.46821605,77587.3723727579,326859.205559154)
(-2081799.81787965,50151.304529863,509402.160015041)
(-1837123.81936586,44146.1348333404,-328722.535749645)
(-2021747.58779904,28025.6878067789,-3838552.00956915)
(0,0,0)
(0,0,0)
(0,0,0)
(0,0,0)
(0,0,0)
(0,0,0)
(-563640.688105578,336055.754887979,8558.79872447272)
(-571717.946521764,332212.941532748,14352.6696417052)
(-591919.829154842,324288.980223104,12912.2051951591)
(-635969.718681723,311635.498417536,-3637.33411174423)
(-737273.988951851,292700.161002332,-42614.8286763153)
(-1003314.62256913,264540.907125842,-65023.3048226839)
(-1832559.14766069,224686.018739919,299488.112183267)
(-2131723.61563632,201832.654074261,503400.56326056)
(-1899238.61747579,145807.598590002,-344798.998598699)
(-2052316.06254643,72653.7781023311,-3866401.68206313)
(0,0,0)
(0,0,0)
(0,0,0)
(0,0,0)
(0,0,0)
(0,0,0)
(-776464.155930769,374689.813304616,4855.46044065654)
(-783135.906994645,372518.082443651,6653.72904743231)
(-800102.037543104,368774.449962549,478.320950660207)
(-838456.901974472,365054.516295876,-22341.2924894996)
(-931469.218644433,364105.443671294,-70620.9118640341)
(-1192069.32244606,367763.695059157,-104760.66732564)
(-2057161.09950641,368474.780389647,276768.191983501)
(-2333767.98943414,422259.281705926,447461.277644932)
(-1993205.86237495,236004.395497475,-417821.556714423)
(-2102770.59373588,97941.8447787302,-3938887.80900074)
(0,0,0)
(0,0,0)
(0,0,0)
(0,0,0)
(0,0,0)
(0,0,0)
(-1116207.47170579,256886.634954096,2788.66091055719)
(-1121229.67971998,255863.603740142,3105.65861552726)
(-1134154.79075161,254995.99151309,-3036.00529728601)
(-1164178.94806027,258059.310719427,-23096.9606519396)
(-1241121.01898729,274961.935474879,-66824.1942204908)
(-1480259.81769905,329079.063279295,-103961.926086468)
(-2425488.23633161,445351.304167176,330663.179004938)
(-1976487.5293675,286277.714543609,261323.393378433)
(-2067917.21389085,105592.595402156,-555730.179519784)
(-2180835.92137388,1003.75655281854,-4036789.50385028)
(0,0,0)
(0,0,0)
(0,0,0)
(0,0,0)
(0,0,0)
(0,0,0)
(-1603499.00870281,-498740.935233644,1803.45328547016)
(-1606710.33312263,-499587.942506427,2408.44857381066)
(-1614970.66424945,-500440.206032353,250.837001625878)
(-1633407.82222498,-499119.793705111,-6012.1513358976)
(-1675766.52221387,-491335.266403007,-12567.1858806116)
(-1777189.59055847,-472747.191379399,12393.5856422116)
(-1998862.92026898,-459139.930156205,171708.376217182)
(-2071281.84200912,-562306.520784676,80758.1165994602)
(-2261734.42467264,-655826.202821015,-660179.811531778)
(-2297483.64306706,-570385.193034132,-4037720.18423358)
(0,0,0)
(0,0,0)
(0,0,0)
(0,0,0)
(0,0,0)
(0,0,0)
(-1963683.65191502,-3946142.11592323,979.480485331192)
(-1965233.87491986,-3947215.30617848,1638.60349533817)
(-1969187.92110341,-3948959.79256678,1741.64902129193)
(-1977715.19346381,-3950892.32505492,1947.72241476853)
(-1995894.27658719,-3952982.9961527,6163.06598117023)
(-2034077.9107483,-3959265.26277083,26075.6386266271)
(-2104636.53044807,-3985424.16677202,68646.8627167266)
(-2183079.35224431,-4054201.32930849,-12633.2451033195)
(-2298145.72554945,-4041721.6630249,-574612.552704487)
(-2217815.28417426,-3467253.2398506,-3467277.79398593)
(0,0,0)
(0,0,0)
(0,0,0)
(0,0,0)
(0,0,0)
(0,0,0)
(0,0,0)
(0,0,0)
(0,0,0)
(0,0,0)
(0,0,0)
(0,0,0)
(0,0,0)
(0,0,0)
(0,0,0)
(0,0,0)
(0,0,0)
(0,0,0)
(0,0,0)
(0,0,0)
(0,0,0)
(0,0,0)
(0,0,0)
(0,0,0)
(0,0,0)
(0,0,0)
(0,0,0)
(0,0,0)
(0,0,0)
(0,0,0)
(0,0,0)
(0,0,0)
(0,0,0)
(0,0,0)
(0,0,0)
(0,0,0)
(0,0,0)
(0,0,0)
(0,0,0)
(0,0,0)
(0,0,0)
(0,0,0)
(0,0,0)
(0,0,0)
(0,0,0)
(0,0,0)
(0,0,0)
(0,0,0)
(0,0,0)
(0,0,0)
(0,0,0)
(0,0,0)
(0,0,0)
(0,0,0)
(0,0,0)
(0,0,0)
(0,0,0)
(0,0,0)
(0,0,0)
(0,0,0)
(0,0,0)
(0,0,0)
(0,0,0)
(0,0,0)
(0,0,0)
(0,0,0)
(0,0,0)
(0,0,0)
(0,0,0)
(0,0,0)
(0,0,0)
(0,0,0)
(0,0,0)
(0,0,0)
(0,0,0)
(0,0,0)
(0,0,0)
(0,0,0)
(0,0,0)
(0,0,0)
(0,0,0)
(0,0,0)
(0,0,0)
(0,0,0)
(0,0,0)
(0,0,0)
(0,0,0)
(0,0,0)
(0,0,0)
(0,0,0)
(0,0,0)
(0,0,0)
(0,0,0)
(0,0,0)
(0,0,0)
(0,0,0)
(0,0,0)
(0,0,0)
(0,0,0)
(0,0,0)
(0,0,0)
(0,0,0)
(-318741.53624386,27641.1396810811,21635.1843958964)
(-328188.74874439,25436.8648922612,43770.7168327851)
(-349090.964051192,20481.8917574776,66485.5814325875)
(-385540.840667252,11488.044546591,88692.7003542088)
(-444315.155663762,-3303.11655471694,105911.775002721)
(-534512.309013324,-24441.3329491942,103579.302584016)
(-664076.40879944,-45629.5097964018,38005.2425274241)
(-824635.461446288,-45710.4595888367,-205505.29413767)
(-952996.378180137,-28085.8293500972,-823810.037222649)
(-828069.476127228,-11921.1836347269,-1944361.60375182)
(0,0,0)
(0,0,0)
(0,0,0)
(0,0,0)
(0,0,0)
(0,0,0)
(-329465.935280964,56350.8715973411,19462.7340607427)
(-338384.943078044,52221.0414140194,38810.5317660726)
(-358118.647106418,42672.4214495056,57494.4905957942)
(-392625.403728052,24426.5060017989,73959.6480083441)
(-448693.4911355,-8422.25456822917,84822.45946286)
(-536269.961210798,-63149.3887059006,82412.8794744305)
(-664985.282839685,-132548.860648752,37939.4910431803)
(-820671.55253147,-130914.009738071,-187871.612944301)
(-946663.004403424,-70020.0565737541,-807610.469920183)
(-824163.883187041,-26653.0376067412,-1932397.36691162)
(0,0,0)
(0,0,0)
(0,0,0)
(0,0,0)
(0,0,0)
(0,0,0)
(-352967.978419882,86347.9624133779,15339.0790037949)
(-360856.265233993,80976.5725825362,29211.2867542695)
(-378284.492943153,68178.8697168593,39239.1322883246)
(-408806.099459283,42161.349932182,41150.5125917426)
(-459265.679283402,-11097.6321768771,30096.9332826588)
(-543261.938665136,-124107.588762329,13020.3791101908)
(-685109.671532304,-341143.344338191,39619.4269877212)
(-820887.884414701,-337100.913941814,-126903.600650987)
(-931354.798119335,-136955.670339297,-764147.442165985)
(-814706.32721829,-42842.2464502492,-1905663.53787204)
(0,0,0)
(0,0,0)
(0,0,0)
(0,0,0)
(0,0,0)
(0,0,0)
(-393430.017890854,115144.124546984,9979.34488743139)
(-399850.156115897,109691.746527416,16446.9976613539)
(-413900.370770297,96700.9069761254,13334.430746963)
(-437990.727217592,69622.6406568769,-11990.278856396)
(-477547.412468234,8258.10575829483,-82815.3762505085)
(-555556.793445658,-165410.319758804,-203967.07287712)
(-837842.175226686,-837907.227721896,43721.1869281353)
(-881046.07186886,-881869.979820737,73326.4279611238)
(-895686.18448499,-201593.234320293,-669934.211411557)
(-795599.832217768,-45502.1097084825,-1862772.15277374)
(0,0,0)
(0,0,0)
(0,0,0)
(0,0,0)
(0,0,0)
(0,0,0)
(-457265.904216013,134270.971700242,4601.27009096111)
(-462027.885951074,130017.17498681,3564.35973854801)
(-471909.905711311,120476.312702935,-13563.3353360972)
(-486158.024925768,102764.58976731,-73177.0097968113)
(-496238.031640753,70813.7959735807,-256322.657628291)
(-447164.665079697,18261.5985186469,-876326.20741972)
(8.82766187040341e-05,2.2446278060831e-05,-5.65514411172115e-05)