/*--------------------------------*- C++ -*----------------------------------*\
| =========                 |                                                 |
| \\      /  F ield         | foam-extend: Open Source CFD                    |
|  \\    /   O peration     | Version:     4.0                                |
|   \\  /    A nd           | Web:         http://www.foam-extend.org         |
|    \\/     M anipulation  |                                                 |
\*---------------------------------------------------------------------------*/
FoamFile
{
    version 2.0;
    format ascii;
    class volVectorField;
    location "484";
    object      H;
}
// * * * * * * * * * * * * * * * * * * * * * * * * * * * * * * * * * * * * * //

dimensions      [0 1 -1 0 0 0 0];

internalField   nonuniform List<vector>
4096
(
(0,0,0)
(0,0,0)
(0,0,0)
(0,0,0)
(0,0,0)
(0,0,0)
(0,0,0)
(0,0,0)
(0,0,0)
(0,0,0)
(0,0,0)
(0,0,0)
(0,0,0)
(0,0,0)
(0,0,0)
(0,0,0)
(0,0,0)
(0,0,0)
(0,0,0)
(0,0,0)
(0,0,0)
(0,0,0)
(0,0,0)
(0,0,0)
(0,0,0)
(0,0,0)
(0,0,0)
(0,0,0)
(0,0,0)
(0,0,0)
(0,0,0)
(0,0,0)
(0,0,0)
(0,0,0)
(0,0,0)
(0,0,0)
(0,0,0)
(0,0,0)
(0,0,0)
(0,0,0)
(0,0,0)
(0,0,0)
(0,0,0)
(0,0,0)
(0,0,0)
(0,0,0)
(0,0,0)
(0,0,0)
(0,0,0)
(0,0,0)
(0,0,0)
(0,0,0)
(0,0,0)
(0,0,0)
(0,0,0)
(0,0,0)
(0,0,0)
(0,0,0)
(0,0,0)
(0,0,0)
(0,0,0)
(0,0,0)
(0,0,0)
(0,0,0)
(0,0,0)
(0,0,0)
(0,0,0)
(0,0,0)
(0,0,0)
(0,0,0)
(0,0,0)
(0,0,0)
(0,0,0)
(0,0,0)
(0,0,0)
(0,0,0)
(0,0,0)
(0,0,0)
(0,0,0)
(0,0,0)
(0,0,0)
(0,0,0)
(0,0,0)
(0,0,0)
(0,0,0)
(0,0,0)
(0,0,0)
(0,0,0)
(0,0,0)
(0,0,0)
(0,0,0)
(0,0,0)
(0,0,0)
(0,0,0)
(0,0,0)
(0,0,0)
(0,0,0)
(0,0,0)
(0,0,0)
(0,0,0)
(0,0,0)
(0,0,0)
(0,0,0)
(0,0,0)
(0,0,0)
(0,0,0)
(0,0,0)
(0,0,0)
(0,0,0)
(0,0,0)
(0,0,0)
(0,0,0)
(0,0,0)
(0,0,0)
(0,0,0)
(0,0,0)
(0,0,0)
(0,0,0)
(0,0,0)
(0,0,0)
(0,0,0)
(0,0,0)
(0,0,0)
(0,0,0)
(0,0,0)
(0,0,0)
(0,0,0)
(0,0,0)
(0,0,0)
(0,0,0)
(0,0,0)
(0,0,0)
(0,0,0)
(0,0,0)
(0,0,0)
(0,0,0)
(0,0,0)
(0,0,0)
(0,0,0)
(0,0,0)
(0,0,0)
(0,0,0)
(0,0,0)
(0,0,0)
(0,0,0)
(0,0,0)
(0,0,0)
(0,0,0)
(0,0,0)
(0,0,0)
(0,0,0)
(0,0,0)
(0,0,0)
(0,0,0)
(0,0,0)
(0,0,0)
(0,0,0)
(0,0,0)
(0,0,0)
(0,0,0)
(0,0,0)
(0,0,0)
(0,0,0)
(0,0,0)
(0,0,0)
(0,0,0)
(0,0,0)
(0,0,0)
(0,0,0)
(0,0,0)
(0,0,0)
(0,0,0)
(0,0,0)
(0,0,0)
(0,0,0)
(0,0,0)
(0,0,0)
(0,0,0)
(0,0,0)
(0,0,0)
(0,0,0)
(0,0,0)
(0,0,0)
(0,0,0)
(0,0,0)
(0,0,0)
(0,0,0)
(0,0,0)
(0,0,0)
(0,0,0)
(0,0,0)
(0,0,0)
(0,0,0)
(0,0,0)
(0,0,0)
(0,0,0)
(0,0,0)
(0,0,0)
(0,0,0)
(0,0,0)
(0,0,0)
(0,0,0)
(0,0,0)
(0,0,0)
(0,0,0)
(0,0,0)
(0,0,0)
(0,0,0)
(0,0,0)
(0,0,0)
(0,0,0)
(0,0,0)
(0,0,0)
(0,0,0)
(0,0,0)
(0,0,0)
(0,0,0)
(0,0,0)
(0,0,0)
(0,0,0)
(0,0,0)
(0,0,0)
(0,0,0)
(0,0,0)
(0,0,0)
(0,0,0)
(0,0,0)
(0,0,0)
(0,0,0)
(0,0,0)
(0,0,0)
(0,0,0)
(0,0,0)
(0,0,0)
(0,0,0)
(0,0,0)
(0,0,0)
(0,0,0)
(0,0,0)
(0,0,0)
(0,0,0)
(0,0,0)
(0,0,0)
(0,0,0)
(0,0,0)
(0,0,0)
(0,0,0)
(0,0,0)
(0,0,0)
(0,0,0)
(0,0,0)
(0,0,0)
(0,0,0)
(0,0,0)
(0,0,0)
(0,0,0)
(0,0,0)
(0,0,0)
(0,0,0)
(0,0,0)
(0,0,0)
(0,0,0)
(0,0,0)
(0,0,0)
(0,0,0)
(0,0,0)
(0,0,0)
(0,0,0)
(0,0,0)
(0,0,0)
(0,0,0)
(0,0,0)
(0,0,0)
(0,0,0)
(0,0,0)
(0,0,0)
(0,0,0)
(0,0,0)
(0,0,0)
(0,0,0)
(0,0,0)
(0,0,0)
(0,0,0)
(0,0,0)
(0,0,0)
(0,0,0)
(0,0,0)
(0,0,0)
(0,0,0)
(0,0,0)
(0,0,0)
(0,0,0)
(0,0,0)
(0,0,0)
(0,0,0)
(0,0,0)
(0,0,0)
(0,0,0)
(0,0,0)
(0,0,0)
(0,0,0)
(0,0,0)
(0,0,0)
(0,0,0)
(0,0,0)
(0,0,0)
(0,0,0)
(0,0,0)
(0,0,0)
(0,0,0)
(0,0,0)
(0,0,0)
(0,0,0)
(0,0,0)
(0,0,0)
(0,0,0)
(0,0,0)
(0,0,0)
(0,0,0)
(0,0,0)
(0,0,0)
(0,0,0)
(0,0,0)
(0,0,0)
(0,0,0)
(0,0,0)
(0,0,0)
(0,0,0)
(0,0,0)
(0,0,0)
(0,0,0)
(0,0,0)
(0,0,0)
(0,0,0)
(0,0,0)
(0,0,0)
(0,0,0)
(0,0,0)
(0,0,0)
(0,0,0)
(0,0,0)
(0,0,0)
(0,0,0)
(0,0,0)
(0,0,0)
(0,0,0)
(0,0,0)
(0,0,0)
(0,0,0)
(0,0,0)
(0,0,0)
(0,0,0)
(0,0,0)
(0,0,0)
(0,0,0)
(0,0,0)
(0,0,0)
(0,0,0)
(0,0,0)
(0,0,0)
(0,0,0)
(0,0,0)
(0,0,0)
(0,0,0)
(0,0,0)
(0,0,0)
(0,0,0)
(0,0,0)
(0,0,0)
(0,0,0)
(0,0,0)
(0,0,0)
(0,0,0)
(0,0,0)
(0,0,0)
(0,0,0)
(0,0,0)
(0,0,0)
(0,0,0)
(0,0,0)
(0,0,0)
(0,0,0)
(0,0,0)
(0,0,0)
(0,0,0)
(0,0,0)
(0,0,0)
(0,0,0)
(0,0,0)
(0,0,0)
(0,0,0)
(0,0,0)
(0,0,0)
(0,0,0)
(0,0,0)
(0,0,0)
(0,0,0)
(0,0,0)
(0,0,0)
(0,0,0)
(0,0,0)
(0,0,0)
(0,0,0)
(0,0,0)
(0,0,0)
(0,0,0)
(0,0,0)
(0,0,0)
(0,0,0)
(0,0,0)
(0,0,0)
(0,0,0)
(0,0,0)
(0,0,0)
(0,0,0)
(0,0,0)
(0,0,0)
(0,0,0)
(0,0,0)
(0,0,0)
(0,0,0)
(0,0,0)
(0,0,0)
(0,0,0)
(0,0,0)
(0,0,0)
(0,0,0)
(0,0,0)
(0,0,0)
(0,0,0)
(0,0,0)
(0,0,0)
(0,0,0)
(0,0,0)
(0,0,0)
(0,0,0)
(0,0,0)
(0,0,0)
(0,0,0)
(0,0,0)
(0,0,0)
(0,0,0)
(0,0,0)
(0,0,0)
(0,0,0)
(0,0,0)
(0,0,0)
(0,0,0)
(0,0,0)
(0,0,0)
(0,0,0)
(0,0,0)
(0,0,0)
(0,0,0)
(0,0,0)
(0,0,0)
(0,0,0)
(0,0,0)
(0,0,0)
(0,0,0)
(0,0,0)
(0,0,0)
(0,0,0)
(0,0,0)
(0,0,0)
(0,0,0)
(0,0,0)
(0,0,0)
(0,0,0)
(0,0,0)
(0,0,0)
(0,0,0)
(0,0,0)
(0,0,0)
(0,0,0)
(0,0,0)
(0,0,0)
(0,0,0)
(0,0,0)
(0,0,0)
(0,0,0)
(0,0,0)
(0,0,0)
(0,0,0)
(0,0,0)
(0,0,0)
(0,0,0)
(0,0,0)
(0,0,0)
(0,0,0)
(0,0,0)
(0,0,0)
(0,0,0)
(0,0,0)
(0,0,0)
(0,0,0)
(0,0,0)
(0,0,0)
(0,0,0)
(0,0,0)
(0,0,0)
(0,0,0)
(0,0,0)
(0,0,0)
(0,0,0)
(0,0,0)
(0,0,0)
(0,0,0)
(0,0,0)
(0,0,0)
(0,0,0)
(0,0,0)
(0,0,0)
(0,0,0)
(0,0,0)
(0,0,0)
(0,0,0)
(0,0,0)
(0,0,0)
(0,0,0)
(0,0,0)
(0,0,0)
(0,0,0)
(0,0,0)
(0,0,0)
(0,0,0)
(0,0,0)
(0,0,0)
(0,0,0)
(0,0,0)
(0,0,0)
(0,0,0)
(0,0,0)
(0,0,0)
(0,0,0)
(0,0,0)
(0,0,0)
(0,0,0)
(0,0,0)
(0,0,0)
(0,0,0)
(0,0,0)
(0,0,0)
(0,0,0)
(0,0,0)
(0,0,0)
(0,0,0)
(0,0,0)
(0,0,0)
(0,0,0)
(0,0,0)
(0,0,0)
(0,0,0)
(0,0,0)
(0,0,0)
(0,0,0)
(0,0,0)
(0,0,0)
(0,0,0)
(0,0,0)
(0,0,0)
(0,0,0)
(0,0,0)
(0,0,0)
(0,0,0)
(0,0,0)
(0,0,0)
(0,0,0)
(0,0,0)
(0,0,0)
(0,0,0)
(0,0,0)
(0,0,0)
(0,0,0)
(0,0,0)
(0,0,0)
(0,0,0)
(0,0,0)
(0,0,0)
(0,0,0)
(0,0,0)
(0,0,0)
(0,0,0)
(0,0,0)
(0,0,0)
(0,0,0)
(0,0,0)
(0,0,0)
(0,0,0)
(0,0,0)
(0,0,0)
(0,0,0)
(0,0,0)
(0,0,0)
(0,0,0)
(0,0,0)
(0,0,0)
(0,0,0)
(0,0,0)
(0,0,0)
(0,0,0)
(0,0,0)
(0,0,0)
(0,0,0)
(0,0,0)
(0,0,0)
(0,0,0)
(0,0,0)
(0,0,0)
(0,0,0)
(0,0,0)
(0,0,0)
(0,0,0)
(0,0,0)
(0,0,0)
(0,0,0)
(0,0,0)
(0,0,0)
(0,0,0)
(0,0,0)
(0,0,0)
(0,0,0)
(0,0,0)
(0,0,0)
(0,0,0)
(0,0,0)
(0,0,0)
(0,0,0)
(0,0,0)
(0,0,0)
(0,0,0)
(0,0,0)
(0,0,0)
(0,0,0)
(0,0,0)
(0,0,0)
(0,0,0)
(0,0,0)
(0,0,0)
(0,0,0)
(0,0,0)
(0,0,0)
(0,0,0)
(0,0,0)
(0,0,0)
(0,0,0)
(0,0,0)
(0,0,0)
(0,0,0)
(0,0,0)
(0,0,0)
(0,0,0)
(0,0,0)
(0,0,0)
(0,0,0)
(0,0,0)
(0,0,0)
(0,0,0)
(0,0,0)
(0,0,0)
(0,0,0)
(0,0,0)
(0,0,0)
(0,0,0)
(0,0,0)
(0,0,0)
(0,0,0)
(0,0,0)
(0,0,0)
(0,0,0)
(0,0,0)
(0,0,0)
(0,0,0)
(0,0,0)
(0,0,0)
(0,0,0)
(0,0,0)
(0,0,0)
(0,0,0)
(0,0,0)
(0,0,0)
(0,0,0)
(0,0,0)
(0,0,0)
(0,0,0)
(0,0,0)
(0,0,0)
(0,0,0)
(0,0,0)
(0,0,0)
(0,0,0)
(0,0,0)
(0,0,0)
(0,0,0)
(0,0,0)
(0,0,0)
(0,0,0)
(0,0,0)
(0,0,0)
(0,0,0)
(0,0,0)
(0,0,0)
(0,0,0)
(0,0,0)
(0,0,0)
(0,0,0)
(0,0,0)
(0,0,0)
(0,0,0)
(0,0,0)
(0,0,0)
(0,0,0)
(0,0,0)
(0,0,0)
(0,0,0)
(0,0,0)
(0,0,0)
(0,0,0)
(0,0,0)
(0,0,0)
(0,0,0)
(0,0,0)
(0,0,0)
(0,0,0)
(0,0,0)
(0,0,0)
(0,0,0)
(0,0,0)
(0,0,0)
(0,0,0)
(0,0,0)
(0,0,0)
(0,0,0)
(0,0,0)
(0,0,0)
(0,0,0)
(0,0,0)
(0,0,0)
(0,0,0)
(0,0,0)
(0,0,0)
(0,0,0)
(0,0,0)
(0,0,0)
(0,0,0)
(0,0,0)
(0,0,0)
(0,0,0)
(0,0,0)
(0,0,0)
(0,0,0)
(0,0,0)
(0,0,0)
(0,0,0)
(0,0,0)
(0,0,0)
(0,0,0)
(0,0,0)
(0,0,0)
(0,0,0)
(0,0,0)
(0,0,0)
(0,0,0)
(0,0,0)
(0,0,0)
(0,0,0)
(0,0,0)
(0,0,0)
(0,0,0)
(0,0,0)
(0,0,0)
(0,0,0)
(0,0,0)
(0,0,0)
(0,0,0)
(0,0,0)
(0,0,0)
(0,0,0)
(0,0,0)
(0,0,0)
(0,0,0)
(0,0,0)
(0,0,0)
(0,0,0)
(0,0,0)
(0,0,0)
(0,0,0)
(0,0,0)
(0,0,0)
(0,0,0)
(0,0,0)
(0,0,0)
(0,0,0)
(0,0,0)
(0,0,0)
(0,0,0)
(0,0,0)
(0,0,0)
(0,0,0)
(0,0,0)
(0,0,0)
(0,0,0)
(0,0,0)
(0,0,0)
(0,0,0)
(0,0,0)
(0,0,0)
(0,0,0)
(0,0,0)
(0,0,0)
(0,0,0)
(0,0,0)
(0,0,0)
(0,0,0)
(0,0,0)
(0,0,0)
(0,0,0)
(0,0,0)
(0,0,0)
(4.2807626380306e-13,3.20533948620978e-12,-5.7588079779805e-12)
(8.58919173967905e-13,7.82317689956532e-12,-5.46195408437034e-12)
(2.56399035081678e-13,1.36443036624419e-11,-4.75214294613732e-12)
(3.01555098046406e-13,1.93524426008504e-11,-3.63048506923572e-12)
(2.19606177260484e-13,2.80932446852704e-11,-2.74653484364984e-12)
(-9.09642056390502e-13,4.21588259126686e-11,-1.53164738096895e-12)
(-2.58083879877687e-12,6.49265614349132e-11,-8.19401707396675e-13)
(-3.83814761635935e-12,1.04542310101409e-10,-8.08725651569185e-13)
(-4.22087177502361e-12,1.70462383284953e-10,-7.12830045388371e-13)
(-4.19832312161937e-12,2.61310548590426e-10,-5.62683261813411e-13)
(0,0,0)
(0,0,0)
(0,0,0)
(0,0,0)
(0,0,0)
(0,0,0)
(4.87447482433512e-13,3.4369818623017e-12,-1.02182409576195e-11)
(1.20781897671616e-12,7.7073215166729e-12,-9.79604571255986e-12)
(3.19709075233953e-13,1.2986644671485e-11,-8.48643670990771e-12)
(1.16678418131118e-13,1.87423476986678e-11,-6.40978920056204e-12)
(-8.55156071501475e-13,2.71750291012286e-11,-4.61911614796386e-12)
(-2.4488444331535e-12,4.16028577805338e-11,-2.92345073115032e-12)
(-4.6835155152081e-12,6.50541890451167e-11,-1.56489858015859e-12)
(-6.61432331366236e-12,1.04763503770201e-10,-1.03446647978693e-12)
(-7.46324937575026e-12,1.7026155319276e-10,-8.74774334710307e-13)
(-8.26872727275685e-12,2.60687762543508e-10,-5.96038380032756e-13)
(0,0,0)
(0,0,0)
(0,0,0)
(0,0,0)
(0,0,0)
(0,0,0)
(1.06986110582031e-12,3.31292019881251e-12,-1.49986957736837e-11)
(2.09571357118162e-12,6.96622809435048e-12,-1.41917011183114e-11)
(1.49815587210662e-12,1.14498795192376e-11,-1.23004203733165e-11)
(1.1586916827018e-12,1.71254781279651e-11,-9.72970868793126e-12)
(-7.59465894083818e-13,2.53352981382066e-11,-7.11167828067533e-12)
(-3.01292997760643e-12,3.99641230519509e-11,-4.9343456914451e-12)
(-5.45662797871717e-12,6.43418996210728e-11,-2.90878651609053e-12)
(-7.31493444384324e-12,1.04785035183197e-10,-1.68128781403825e-12)
(-8.66470996030156e-12,1.69913993111787e-10,-1.15723673094471e-12)
(-9.63556908709271e-12,2.59813992176564e-10,-6.19550907530287e-13)
(0,0,0)
(0,0,0)
(0,0,0)
(0,0,0)
(0,0,0)
(0,0,0)
(2.36050353086309e-12,2.79266202235786e-12,-2.15576786813236e-11)
(2.82168310716174e-12,5.87174768455663e-12,-2.03891121487089e-11)
(2.47835462839892e-12,9.68141747061644e-12,-1.83354712658464e-11)
(2.53993242354704e-12,1.47751666147388e-11,-1.57807536428659e-11)
(2.93020867840209e-13,2.28872337160725e-11,-1.26945652038586e-11)
(-2.10273204210826e-12,3.74326825453777e-11,-9.70863392960635e-12)
(-4.13701114881273e-12,6.27069096060578e-11,-7.0212913444615e-12)
(-6.12284302585246e-12,1.04334585809548e-10,-4.82624478763472e-12)
(-8.05819613869559e-12,1.69347059226206e-10,-3.24549347466767e-12)
(-9.07650628891277e-12,2.58989536903273e-10,-1.68577848979507e-12)
(0,0,0)
(0,0,0)
(0,0,0)
(0,0,0)
(0,0,0)
(0,0,0)
(2.48365938005018e-12,2.20039136660139e-12,-3.06938705304921e-11)
(2.12415961648976e-12,4.88096192109752e-12,-2.96644722233847e-11)
(1.31177349435147e-12,8.1338196486789e-12,-2.78431117196324e-11)
(2.31759646604995e-12,1.2287448310047e-11,-2.5358977908784e-11)
(1.61374923720166e-12,1.99008867441985e-11,-2.22461890630663e-11)
(2.99323170518144e-13,3.4258689793301e-11,-1.91039149507198e-11)
(-1.89031312598806e-12,6.03254767339038e-11,-1.61892751185418e-11)
(-4.35538459065378e-12,1.03247356100525e-10,-1.26514720512797e-11)
(-6.25661840556307e-12,1.68273460594649e-10,-8.65143090346033e-12)
(-7.59622022924173e-12,2.57587699883577e-10,-4.44173408081532e-12)
(0,0,0)
(0,0,0)
(0,0,0)
(0,0,0)
(0,0,0)
(0,0,0)
(3.06432359638936e-12,1.7115000956718e-12,-4.44543382081914e-11)
(2.47276362562139e-12,3.67500626105946e-12,-4.32514977768665e-11)
(1.93710413091347e-12,6.10248990895113e-12,-4.15459557475273e-11)
(3.57389623359831e-12,9.68324740312416e-12,-3.95075761886112e-11)
(3.33686709375874e-12,1.70565579512585e-11,-3.67935362940063e-11)
(2.49898186058851e-12,3.11028467676576e-11,-3.38087392863663e-11)
(7.46121258260845e-13,5.76531116391762e-11,-3.05539745260732e-11)
(-1.35389347339559e-12,1.00291856432437e-10,-2.58654205645387e-11)
(-2.72620710864219e-12,1.64904467286094e-10,-1.86400356291867e-11)
(-4.1428447852378e-12,2.53617345743038e-10,-9.63650812760666e-12)
(0,0,0)
(0,0,0)
(0,0,0)
(0,0,0)
(0,0,0)
(0,0,0)
(2.79381648064854e-12,1.06319577633582e-12,-6.62860441186185e-11)
(3.55674868156915e-12,2.23488404030082e-12,-6.51725278339841e-11)
(4.50342595556673e-12,4.05387119199932e-12,-6.38660461770069e-11)
(6.319845756187e-12,7.12346088257213e-12,-6.22912818698197e-11)
(6.3931431765904e-12,1.40611257762666e-11,-6.03447476217981e-11)
(5.94151654275692e-12,2.72934260756295e-11,-5.74355453628706e-11)
(5.73920968028492e-12,5.30202014384207e-11,-5.31027471909822e-11)
(4.82045863262849e-12,9.36490948062739e-11,-4.6454912081819e-11)
(3.99351412817872e-12,1.56508163003876e-10,-3.47545047759291e-11)
(2.36036338596977e-12,2.44228694056365e-10,-1.85939579491054e-11)
(0,0,0)
(0,0,0)
(0,0,0)
(0,0,0)
(0,0,0)
(0,0,0)
(3.02645446949367e-12,2.13707771282e-13,-1.035204882601e-10)
(5.42023100405513e-12,8.76143545475881e-13,-1.03270693200116e-10)
(7.66109921090777e-12,2.51451741238706e-12,-1.02611488467256e-10)
(9.13116611198334e-12,5.45297114800226e-12,-1.01452995679074e-10)
(1.01757440594411e-11,1.16808601424133e-11,-9.99268131253477e-11)
(1.0495356008319e-11,2.35116549969888e-11,-9.65861321339688e-11)
(1.06835981762808e-11,4.59305057621192e-11,-9.08007461936232e-11)
(9.95726606592872e-12,8.19686652467918e-11,-8.02222141577064e-11)
(9.78608961775018e-12,1.40617942990298e-10,-6.21651326371138e-11)
(9.01707376241445e-12,2.25374940400667e-10,-3.50874663320394e-11)
(0,0,0)
(0,0,0)
(0,0,0)
(0,0,0)
(0,0,0)
(0,0,0)
(3.11160033312064e-12,7.6183441459055e-14,-1.66901958746747e-10)
(6.47069473583933e-12,3.2703972358298e-13,-1.6723012103671e-10)
(9.31477217073213e-12,1.65749288865394e-12,-1.67137829022171e-10)
(1.02359172021288e-11,4.09167002449066e-12,-1.66101597556412e-10)
(1.16548747168779e-11,8.68206480753497e-12,-1.64276676851973e-10)
(1.27619861711801e-11,1.74631619726193e-11,-1.60377612405465e-10)
(1.33975085593614e-11,3.39747710298335e-11,-1.52815983151446e-10)
(1.38768067033052e-11,6.27308326096568e-11,-1.38358953334124e-10)
(1.46477445500839e-11,1.13007177121675e-10,-1.1210641009418e-10)
(1.47352272691991e-11,1.8988854455318e-10,-6.75580747716878e-11)
(0,0,0)
(0,0,0)
(0,0,0)
(0,0,0)
(0,0,0)
(0,0,0)
(3.30802737329821e-12,6.25292227416092e-14,-2.56435237905493e-10)
(7.22329506136368e-12,1.8205364729223e-14,-2.56869266710695e-10)
(1.10205690144156e-11,6.87828686619855e-13,-2.5723082345682e-10)
(1.20838727505324e-11,2.04642632368968e-12,-2.56227789488711e-10)
(1.30882388163952e-11,4.50835545539769e-12,-2.53941226293837e-10)
(1.43824594961048e-11,9.10507653123128e-12,-2.49525882438347e-10)
(1.48718543003736e-11,1.8033583828943e-11,-2.40848610511217e-10)
(1.59771943371338e-11,3.5159139077474e-11,-2.23607166498866e-10)
(1.78818212363459e-11,6.75164535563637e-11,-1.89135739142091e-10)
(1.82000311101107e-11,1.2204559674402e-10,-1.22114955079927e-10)
(0,0,0)
(0,0,0)
(0,0,0)
(0,0,0)
(0,0,0)
(0,0,0)
(0,0,0)
(0,0,0)
(0,0,0)
(0,0,0)
(0,0,0)
(0,0,0)
(0,0,0)
(0,0,0)
(0,0,0)
(0,0,0)
(0,0,0)
(0,0,0)
(0,0,0)
(0,0,0)
(0,0,0)
(0,0,0)
(0,0,0)
(0,0,0)
(0,0,0)
(0,0,0)
(0,0,0)
(0,0,0)
(0,0,0)
(0,0,0)
(0,0,0)
(0,0,0)
(0,0,0)
(0,0,0)
(0,0,0)
(0,0,0)
(0,0,0)
(0,0,0)
(0,0,0)
(0,0,0)
(0,0,0)
(0,0,0)
(0,0,0)
(0,0,0)
(0,0,0)
(0,0,0)
(0,0,0)
(0,0,0)
(0,0,0)
(0,0,0)
(0,0,0)
(0,0,0)
(0,0,0)
(0,0,0)
(0,0,0)
(0,0,0)
(0,0,0)
(0,0,0)
(0,0,0)
(0,0,0)
(0,0,0)
(0,0,0)
(0,0,0)
(0,0,0)
(0,0,0)
(0,0,0)
(0,0,0)
(0,0,0)
(0,0,0)
(0,0,0)
(0,0,0)
(0,0,0)
(0,0,0)
(0,0,0)
(0,0,0)
(0,0,0)
(0,0,0)
(0,0,0)
(0,0,0)
(0,0,0)
(0,0,0)
(0,0,0)
(0,0,0)
(0,0,0)
(0,0,0)
(0,0,0)
(0,0,0)
(0,0,0)
(0,0,0)
(0,0,0)
(0,0,0)
(0,0,0)
(0,0,0)
(0,0,0)
(0,0,0)
(0,0,0)
(0,0,0)
(0,0,0)
(0,0,0)
(0,0,0)
(0,0,0)
(0,0,0)
(-1.00420005898025e-13,6.70190330904772e-12,-8.73738890311686e-12)
(2.64963418628308e-13,1.54200822257708e-11,-8.00608874385274e-12)
(-2.07599850874263e-13,2.51632336971997e-11,-6.76742969705249e-12)
(2.76997746368159e-14,3.53497702186083e-11,-5.19695837191571e-12)
(-7.70657014180434e-14,5.04627384651889e-11,-3.65096829338951e-12)
(-1.065919597756e-12,7.46709492579446e-11,-1.94857489698059e-12)
(-2.71914246474549e-12,1.14437519627345e-10,-9.84118114001662e-13)
(-4.15523689154505e-12,1.83644457296339e-10,-6.18508810658906e-13)
(-4.17018846646917e-12,3.14262854547681e-10,-4.39998714846913e-13)
(-4.1382203367411e-12,6.11062200491526e-10,-3.25539953488227e-13)
(0,0,0)
(0,0,0)
(0,0,0)
(0,0,0)
(0,0,0)
(0,0,0)
(1.89313900861715e-13,6.40232522576174e-12,-1.76933269503616e-11)
(6.3930339638857e-13,1.46309545674252e-11,-1.64929221768629e-11)
(-2.20173281854352e-13,2.36588999469051e-11,-1.40982686639911e-11)
(-5.71250637625993e-14,3.37818024623629e-11,-1.09001376863637e-11)
(-7.11090525287912e-13,4.87792325628839e-11,-7.39402494873166e-12)
(-2.16866185558243e-12,7.37174356795802e-11,-4.16216771059527e-12)
(-4.50165819157281e-12,1.14266993546578e-10,-1.54590779211695e-12)
(-6.79554687158879e-12,1.83570734463443e-10,-4.55990656162613e-13)
(-7.394425249214e-12,3.13688228541859e-10,-3.15995855313336e-13)
(-7.99099528562831e-12,6.10139485221662e-10,-2.73428687632326e-13)
(0,0,0)
(0,0,0)
(0,0,0)
(0,0,0)
(0,0,0)
(0,0,0)
(7.83124626903077e-13,5.58285579617536e-12,-2.77383238563459e-11)
(1.29891323597895e-12,1.27989187010768e-11,-2.61022286214419e-11)
(6.95906235343893e-13,2.06849952385149e-11,-2.29127913530834e-11)
(8.90972788678061e-13,3.03463410724915e-11,-1.86902270097009e-11)
(-4.88734061190365e-13,4.52610390981728e-11,-1.35934364452173e-11)
(-2.5070486464287e-12,7.07932919564723e-11,-8.61633720859413e-12)
(-5.04913666577269e-12,1.13094920401309e-10,-3.66055299912522e-12)
(-7.38853615326868e-12,1.83703451477732e-10,-1.38973003229548e-12)
(-8.63546189813326e-12,3.1340541845691e-10,-9.68447027672125e-13)
(-9.43066472157127e-12,6.0940304240151e-10,-6.66012964638418e-13)
(0,0,0)
(0,0,0)
(0,0,0)
(0,0,0)
(0,0,0)
(0,0,0)
(1.7842076540044e-12,4.54884132244566e-12,-3.97230129630521e-11)
(1.75882798775913e-12,1.06370958473698e-11,-3.76840132531682e-11)
(1.47123482735597e-12,1.72110981039981e-11,-3.40904222471816e-11)
(1.9414622892334e-12,2.56872113096247e-11,-2.96556446018586e-11)
(2.93436565459361e-13,3.98981080804332e-11,-2.39798901630344e-11)
(-1.616081875179e-12,6.48928768526949e-11,-1.77090241978757e-11)
(-3.95062483349764e-12,1.09832852165158e-10,-1.12324356907694e-11)
(-6.61636462979524e-12,1.83913056946528e-10,-7.36834549532572e-12)
(-8.54431249179243e-12,3.13572639986843e-10,-4.96481337547047e-12)
(-9.36044775882099e-12,6.08957006192974e-10,-2.81338673696966e-12)
(0,0,0)
(0,0,0)
(0,0,0)
(0,0,0)
(0,0,0)
(0,0,0)
(1.94315234387246e-12,3.55166414263438e-12,-5.51310242419983e-11)
(1.50875477277714e-12,8.2268376978461e-12,-5.31643155579175e-11)
(8.58969423226854e-13,1.35247015927686e-11,-4.99033464541086e-11)
(1.80900852725753e-12,2.04429015760669e-11,-4.60262789295098e-11)
(1.31580391779668e-12,3.30469898941086e-11,-4.10905641937444e-11)
(5.40526363966467e-13,5.66502070510902e-11,-3.58916289069857e-11)
(-2.75575109850404e-12,1.03867197140735e-10,-3.14232797817479e-11)
(-5.39992607029633e-12,1.82931385535683e-10,-2.33442696748831e-11)
(-7.09732191969004e-12,3.12495149817667e-10,-1.52690470519247e-11)
(-8.06760016966675e-12,6.06772282361713e-10,-7.75900744348897e-12)
(0,0,0)
(0,0,0)
(0,0,0)
(0,0,0)
(0,0,0)
(0,0,0)
(2.50978748439979e-12,2.5549193192317e-12,-7.87314597896167e-11)
(2.20734381704004e-12,5.66279281580895e-12,-7.68654336289888e-11)
(1.94734328894892e-12,9.56458340252286e-12,-7.41841816846375e-11)
(3.41964285954396e-12,1.54183878793939e-11,-7.12134302663058e-11)
(3.3475022611159e-12,2.68743962319667e-11,-6.69822139952938e-11)
(3.05363779231375e-12,4.96390564665935e-11,-6.22115281261761e-11)
(6.90477497503822e-13,1.00090040239907e-10,-5.69293017664189e-11)
(-1.93651678252677e-12,1.78281344094954e-10,-4.73644472368072e-11)
(-3.33343032810998e-12,3.06665398997303e-10,-3.33908882881673e-11)
(-4.39070122594786e-12,5.99721880304404e-10,-1.72416667040568e-11)
(0,0,0)
(0,0,0)
(0,0,0)
(0,0,0)
(0,0,0)
(0,0,0)
(2.52978820106851e-12,1.59131669828834e-12,-1.16911953754006e-10)
(3.60900751941624e-12,3.50651847262381e-12,-1.15423685110413e-10)
(4.46801542799122e-12,6.29713522640703e-12,-1.13445376365445e-10)
(6.04380124273475e-12,1.09400695516706e-11,-1.10880479764387e-10)
(5.86420655151323e-12,2.10602646485188e-11,-1.07759824822488e-10)
(5.39048944950391e-12,4.18135453457373e-11,-1.03518932567578e-10)
(6.18107024740859e-12,9.19835586062372e-11,-9.45901050343979e-11)
(4.80048088619908e-12,1.66606692923028e-10,-8.37389066190676e-11)
(3.72318731481414e-12,2.91937163125969e-10,-6.1942091389835e-11)
(2.62015909277529e-12,5.8343981117799e-10,-3.32588185259276e-11)
(0,0,0)
(0,0,0)
(0,0,0)
(0,0,0)
(0,0,0)
(0,0,0)
(2.91418373933283e-12,5.09162983722528e-13,-1.82380272414034e-10)
(5.31013009308886e-12,1.77763368321348e-12,-1.81886553888529e-10)
(7.35963094646056e-12,4.0186638473321e-12,-1.80676256343595e-10)
(8.96628468176883e-12,8.29554491269441e-12,-1.78582500280156e-10)
(9.83385840294034e-12,1.79796356673105e-11,-1.76044736786705e-10)
(1.07584630923509e-11,3.76383520710261e-11,-1.71526741427763e-10)
(1.20608008726529e-11,8.02808556519475e-11,-1.61929460343347e-10)
(1.11380171824117e-11,1.4458441435648e-10,-1.42537061049655e-10)
(1.03191891813097e-11,2.63196441566469e-10,-1.09871583164749e-10)
(9.41600327775787e-12,5.50205547873058e-10,-6.2579226017895e-11)
(0,0,0)
(0,0,0)
(0,0,0)
(0,0,0)
(0,0,0)
(0,0,0)
(3.45341684180071e-12,5.80731606039661e-15,-3.09282288018133e-10)
(6.68723708015406e-12,6.49006241729766e-13,-3.09462407760863e-10)
(9.248204907008e-12,2.4906419699552e-12,-3.08912868907656e-10)
(1.04562401984914e-11,6.15216033265101e-12,-3.07216837987558e-10)
(1.19295196225078e-11,1.39721381301462e-11,-3.04435542335503e-10)
(1.35584423585485e-11,2.89043699051041e-11,-2.98477307987641e-10)
(1.48816659429234e-11,5.93389979819163e-11,-2.8563700545271e-10)
(1.51959569955558e-11,1.10523960292412e-10,-2.59539981519783e-10)
(1.55901327928402e-11,2.14967318254521e-10,-2.13168698984262e-10)
(1.50201003067201e-11,4.87500218630105e-10,-1.33485678612425e-10)
(0,0,0)
(0,0,0)
(0,0,0)
(0,0,0)
(0,0,0)
(0,0,0)
(3.8045854012418e-12,-2.63930594884802e-13,-6.03823162592815e-10)
(7.60305717221763e-12,-8.2041783210567e-14,-6.04730297790828e-10)
(1.07053637329266e-11,1.11807232979709e-12,-6.04941732098265e-10)
(1.18437358793492e-11,3.26487858154301e-12,-6.03259497548387e-10)
(1.31812504163029e-11,7.67697833093159e-12,-5.9991647861795e-10)
(1.48102641002021e-11,1.55893440858228e-11,-5.92826818277226e-10)
(1.56639941169659e-11,3.19254368803725e-11,-5.77812120146181e-10)
(1.66649060578293e-11,6.26405744673864e-11,-5.47016588473389e-10)
(1.83774907305477e-11,1.33830657730209e-10,-4.8592664284482e-10)
(1.81306727742274e-11,3.53585047568734e-10,-3.53374194558503e-10)
(0,0,0)
(0,0,0)
(0,0,0)
(0,0,0)
(0,0,0)
(0,0,0)
(0,0,0)
(0,0,0)
(0,0,0)
(0,0,0)
(0,0,0)
(0,0,0)
(0,0,0)
(0,0,0)
(0,0,0)
(0,0,0)
(0,0,0)
(0,0,0)
(0,0,0)
(0,0,0)
(0,0,0)
(0,0,0)
(0,0,0)
(0,0,0)
(0,0,0)
(0,0,0)
(0,0,0)
(0,0,0)
(0,0,0)
(0,0,0)
(0,0,0)
(0,0,0)
(0,0,0)
(0,0,0)
(0,0,0)
(0,0,0)
(0,0,0)
(0,0,0)
(0,0,0)
(0,0,0)
(0,0,0)
(0,0,0)
(0,0,0)
(0,0,0)
(0,0,0)
(0,0,0)
(0,0,0)
(0,0,0)
(0,0,0)
(0,0,0)
(0,0,0)
(0,0,0)
(0,0,0)
(0,0,0)
(0,0,0)
(0,0,0)
(0,0,0)
(0,0,0)
(0,0,0)
(0,0,0)
(0,0,0)
(0,0,0)
(0,0,0)
(0,0,0)
(0,0,0)
(0,0,0)
(0,0,0)
(0,0,0)
(0,0,0)
(0,0,0)
(0,0,0)
(0,0,0)
(0,0,0)
(0,0,0)
(0,0,0)
(0,0,0)
(0,0,0)
(0,0,0)
(0,0,0)
(0,0,0)
(0,0,0)
(0,0,0)
(0,0,0)
(0,0,0)
(0,0,0)
(0,0,0)
(0,0,0)
(0,0,0)
(0,0,0)
(0,0,0)
(0,0,0)
(0,0,0)
(0,0,0)
(0,0,0)
(0,0,0)
(0,0,0)
(0,0,0)
(0,0,0)
(0,0,0)
(0,0,0)
(0,0,0)
(0,0,0)
(-5.3214208228027e-13,8.571002489465e-12,-1.01470430620617e-11)
(-1.84567969680905e-13,1.96320551431306e-11,-9.55591779435625e-12)
(-2.73737426156088e-13,3.18492230321251e-11,-8.21450236459573e-12)
(4.96774530493129e-14,4.56137283180548e-11,-6.51379885667901e-12)
(-9.59531958382427e-14,6.48355376489265e-11,-4.19070524919427e-12)
(-1.07686280214082e-12,9.38894849820707e-11,-1.38786859688087e-12)
(-2.91422568758808e-12,1.37226402499441e-10,6.91322606264144e-13)
(-4.26002415448628e-12,2.00967400679088e-10,1.22629417825179e-12)
(-3.71002122222582e-12,2.90453981438669e-10,6.39778842730934e-13)
(-3.54104502021634e-12,3.98591196231714e-10,1.92495114280224e-13)
(0,0,0)
(0,0,0)
(0,0,0)
(0,0,0)
(0,0,0)
(0,0,0)
(-1.91621443328449e-13,8.24910930318735e-12,-2.10481684834599e-11)
(7.66857502229826e-14,1.86981534216261e-11,-1.99718420134807e-11)
(-4.4439955148922e-13,3.01388538879926e-11,-1.72967071111201e-11)
(-1.27776411256708e-13,4.33113202524664e-11,-1.34747168959172e-11)
(-4.24754298665441e-13,6.18840086535373e-11,-8.15513235368328e-12)
(-1.86077805093045e-12,9.14570518250897e-11,-2.13961029959202e-12)
(-4.4195021825762e-12,1.36488505916327e-10,3.1348991510507e-12)
(-7.06825868610769e-12,2.01332060122382e-10,4.04183734133514e-12)
(-7.15418233239567e-12,2.90807710809452e-10,2.27108587665e-12)
(-7.52798115294341e-12,3.98575062927747e-10,6.78483291441664e-13)
(0,0,0)
(0,0,0)
(0,0,0)
(0,0,0)
(0,0,0)
(0,0,0)
(1.81043865598715e-13,7.42233219494535e-12,-3.43521214547363e-11)
(2.71298821384345e-13,1.64814795584556e-11,-3.27798381779357e-11)
(-5.27609733183911e-14,2.63806303784446e-11,-2.91518476670598e-11)
(4.53311987102338e-13,3.81927609021116e-11,-2.35899359940741e-11)
(-1.02902280137274e-13,5.58963998917284e-11,-1.57445686103273e-11)
(-1.56241775234948e-12,8.60478906179384e-11,-6.08826794310096e-12)
(-4.05789139602095e-12,1.35517833692398e-10,4.26364951411967e-12)
(-8.01942462680548e-12,2.03592919634599e-10,5.40483110157007e-12)
(-9.10511749096713e-12,2.92863577693853e-10,2.59018707456121e-12)
(-9.65064147781036e-12,3.99536056436252e-10,4.99752203415032e-13)
(0,0,0)
(0,0,0)
(0,0,0)
(0,0,0)
(0,0,0)
(0,0,0)
(7.42385123831269e-13,6.02530033520853e-12,-4.97434020979035e-11)
(5.75495131153044e-13,1.32575270596096e-11,-4.79708854338362e-11)
(7.22853693315542e-13,2.11616914363531e-11,-4.38198773481761e-11)
(1.51001758377205e-12,3.09023120790857e-11,-3.76553998507183e-11)
(8.73688787010427e-13,4.64051502395608e-11,-2.89304940500242e-11)
(1.49999419508793e-13,7.5073874945768e-11,-1.69001167946172e-11)
(-1.84906000498502e-12,1.3230450793116e-10,-1.3803948143909e-12)
(-8.03822533892489e-12,2.0800326542356e-10,-6.23933831571845e-13)
(-9.61824896097502e-12,2.96138998762214e-10,-2.20989163230386e-12)
(-9.98911066440287e-12,4.00701417419281e-10,-2.11349190657041e-12)
(0,0,0)
(0,0,0)
(0,0,0)
(0,0,0)
(0,0,0)
(0,0,0)
(9.73188483261193e-13,4.35272890078064e-12,-6.93374106553237e-11)
(8.11830550720245e-13,9.514950594276e-12,-6.7445783913982e-11)
(9.42020089359128e-13,1.55285773625771e-11,-6.35198035423698e-11)
(1.89780748753018e-12,2.25725274050504e-11,-5.82108721234461e-11)
(2.28946229396409e-12,3.37181485594626e-11,-5.12103389707961e-11)
(3.08332782285956e-12,5.6109920991815e-11,-4.37446750077563e-11)
(-7.05760430464514e-12,1.15742535318855e-10,-4.61544608101253e-11)
(-8.82510725277541e-12,2.13035139789217e-10,-2.80636009972383e-11)
(-8.77761070733739e-12,2.98151838464239e-10,-1.77931527238541e-11)
(-8.77620555588433e-12,3.99419039990607e-10,-9.11021768035444e-12)
(0,0,0)
(0,0,0)
(0,0,0)
(0,0,0)
(0,0,0)
(0,0,0)
(1.60736394480136e-12,2.28468052159733e-12,-9.68250546377972e-11)
(1.68236621609655e-12,5.63330328405575e-12,-9.52637021025354e-11)
(2.24404004659921e-12,9.95121684744735e-12,-9.23433087808156e-11)
(3.66674491616204e-12,1.4606181412708e-11,-8.86440991186255e-11)
(4.39094797542248e-12,2.25778262824791e-11,-8.36009186122628e-11)
(5.59692255321825e-12,4.35187744618381e-11,-7.79744729477258e-11)
(-7.67895398073181e-13,1.20896907166153e-10,-7.65223412007886e-11)
(-4.23542455957751e-12,2.10626827656304e-10,-6.09126848144821e-11)
(-4.75441604056453e-12,2.91928306130954e-10,-4.16554501387374e-11)
(-5.35029880407877e-12,3.90932187931372e-10,-2.11179811036357e-11)
(0,0,0)
(0,0,0)
(0,0,0)
(0,0,0)
(0,0,0)
(0,0,0)
(2.12367327250912e-12,7.68583949916155e-13,-1.38027934586745e-10)
(3.35958356368379e-12,2.81288269210839e-12,-1.36668071357886e-10)
(4.18159020556077e-12,5.75325915624348e-12,-1.34708415455537e-10)
(5.56767094055464e-12,8.04974518293904e-12,-1.32354380519208e-10)
(4.70394327793134e-12,1.24073201443449e-11,-1.31044458872407e-10)
(6.36855190276561e-13,2.51490503324443e-11,-1.31141506933296e-10)
(7.03257478672398e-12,1.11569852132616e-10,-1.10069689894628e-10)
(5.02594422300362e-12,1.9762631308299e-10,-1.08685381464515e-10)
(3.78063601107423e-12,2.73516690549075e-10,-7.579402775019e-11)
(2.59560387167586e-12,3.70365978770987e-10,-3.88487987422541e-11)
(0,0,0)
(0,0,0)
(0,0,0)
(0,0,0)
(0,0,0)
(0,0,0)
(2.92382088155343e-12,-2.32025668595961e-13,-1.97634563122272e-10)
(5.22845998941102e-12,1.2636319967774e-12,-1.97057468966864e-10)
(6.79389676039266e-12,3.55910316472129e-12,-1.96054728998396e-10)
(8.57190576880133e-12,6.1969045338406e-12,-1.94607054679071e-10)
(9.32336058057466e-12,1.35716115227244e-11,-1.93975798149403e-10)
(9.8951641739298e-12,3.48807932593506e-11,-1.93757421371402e-10)
(1.36102592494318e-11,1.0212890916513e-10,-1.87002020042688e-10)
(1.25329933611775e-11,1.63175918717327e-10,-1.60159983116184e-10)
(1.12559553462035e-11,2.3614186435002e-10,-1.1680823900943e-10)
(9.54210650316934e-12,3.31022897270006e-10,-6.27178027767422e-11)
(0,0,0)
(0,0,0)
(0,0,0)
(0,0,0)
(0,0,0)
(0,0,0)
(3.90327449519427e-12,-3.58562689296318e-13,-2.8404002203379e-10)
(6.86874625208067e-12,5.73813394685979e-13,-2.83802567717548e-10)
(8.92474362674185e-12,2.40080619291515e-12,-2.83190659957833e-10)
(1.0562226297962e-11,5.3815230095357e-12,-2.81994554875403e-10)
(1.22664450738848e-11,1.32227634952142e-11,-2.80218915258177e-10)
(1.40331656432278e-11,3.1056382816476e-11,-2.75774583434498e-10)
(1.61982031111417e-11,7.09386610472783e-11,-2.63168205825563e-10)
(1.67080602851731e-11,1.17465560940815e-10,-2.31272741977851e-10)
(1.70437729451237e-11,1.80853848420076e-10,-1.78824395415274e-10)
(1.54495927556159e-11,2.67461273929278e-10,-1.02533692033136e-10)
(0,0,0)
(0,0,0)
(0,0,0)
(0,0,0)
(0,0,0)
(0,0,0)
(4.44779000403068e-12,-2.8484845849432e-13,-3.9039544522584e-10)
(7.73244969617675e-12,2.66859395419007e-13,-3.9076130389441e-10)
(1.014120151308e-11,1.48238890289439e-12,-3.90354804377771e-10)
(1.17655955300416e-11,3.44128544800901e-12,-3.88648279882514e-10)
(1.37685684067895e-11,8.32062386947663e-12,-3.85534618535475e-10)
(1.53849100547849e-11,1.76242151075581e-11,-3.77796799136916e-10)
(1.6793899325089e-11,3.67293574004538e-11,-3.61322155384035e-10)
(1.82155348959134e-11,6.32123984644848e-11,-3.26428971410958e-10)