/*--------------------------------*- C++ -*----------------------------------*\
| =========                 |                                                 |
| \\      /  F ield         | foam-extend: Open Source CFD                    |
|  \\    /   O peration     | Version:     4.0                                |
|   \\  /    A nd           | Web:         http://www.foam-extend.org         |
|    \\/     M anipulation  |                                                 |
\*---------------------------------------------------------------------------*/
FoamFile
{
    version 2.0;
    format ascii;
    class volVectorField;
    location "3823";
    object      E;
}
// * * * * * * * * * * * * * * * * * * * * * * * * * * * * * * * * * * * * * //

dimensions      [0 1 -1 0 0 0 0];

internalField   nonuniform List<vector>
4096
(
(0,0,0)
(0,0,0)
(0,0,0)
(0,0,0)
(0,0,0)
(0,0,0)
(0,0,0)
(0,0,0)
(0,0,0)
(0,0,0)
(0,0,0)
(0,0,0)
(0,0,0)
(0,0,0)
(0,0,0)
(0,0,0)
(0,0,0)
(0,0,0)
(0,0,0)
(0,0,0)
(0,0,0)
(0,0,0)
(0,0,0)
(0,0,0)
(0,0,0)
(0,0,0)
(0,0,0)
(0,0,0)
(0,0,0)
(0,0,0)
(0,0,0)
(0,0,0)
(0,0,0)
(0,0,0)
(0,0,0)
(0,0,0)
(0,0,0)
(0,0,0)
(0,0,0)
(0,0,0)
(0,0,0)
(0,0,0)
(0,0,0)
(0,0,0)
(0,0,0)
(0,0,0)
(0,0,0)
(0,0,0)
(0,0,0)
(0,0,0)
(0,0,0)
(0,0,0)
(0,0,0)
(0,0,0)
(0,0,0)
(0,0,0)
(0,0,0)
(0,0,0)
(0,0,0)
(0,0,0)
(0,0,0)
(0,0,0)
(0,0,0)
(0,0,0)
(0,0,0)
(0,0,0)
(0,0,0)
(0,0,0)
(0,0,0)
(0,0,0)
(0,0,0)
(0,0,0)
(0,0,0)
(0,0,0)
(0,0,0)
(0,0,0)
(0,0,0)
(0,0,0)
(0,0,0)
(0,0,0)
(0,0,0)
(0,0,0)
(0,0,0)
(0,0,0)
(0,0,0)
(0,0,0)
(0,0,0)
(0,0,0)
(0,0,0)
(0,0,0)
(0,0,0)
(0,0,0)
(0,0,0)
(0,0,0)
(0,0,0)
(0,0,0)
(0,0,0)
(0,0,0)
(0,0,0)
(0,0,0)
(0,0,0)
(0,0,0)
(0,0,0)
(0,0,0)
(0,0,0)
(0,0,0)
(0,0,0)
(0,0,0)
(0,0,0)
(0,0,0)
(0,0,0)
(0,0,0)
(0,0,0)
(0,0,0)
(0,0,0)
(0,0,0)
(0,0,0)
(0,0,0)
(0,0,0)
(0,0,0)
(0,0,0)
(0,0,0)
(0,0,0)
(0,0,0)
(0,0,0)
(0,0,0)
(0,0,0)
(0,0,0)
(0,0,0)
(0,0,0)
(0,0,0)
(0,0,0)
(0,0,0)
(0,0,0)
(0,0,0)
(0,0,0)
(0,0,0)
(0,0,0)
(0,0,0)
(0,0,0)
(0,0,0)
(0,0,0)
(0,0,0)
(0,0,0)
(0,0,0)
(0,0,0)
(0,0,0)
(0,0,0)
(0,0,0)
(0,0,0)
(0,0,0)
(0,0,0)
(0,0,0)
(0,0,0)
(0,0,0)
(0,0,0)
(0,0,0)
(0,0,0)
(0,0,0)
(0,0,0)
(0,0,0)
(0,0,0)
(0,0,0)
(0,0,0)
(0,0,0)
(0,0,0)
(0,0,0)
(0,0,0)
(0,0,0)
(0,0,0)
(0,0,0)
(0,0,0)
(0,0,0)
(0,0,0)
(0,0,0)
(0,0,0)
(0,0,0)
(0,0,0)
(0,0,0)
(0,0,0)
(0,0,0)
(0,0,0)
(0,0,0)
(0,0,0)
(0,0,0)
(0,0,0)
(0,0,0)
(0,0,0)
(0,0,0)
(0,0,0)
(0,0,0)
(0,0,0)
(0,0,0)
(0,0,0)
(0,0,0)
(0,0,0)
(0,0,0)
(0,0,0)
(0,0,0)
(0,0,0)
(0,0,0)
(0,0,0)
(0,0,0)
(0,0,0)
(0,0,0)
(0,0,0)
(0,0,0)
(0,0,0)
(0,0,0)
(0,0,0)
(0,0,0)
(0,0,0)
(0,0,0)
(0,0,0)
(0,0,0)
(0,0,0)
(0,0,0)
(0,0,0)
(0,0,0)
(0,0,0)
(0,0,0)
(0,0,0)
(0,0,0)
(0,0,0)
(0,0,0)
(0,0,0)
(0,0,0)
(0,0,0)
(0,0,0)
(0,0,0)
(0,0,0)
(0,0,0)
(0,0,0)
(0,0,0)
(0,0,0)
(0,0,0)
(0,0,0)
(0,0,0)
(0,0,0)
(0,0,0)
(0,0,0)
(0,0,0)
(0,0,0)
(0,0,0)
(0,0,0)
(0,0,0)
(0,0,0)
(0,0,0)
(0,0,0)
(0,0,0)
(0,0,0)
(0,0,0)
(0,0,0)
(0,0,0)
(0,0,0)
(0,0,0)
(0,0,0)
(0,0,0)
(0,0,0)
(0,0,0)
(0,0,0)
(0,0,0)
(0,0,0)
(0,0,0)
(0,0,0)
(0,0,0)
(0,0,0)
(0,0,0)
(0,0,0)
(0,0,0)
(0,0,0)
(0,0,0)
(0,0,0)
(0,0,0)
(0,0,0)
(0,0,0)
(0,0,0)
(0,0,0)
(0,0,0)
(0,0,0)
(0,0,0)
(0,0,0)
(0,0,0)
(0,0,0)
(0,0,0)
(0,0,0)
(0,0,0)
(0,0,0)
(0,0,0)
(0,0,0)
(0,0,0)
(0,0,0)
(0,0,0)
(0,0,0)
(0,0,0)
(0,0,0)
(0,0,0)
(0,0,0)
(0,0,0)
(0,0,0)
(0,0,0)
(0,0,0)
(0,0,0)
(0,0,0)
(0,0,0)
(0,0,0)
(0,0,0)
(0,0,0)
(0,0,0)
(0,0,0)
(0,0,0)
(0,0,0)
(0,0,0)
(0,0,0)
(0,0,0)
(0,0,0)
(0,0,0)
(0,0,0)
(0,0,0)
(0,0,0)
(0,0,0)
(0,0,0)
(0,0,0)
(0,0,0)
(0,0,0)
(0,0,0)
(0,0,0)
(0,0,0)
(0,0,0)
(0,0,0)
(0,0,0)
(0,0,0)
(0,0,0)
(0,0,0)
(0,0,0)
(0,0,0)
(0,0,0)
(0,0,0)
(0,0,0)
(0,0,0)
(0,0,0)
(0,0,0)
(0,0,0)
(0,0,0)
(0,0,0)
(0,0,0)
(0,0,0)
(0,0,0)
(0,0,0)
(0,0,0)
(0,0,0)
(0,0,0)
(0,0,0)
(0,0,0)
(0,0,0)
(0,0,0)
(0,0,0)
(0,0,0)
(0,0,0)
(0,0,0)
(0,0,0)
(0,0,0)
(0,0,0)
(0,0,0)
(0,0,0)
(0,0,0)
(0,0,0)
(0,0,0)
(0,0,0)
(0,0,0)
(0,0,0)
(0,0,0)
(0,0,0)
(0,0,0)
(0,0,0)
(0,0,0)
(0,0,0)
(0,0,0)
(0,0,0)
(0,0,0)
(0,0,0)
(0,0,0)
(0,0,0)
(0,0,0)
(0,0,0)
(0,0,0)
(0,0,0)
(0,0,0)
(0,0,0)
(0,0,0)
(0,0,0)
(0,0,0)
(0,0,0)
(0,0,0)
(0,0,0)
(0,0,0)
(0,0,0)
(0,0,0)
(0,0,0)
(0,0,0)
(0,0,0)
(0,0,0)
(0,0,0)
(0,0,0)
(0,0,0)
(0,0,0)
(0,0,0)
(0,0,0)
(0,0,0)
(0,0,0)
(0,0,0)
(0,0,0)
(0,0,0)
(0,0,0)
(0,0,0)
(0,0,0)
(0,0,0)
(0,0,0)
(0,0,0)
(0,0,0)
(0,0,0)
(0,0,0)
(0,0,0)
(0,0,0)
(0,0,0)
(0,0,0)
(0,0,0)
(0,0,0)
(0,0,0)
(0,0,0)
(0,0,0)
(0,0,0)
(0,0,0)
(0,0,0)
(0,0,0)
(0,0,0)
(0,0,0)
(0,0,0)
(0,0,0)
(0,0,0)
(0,0,0)
(0,0,0)
(0,0,0)
(0,0,0)
(0,0,0)
(0,0,0)
(0,0,0)
(0,0,0)
(0,0,0)
(0,0,0)
(0,0,0)
(0,0,0)
(0,0,0)
(0,0,0)
(0,0,0)
(0,0,0)
(0,0,0)
(0,0,0)
(0,0,0)
(0,0,0)
(0,0,0)
(0,0,0)
(0,0,0)
(0,0,0)
(0,0,0)
(0,0,0)
(0,0,0)
(0,0,0)
(0,0,0)
(0,0,0)
(0,0,0)
(0,0,0)
(0,0,0)
(0,0,0)
(0,0,0)
(0,0,0)
(0,0,0)
(0,0,0)
(0,0,0)
(0,0,0)
(0,0,0)
(0,0,0)
(0,0,0)
(0,0,0)
(0,0,0)
(0,0,0)
(0,0,0)
(0,0,0)
(0,0,0)
(0,0,0)
(0,0,0)
(0,0,0)
(0,0,0)
(0,0,0)
(0,0,0)
(0,0,0)
(0,0,0)
(0,0,0)
(0,0,0)
(0,0,0)
(0,0,0)
(0,0,0)
(0,0,0)
(0,0,0)
(0,0,0)
(0,0,0)
(0,0,0)
(0,0,0)
(0,0,0)
(0,0,0)
(0,0,0)
(0,0,0)
(0,0,0)
(0,0,0)
(0,0,0)
(0,0,0)
(0,0,0)
(0,0,0)
(0,0,0)
(0,0,0)
(0,0,0)
(0,0,0)
(0,0,0)
(0,0,0)
(0,0,0)
(0,0,0)
(0,0,0)
(0,0,0)
(0,0,0)
(0,0,0)
(0,0,0)
(0,0,0)
(0,0,0)
(0,0,0)
(0,0,0)
(0,0,0)
(0,0,0)
(0,0,0)
(0,0,0)
(0,0,0)
(0,0,0)
(0,0,0)
(0,0,0)
(0,0,0)
(0,0,0)
(0,0,0)
(0,0,0)
(0,0,0)
(0,0,0)
(0,0,0)
(0,0,0)
(0,0,0)
(0,0,0)
(0,0,0)
(0,0,0)
(0,0,0)
(0,0,0)
(0,0,0)
(0,0,0)
(0,0,0)
(0,0,0)
(0,0,0)
(0,0,0)
(0,0,0)
(0,0,0)
(0,0,0)
(0,0,0)
(0,0,0)
(0,0,0)
(0,0,0)
(0,0,0)
(0,0,0)
(0,0,0)
(0,0,0)
(0,0,0)
(0,0,0)
(0,0,0)
(0,0,0)
(0,0,0)
(0,0,0)
(0,0,0)
(0,0,0)
(0,0,0)
(0,0,0)
(0,0,0)
(0,0,0)
(0,0,0)
(0,0,0)
(0,0,0)
(0,0,0)
(0,0,0)
(0,0,0)
(0,0,0)
(0,0,0)
(0,0,0)
(0,0,0)
(0,0,0)
(0,0,0)
(0,0,0)
(0,0,0)
(0,0,0)
(0,0,0)
(0,0,0)
(0,0,0)
(0,0,0)
(0,0,0)
(0,0,0)
(0,0,0)
(0,0,0)
(0,0,0)
(0,0,0)
(0,0,0)
(0,0,0)
(0,0,0)
(0,0,0)
(0,0,0)
(0,0,0)
(0,0,0)
(0,0,0)
(0,0,0)
(0,0,0)
(0,0,0)
(0,0,0)
(0,0,0)
(0,0,0)
(0,0,0)
(0,0,0)
(0,0,0)
(0,0,0)
(0,0,0)
(0,0,0)
(0,0,0)
(0,0,0)
(0,0,0)
(0,0,0)
(0,0,0)
(0,0,0)
(0,0,0)
(0,0,0)
(0,0,0)
(0,0,0)
(0,0,0)
(0,0,0)
(0,0,0)
(0,0,0)
(0,0,0)
(0,0,0)
(0,0,0)
(0,0,0)
(0,0,0)
(0,0,0)
(0,0,0)
(0,0,0)
(0,0,0)
(0,0,0)
(0,0,0)
(0,0,0)
(0,0,0)
(0,0,0)
(0,0,0)
(0,0,0)
(0,0,0)
(0,0,0)
(0,0,0)
(0,0,0)
(0,0,0)
(0,0,0)
(0,0,0)
(0,0,0)
(0,0,0)
(0,0,0)
(0,0,0)
(0,0,0)
(0,0,0)
(0,0,0)
(0,0,0)
(0,0,0)
(0,0,0)
(0,0,0)
(0,0,0)
(0,0,0)
(0,0,0)
(0,0,0)
(0,0,0)
(0,0,0)
(0,0,0)
(0,0,0)
(0,0,0)
(0,0,0)
(0,0,0)
(0,0,0)
(0,0,0)
(0,0,0)
(0,0,0)
(0,0,0)
(0,0,0)
(0,0,0)
(0,0,0)
(0,0,0)
(0,0,0)
(0,0,0)
(0,0,0)
(0,0,0)
(0,0,0)
(0,0,0)
(0,0,0)
(0,0,0)
(0,0,0)
(0,0,0)
(0,0,0)
(0,0,0)
(0,0,0)
(0,0,0)
(0,0,0)
(0,0,0)
(0,0,0)
(0,0,0)
(0,0,0)
(0,0,0)
(0,0,0)
(0,0,0)
(0,0,0)
(0,0,0)
(0,0,0)
(0,0,0)
(0,0,0)
(0,0,0)
(0,0,0)
(0,0,0)
(0,0,0)
(0,0,0)
(0,0,0)
(0,0,0)
(0,0,0)
(0,0,0)
(0,0,0)
(0,0,0)
(0,0,0)
(0,0,0)
(0,0,0)
(0,0,0)
(0,0,0)
(0,0,0)
(0,0,0)
(0,0,0)
(0,0,0)
(0,0,0)
(0,0,0)
(0,0,0)
(0,0,0)
(0,0,0)
(0,0,0)
(0,0,0)
(0,0,0)
(0,0,0)
(0,0,0)
(0,0,0)
(0,0,0)
(0,0,0)
(0,0,0)
(0,0,0)
(0,0,0)
(0,0,0)
(0,0,0)
(0,0,0)
(0,0,0)
(0,0,0)
(0,0,0)
(0,0,0)
(0,0,0)
(0,0,0)
(0,0,0)
(0,0,0)
(0,0,0)
(0,0,0)
(0,0,0)
(0,0,0)
(0,0,0)
(0,0,0)
(0,0,0)
(0,0,0)
(0,0,0)
(0,0,0)
(0,0,0)
(0,0,0)
(0,0,0)
(0,0,0)
(0,0,0)
(0,0,0)
(0,0,0)
(0,0,0)
(0,0,0)
(0,0,0)
(0,0,0)
(0,0,0)
(0,0,0)
(0,0,0)
(0,0,0)
(0,0,0)
(0,0,0)
(0,0,0)
(0,0,0)
(0,0,0)
(0,0,0)
(0,0,0)
(0,0,0)
(0,0,0)
(0,0,0)
(0,0,0)
(0,0,0)
(0,0,0)
(0,0,0)
(0,0,0)
(0,0,0)
(0,0,0)
(0,0,0)
(0,0,0)
(0,0,0)
(0,0,0)
(-156051.065057067,82979.0966861969,73071.9683708687)
(-165059.945119625,79518.9593289234,158612.954161568)
(-185925.051871239,72342.8503367171,272195.155696085)
(-225320.508108385,61127.9634214435,436387.700383041)
(-296411.741148005,46002.6505428387,686796.790988202)
(-423971.290558911,28610.4398483546,1082157.64169876)
(-654882.879805989,12813.2534373246,1724227.26806746)
(-1072177.14942389,3132.96809040699,2793271.44940095)
(-1768478.38577215,-60.3323443134247,4561810.16751737)
(-2464134.16398053,-289.183456878634,7026233.51495484)
(0,0,0)
(0,0,0)
(0,0,0)
(0,0,0)
(0,0,0)
(0,0,0)
(-165106.228727928,178410.634067282,69674.6913468424)
(-174180.537600008,171858.456874095,151515.73140168)
(-195357.474802112,158199.062501343,261016.994039164)
(-235686.756969004,136550.306099383,421281.408330229)
(-308753.790534715,106639.944886425,669397.904521356)
(-439377.186109783,71063.3770769707,1066322.15340251)
(-672833.66581449,37452.7169368654,1714516.35571745)
(-1088516.7420594,16143.4596651745,2790022.60620202)
(-1779348.54020974,7805.59080179504,4561505.22326574)
(-2469209.50484593,3990.66876536727,7026434.87588926)
(0,0,0)
(0,0,0)
(0,0,0)
(0,0,0)
(0,0,0)
(0,0,0)
(-185748.149880072,300922.907833617,63235.8761137365)
(-194991.22193253,292110.646407657,137974.908512708)
(-216845.356792804,273610.805748193,239408.522058669)
(-259195.842469714,243738.971892542,391415.698735223)
(-336925.708155581,201158.258901729,633823.092875487)
(-475643.622913024,147924.666840697,1032605.42602479)
(-717124.253701296,94041.4219207162,1693140.97474226)
(-1129269.87816519,56992.8065008631,2781561.50607172)
(-1805592.87720669,37492.8059243046,4557467.16815591)
(-2481099.13627995,20354.2495802484,7022202.72362106)
(0,0,0)
(0,0,0)
(0,0,0)
(0,0,0)
(0,0,0)
(0,0,0)
(-224174.177851619,470493.569192798,54603.5164924383)
(-233609.220270593,460696.361673759,119627.021496934)
(-256335.213353344,439987.93481684,209585.105781622)
(-301599.119180984,406087.240238585,348835.95661655)
(-387013.08594668,356435.529477135,580571.771987843)
(-541262.00520959,291108.065608664,978650.378429459)
(-801888.802563483,218511.726915123,1656068.87599851)
(-1208081.93783184,159222.696191723,2761920.92413947)
(-1853673.8494033,113080.587619108,4540006.99184789)
(-2502070.35498591,60869.532947783,7001562.06346653)
(0,0,0)
(0,0,0)
(0,0,0)
(0,0,0)
(0,0,0)
(0,0,0)
(-293122.385000718,718645.673780048,44970.280413459)
(-302518.705683391,709145.91697564,99039.4307949627)
(-325682.901683727,689039.684105661,175670.583189874)
(-373383.951302657,656030.30494502,299111.469786102)
(-466729.209934649,607099.634409187,515176.574788688)
(-640229.919583578,540492.800155795,906021.759825126)
(-930997.856289884,458773.177577511,1596758.16545264)
(-1328093.751865,368431.167317328,2715643.44619202)
(-1923514.19112779,264790.543839227,4487447.68109981)
(-2532348.98108027,140328.109475448,6940338.08565244)
(0,0,0)
(0,0,0)
(0,0,0)
(0,0,0)
(0,0,0)
(0,0,0)
(-417553.060780209,1100638.35008006,35560.3844802035)
(-426466.891757888,1092212.89948461,78960.2937291145)
(-448862.401682372,1074300.58114629,142561.798370862)
(-496089.188672285,1044591.14193378,250090.150054377)
(-590405.287899727,999055.014138844,448540.058224468)
(-767197.9265662,931883.651569472,824347.133376991)
(-1058836.42509152,835548.028058304,1506408.70798772)
(-1437907.0896644,700827.263598713,2611919.70137078)
(-1999204.38223403,513137.406369414,4362777.2210746)
(-2570482.39597613,273907.005561968,6799680.72096417)
(0,0,0)
(0,0,0)
(0,0,0)
(0,0,0)
(0,0,0)
(0,0,0)
(-645861.469134935,1719313.12211677,27186.6970982298)
(-653767.701259777,1712070.665959,61096.6318836354)
(-673870.034996423,1696480.65663754,112786.591388803)
(-716990.014382396,1669932.76782941,204434.979875563)
(-804568.951157828,1626771.00035307,381287.944819161)
(-970672.904964385,1555786.50449605,728057.996856992)
(-1244363.37759317,1436287.7257134,1371681.67679508)
(-1589086.9159776,1237453.5450149,2424142.31135647)
(-2112051.6752306,925884.348953799,4123447.04400271)
(-2632747.38803137,504479.292781132,6525622.14481496)
(0,0,0)
(0,0,0)
(0,0,0)
(0,0,0)
(0,0,0)
(0,0,0)
(-1063363.35595571,2762682.30432243,19994.1737500245)
(-1069690.50967863,2756139.07778204,45616.2716056078)
(-1085886.24825054,2741705.65470947,86277.5217842305)
(-1120954.40690989,2715899.47836628,161265.218157222)
(-1192919.98982105,2670681.20141193,310275.006919416)
(-1330997.49094307,2588478.74522599,608580.257132519)
(-1560205.86030486,2432226.57430437,1172847.26884636)
(-1839315.51648878,2137092.46535636,2112523.86499372)
(-2316926.64280973,1653385.95066044,3701948.90609682)
(-2751792.50581878,937213.550877339,6021007.15381934)
(0,0,0)
(0,0,0)
(0,0,0)
(0,0,0)
(0,0,0)
(0,0,0)
(-1762446.29729288,4511718.01076167,13410.5908536397)
(-1766772.9618174,4505206.71284694,31115.9176061257)
(-1777799.41453554,4490231.05828901,60389.9285620894)
(-1801396.27650301,4461626.50963909,116059.17379228)
(-1848935.35987587,4407561.72757142,228114.007508691)
(-1938285.0304576,4302494.23384233,452383.549349954)
(-2088312.18354415,4095180.50020522,877741.806993271)
(-2311261.9501225,3697241.92270232,1628854.29976984)
(-2694746.33683341,2991167.87405103,2985818.71321252)
(-2959388.28033068,1798525.35416093,5083895.19025959)
(0,0,0)
(0,0,0)
(0,0,0)
(0,0,0)
(0,0,0)
(0,0,0)
(-2461341.65820228,6966249.73138139,6809.93758254633)
(-2463520.87068554,6959513.36715985,16024.1539551543)
(-2469017.32519076,6943586.64845541,31685.8889795247)
(-2480606.88963296,6911979.33450201,61939.9537496041)
(-2503621.15128574,6850114.45463555,123008.377971246)
(-2546664.38431617,6727146.05652682,245020.939602887)
(-2621736.25876596,6482172.43044764,479765.268126427)
(-2748268.90965566,6002421.55721146,922854.543272904)
(-2958708.71009168,5079439.81536886,1793291.31204666)
(-2979732.75636323,3285940.20483706,3285609.21773386)
(0,0,0)
(0,0,0)
(0,0,0)
(0,0,0)
(0,0,0)
(0,0,0)
(0,0,0)
(0,0,0)
(0,0,0)
(0,0,0)
(0,0,0)
(0,0,0)
(0,0,0)
(0,0,0)
(0,0,0)
(0,0,0)
(0,0,0)
(0,0,0)
(0,0,0)
(0,0,0)
(0,0,0)
(0,0,0)
(0,0,0)
(0,0,0)
(0,0,0)
(0,0,0)
(0,0,0)
(0,0,0)
(0,0,0)
(0,0,0)
(0,0,0)
(0,0,0)
(0,0,0)
(0,0,0)
(0,0,0)
(0,0,0)
(0,0,0)
(0,0,0)
(0,0,0)
(0,0,0)
(0,0,0)
(0,0,0)
(0,0,0)
(0,0,0)
(0,0,0)
(0,0,0)
(0,0,0)
(0,0,0)
(0,0,0)
(0,0,0)
(0,0,0)
(0,0,0)
(0,0,0)
(0,0,0)
(0,0,0)
(0,0,0)
(0,0,0)
(0,0,0)
(0,0,0)
(0,0,0)
(0,0,0)
(0,0,0)
(0,0,0)
(0,0,0)
(0,0,0)
(0,0,0)
(0,0,0)
(0,0,0)
(0,0,0)
(0,0,0)
(0,0,0)
(0,0,0)
(0,0,0)
(0,0,0)
(0,0,0)
(0,0,0)
(0,0,0)
(0,0,0)
(0,0,0)
(0,0,0)
(0,0,0)
(0,0,0)
(0,0,0)
(0,0,0)
(0,0,0)
(0,0,0)
(0,0,0)
(0,0,0)
(0,0,0)
(0,0,0)
(0,0,0)
(0,0,0)
(0,0,0)
(0,0,0)
(0,0,0)
(0,0,0)
(0,0,0)
(0,0,0)
(0,0,0)
(0,0,0)
(0,0,0)
(0,0,0)
(23110507.3776757,73969.7013962421,64076.7405437505)
(23095436.3458371,70424.2824215928,137761.051838325)
(23060774.9826133,62919.1967520299,232746.705274401)
(22995981.1846023,50789.4035254996,365260.493710955)
(22880571.422567,33708.5930222046,559173.621646501)
(22675418.0513004,13266.6741436003,851122.490316192)
(22299134.0744732,-5098.2454299453,1306808.66613951)
(21555583.1791522,-13205.4298957366,2096858.65213186)
(19877875.3883197,-10946.6727608188,3866056.43547353)
(15321667.1412479,-5372.35884252641,9490232.37376062)
(0,0,0)
(0,0,0)
(0,0,0)
(0,0,0)
(0,0,0)
(0,0,0)
(23095099.5640057,157793.414837038,60575.3784983606)
(23080028.5713336,151088.623294331,130306.813364735)
(23045068.6366735,136769.476714024,220635.306599854)
(22979031.8716041,113124.074066324,348186.892158766)
(22860458.1447238,78577.3046021139,538711.129993164)
(22649544.438914,34915.6977216047,832745.366064162)
(22267495.1597892,-6752.39304430584,1298675.57274774)
(21527075.1065793,-24559.5615405363,2099042.74042657)
(19860191.2459368,-18388.2134064845,3871549.37959818)
(15313938.5238901,-7870.8710245112,9495504.74771668)
(0,0,0)
(0,0,0)
(0,0,0)
(0,0,0)
(0,0,0)
(0,0,0)
(23060223.6663674,262450.778513842,53975.7047484104)
(23045082.4894921,253516.486761035,116079.014529815)
(23009406.5344781,234203.663221174,196997.821424651)
(22940468.0747637,201425.496802742,313637.366127677)
(22813686.309454,151169.286564689,495038.251228242)
(22585497.9576546,82393.3689183426,791023.884136763)
(22181598.5017688,9332.51216169519,1280821.10813342)
(21448279.1327527,-21767.4733254181,2105084.89367322)
(19814379.043758,-10517.8220775785,3881847.46605221)
(15294947.0365102,-578.612127816581,9503113.91903815)
(0,0,0)
(0,0,0)
(0,0,0)
(0,0,0)
(0,0,0)
(0,0,0)
(22996139.7078731,401568.383205042,45173.3942568079)
(22980968.4533728,391835.057907601,96882.0341396846)
(22944402.9660828,370695.507023882,164256.895573596)
(22870981.3837186,334343.830153964,263362.943995544)
(22729103.9379485,276771.66618002,426248.425157857)
(22461856.0803786,192206.985921052,717921.607239691)
(21990801.2261662,89468.339728191,1249700.63561631)
(21268985.510264,39269.2568467228,2116201.34202116)
(19721835.859076,43277.5596199459,3891501.13651707)
(15259415.594996,30593.4861430731,9503447.97293713)
(0,0,0)
(0,0,0)
(0,0,0)
(0,0,0)
(0,0,0)
(0,0,0)
(22883238.4583635,594243.443665348,35568.9808482342)
(22868413.4003565,585222.568279816,75854.2491088204)
(22831672.2868331,565879.367842672,127920.084446085)
(22754438.998155,533327.959614208,205717.890200863)
(22595295.5317056,483441.249911658,341628.449501874)
(22269469.1943837,413570.022377654,615171.183750859)
(21647801.5991439,330972.891729923,1199472.0609882)
(20936544.1932216,258652.647492362,2120055.6099288)
(19576787.9866412,189119.962345322,3878515.91410709)
(15206574.1298057,102210.205321745,9472580.96871511)
(0,0,0)
(0,0,0)
(0,0,0)
(0,0,0)
(0,0,0)
(0,0,0)
(22682398.8255761,872246.473652054,26649.9683295921)
(22668603.6198681,864851.56909479,56555.3405613136)
(22633615.6008998,849253.048635833,95308.5418586941)
(22557798.3125563,823625.893650173,155727.991266956)
(22396848.8369173,784809.074415668,271710.926618606)
(22061728.2918253,728327.899551678,532631.715725701)
(21432249.5543164,649962.969333601,1127160.54338698)
(20752423.5819714,549636.006280263,2050451.39763599)
(19453274.1802008,400298.652511397,3791399.029708)
(15145989.606966,211676.224658335,9370065.89210191)
(0,0,0)
(0,0,0)
(0,0,0)
(0,0,0)
(0,0,0)
(0,0,0)
(22310016.9911703,1301663.00462103,19309.8933985479)
(22297999.8702585,1296009.17831785,40989.5973299721)
(22267001.9824708,1284344.91013647,69630.6030350195)
(22198209.9982005,1265845.39997899,116815.968796043)
(22048184.0573073,1238300.38906229,215176.530357052)
(21727771.6563224,1195354.83456991,454309.918724754)
(21117320.7747804,1120371.32335396,1026822.29700344)
(20503750.3796559,987189.61529418,1901036.27702887)
(19270252.9945653,721006.260357878,3602628.88405908)
(15042511.950318,385448.056998981,9158202.59804197)
(0,0,0)
(0,0,0)
(0,0,0)
(0,0,0)
(0,0,0)
(0,0,0)
(21565798.4517219,2063439.47277239,13666.6088438684)
(21556315.1841227,2058909.83799558,29365.1400375111)
(21531624.0366681,2049671.76602857,51132.8838995331)
(21476063.6592004,2035321.46550607,89243.636934923)
(21352487.0025516,2014540.20507768,172201.713219601)
(21080738.9485231,1981085.18223767,379339.810758505)
(20546472.7366539,1903995.67863451,893641.743191951)
(20146275.2392182,1665042.83045463,1634802.65699711)
(18901007.0152359,1275523.32390094,3266956.82008124)
(14803019.3639198,729589.055414802,8772608.83659959)
(0,0,0)
(0,0,0)
(0,0,0)
(0,0,0)
(0,0,0)
(0,0,0)
(19883789.7782407,3812714.45995233,9093.8219592985)
(19877396.3607747,3808364.43111119,20074.7909243799)
(19860887.6640006,3798911.63375375,36752.7293357856)
(19824542.5954552,3782265.92066613,68474.2868902623)
(19747220.1951606,3752717.22627441,138746.595329764)
(19589884.8126615,3693978.92913466,302287.889986621)
(19306265.8341475,3561596.20664228,654714.228960035)
(18907707.4333872,3260089.61091235,1245302.94966547)
(17782474.5691788,2727135.71526917,2721074.5369579)
(14074644.850907,1778125.48599545,8043109.8598123)
(0,0,0)
(0,0,0)
(0,0,0)
(0,0,0)
(0,0,0)
(0,0,0)
(15323808.0580347,9427509.64396057,4659.98442745289)
(15320634.4962315,9422922.49608911,10551.4372050498)
(15312534.5957753,9412422.79409886,20093.2405666159)
(15295083.0097102,9392350.73393682,38923.4126257194)
(15259148.0741212,9353491.52720563,79984.7709604553)
(15188436.9444567,9273556.60541884,169910.650576299)
(15057529.9707279,9103651.48782674,353194.024570689)
(14806737.8177616,8750484.43979082,712397.35294794)
(14075206.5817551,8038010.73393252,1772211.92711072)
(11444398.1539096,6265574.22676637,6265237.16073975)
(0,0,0)
(0,0,0)
(0,0,0)
(0,0,0)
(0,0,0)
(0,0,0)
(0,0,0)
(0,0,0)
(0,0,0)
(0,0,0)
(0,0,0)
(0,0,0)
(0,0,0)
(0,0,0)
(0,0,0)
(0,0,0)
(0,0,0)
(0,0,0)
(0,0,0)
(0,0,0)
(0,0,0)
(0,0,0)
(0,0,0)
(0,0,0)
(0,0,0)
(0,0,0)
(0,0,0)
(0,0,0)
(0,0,0)
(0,0,0)
(0,0,0)
(0,0,0)
(0,0,0)
(0,0,0)
(0,0,0)
(0,0,0)
(0,0,0)
(0,0,0)
(0,0,0)
(0,0,0)
(0,0,0)
(0,0,0)
(0,0,0)
(0,0,0)
(0,0,0)
(0,0,0)
(0,0,0)
(0,0,0)
(0,0,0)
(0,0,0)
(0,0,0)
(0,0,0)
(0,0,0)
(0,0,0)
(0,0,0)
(0,0,0)
(0,0,0)
(0,0,0)
(0,0,0)
(0,0,0)
(0,0,0)
(0,0,0)
(0,0,0)
(0,0,0)
(0,0,0)
(0,0,0)
(0,0,0)
(0,0,0)
(0,0,0)
(0,0,0)
(0,0,0)
(0,0,0)
(0,0,0)
(0,0,0)
(0,0,0)
(0,0,0)
(0,0,0)
(0,0,0)
(0,0,0)
(0,0,0)
(0,0,0)
(0,0,0)
(0,0,0)
(0,0,0)
(0,0,0)
(0,0,0)
(0,0,0)
(0,0,0)
(0,0,0)
(0,0,0)
(0,0,0)
(0,0,0)
(0,0,0)
(0,0,0)
(0,0,0)
(0,0,0)
(0,0,0)
(0,0,0)
(0,0,0)
(0,0,0)
(0,0,0)
(0,0,0)
(-401678.382455677,58575.6344367614,49005.241021856)
(-418292.235375417,55025.5574805421,103103.380080938)
(-455891.58885939,47217.9678112985,167947.099069687)
(-524415.64558049,33860.435298079,249878.609281649)
(-641737.464428629,13624.6871456213,353957.924458913)
(-837330.92849127,-12586.2717158292,474688.291293802)
(-1157115.872744,-36734.611535581,563067.965373978)
(-1663131.91289758,-41745.9992055511,418924.171956618)
(-2388667.06372047,-28684.3370463382,-690453.923629577)
(-2928280.39836283,-13147.1113823769,-5831964.15730918)
(0,0,0)
(0,0,0)
(0,0,0)
(0,0,0)
(0,0,0)
(0,0,0)
(-419287.074141707,122889.626357795,45467.761553586)
(-435601.518755997,116188.327538858,95330.1969121424)
(-472812.948622279,101213.833395923,154611.031950575)
(-541426.800094232,74682.8469514741,229642.407322673)
(-660536.238512748,31929.9367041869,327726.65632785)
(-861443.625010545,-29033.8462509374,450557.410114707)
(-1188731.00199916,-92606.3615825861,558050.437277182)
(-1689813.42292978,-103337.141122689,431925.224030644)
(-2402015.92108472,-64186.059546469,-674970.771120181)
(-2932981.46072675,-26883.6599098963,-5818919.12264845)
(0,0,0)
(0,0,0)
(0,0,0)
(0,0,0)
(0,0,0)
(0,0,0)
(-458601.431879109,198296.331815825,38813.508115794)
(-474385.542061918,189449.488755799,80415.493780129)
(-510967.25470738,169307.739601277,128090.492087362)
(-580265.313974899,132021.662477404,186880.180627183)
(-705525.792584162,66644.3069886952,266773.027708105)
(-927134.497992564,-41219.7645128084,386986.516944244)
(-1294451.68640973,-181462.616619001,547288.075486434)
(-1782283.04688655,-201054.589267706,470962.818597887)
(-2442574.34949683,-103033.965506082,-637840.766860259)
(-2945970.89716356,-36121.8805282965,-5792289.49724092)
(0,0,0)
(0,0,0)
(0,0,0)
(0,0,0)
(0,0,0)
(0,0,0)
(-528871.406610345,288691.717200276,30010.8444262595)
(-543855.814094376,279349.451453851,60330.2645225451)
(-579423.26948664,258046.842405841,90812.5126146512)
(-650111.089417144,217856.822831231,121464.940723813)
(-789281.993650162,142990.353892179,158899.940746176)
(-1071631.69135155,-149.180593999513,246712.2438848)
(-1622717.07166356,-253468.055007225,527631.095429947)
(-2084779.08527789,-293091.481418253,568827.698449558)
(-2544107.27006475,-101705.822330186,-571162.200258264)
(-2973809.6604955,-22251.1882342573,-5756412.52173374)
(0,0,0)
(0,0,0)
(0,0,0)
(0,0,0)
(0,0,0)
(0,0,0)
(-646900.185513411,393478.573874099,20746.9025303285)
(-660667.290816326,385468.49273048,39103.6677538341)
(-694271.770614186,367872.305414149,50617.3775199258)
(-764941.587181619,336732.450680685,46517.4503344122)
(-920541.276155835,285027.295129553,15712.4322855794)
(-1318798.8798703,205873.173836652,-6646.73256392422)
(-2620336.37040474,115496.720851302,487921.576453294)
(-3107851.05732836,74587.2981317758,760033.162780438)
(-2743206.19616269,65635.1520706132,-491918.513489163)
(-3019449.42276406,41621.1596874238,-5734372.19351373)
(0,0,0)
(0,0,0)
(0,0,0)
(0,0,0)
(0,0,0)
(0,0,0)
(-841421.893164331,499855.180917102,12839.2270248262)
(-853482.585261215,494229.72986602,21559.3103459194)
(-883611.17074572,482614.668785191,19438.8339476764)
(-949336.793505515,463994.991211595,-5293.48519422205)
(-1100584.38684488,436083.871691992,-63521.7226671672)
(-1497824.76184863,394328.072466848,-97028.4522960503)
(-2735955.44210423,335041.093041697,447027.287261294)
(-3182582.14592893,300990.326234955,751025.102385644)
(-2835876.78746919,217312.997259033,-516106.659805709)
(-3065053.89497855,108229.273810772,-5776276.15665721)
(0,0,0)
(0,0,0)
(0,0,0)
(0,0,0)
(0,0,0)
(0,0,0)
(-1159397.01016527,557381.058673562,7283.23890633255)
(-1169337.90859846,554255.36386423,9990.49909232445)
(-1194680.29541692,548893.224541423,789.336550890382)
(-1251949.87133112,543621.5024565,-33282.1898351209)
(-1390797.32159968,542504.173539961,-105325.997448864)
(-1779762.91163286,548226.915636171,-156295.157335639)
(-3071073.34933529,549511.583599454,413023.591549658)
(-3483902.7351546,629738.717229825,667323.430692513)
(-2976158.27785316,351778.630418052,-625335.814720628)
(-3140437.86985059,145961.948181974,-5884723.55359614)
(0,0,0)
(0,0,0)
(0,0,0)
(0,0,0)
(0,0,0)
(0,0,0)
(-1666900.38168051,381300.027657788,4174.97974534547)
(-1674384.11883566,379854.505330776,4670.25656446167)
(-1693742.27769119,378789.229091339,-4464.31829893463)
(-1738640.58228305,383643.274682283,-34386.733714033)
(-1853516.21717559,409111.586472072,-99595.8115916576)
(-2210310.24485855,490085.540894282,-155010.128140921)
(-3620603.99023216,663678.326408087,493294.971263754)
(-2951077.09375773,426399.978228369,389381.158568449)
(-3088130.027923,156905.604290294,-831213.656817581)
(-3257160.46441938,1131.65111296042,-6030808.41608209)
(0,0,0)
(0,0,0)
(0,0,0)
(0,0,0)
(0,0,0)
(0,0,0)
(-2394806.32474271,-747424.727222173,2715.97319058638)
(-2399662.8610368,-748583.98828504,3608.80394513678)
(-2412075.54607993,-749661.715631696,418.07407598392)
(-2439686.88314949,-747437.462387528,-8876.59492226794)
(-2502929.59013092,-735601.289263121,-18618.8185682655)
(-2654167.95424693,-707686.876976664,18601.4815381633)
(-2984761.55183568,-687359.130652631,256061.439909274)
(-3093282.28410242,-841108.443052421,119954.694006794)
(-3377997.57482803,-980356.387198176,-986916.055170725)
(-3431548.58126393,-852297.557133476,-6031898.29942609)
(0,0,0)
(0,0,0)
(0,0,0)
(0,0,0)
(0,0,0)
(0,0,0)
(-2933030.53973253,-5896690.92488769,1499.91076005621)
(-2935377.84845778,-5898151.44982795,2474.83231947496)
(-2941306.74616601,-5900591.66558631,2641.23954272436)
(-2954071.04344978,-5903215.51386238,2968.45950460506)
(-2981222.91279895,-5906139.68351621,9272.9560049852)
(-3038172.25378762,-5915370.59291751,38960.9855172446)
(-3143422.48504575,-5954384.13871431,102333.564679901)
(-3260659.2252111,-6056762.19842554,-19220.5216472413)
(-3432579.10306935,-6037677.33712156,-858718.77157231)
(-3312621.96568683,-5179180.88744787,-5179420.20633433)
(0,0,0)
(0,0,0)
(0,0,0)
(0,0,0)
(0,0,0)
(0,0,0)
(0,0,0)
(0,0,0)
(0,0,0)
(0,0,0)
(0,0,0)
(0,0,0)
(0,0,0)
(0,0,0)
(0,0,0)
(0,0,0)
(0,0,0)
(0,0,0)
(0,0,0)
(0,0,0)
(0,0,0)
(0,0,0)
(0,0,0)
(0,0,0)
(0,0,0)
(0,0,0)
(0,0,0)
(0,0,0)
(0,0,0)
(0,0,0)
(0,0,0)
(0,0,0)
(0,0,0)
(0,0,0)
(0,0,0)
(0,0,0)
(0,0,0)
(0,0,0)
(0,0,0)
(0,0,0)
(0,0,0)
(0,0,0)
(0,0,0)
(0,0,0)
(0,0,0)
(0,0,0)
(0,0,0)
(0,0,0)
(0,0,0)
(0,0,0)
(0,0,0)
(0,0,0)
(0,0,0)
(0,0,0)
(0,0,0)
(0,0,0)
(0,0,0)
(0,0,0)
(0,0,0)
(0,0,0)
(0,0,0)
(0,0,0)
(0,0,0)
(0,0,0)
(0,0,0)
(0,0,0)
(0,0,0)
(0,0,0)
(0,0,0)
(0,0,0)
(0,0,0)
(0,0,0)
(0,0,0)
(0,0,0)
(0,0,0)
(0,0,0)
(0,0,0)
(0,0,0)
(0,0,0)
(0,0,0)
(0,0,0)
(0,0,0)
(0,0,0)
(0,0,0)
(0,0,0)
(0,0,0)
(0,0,0)
(0,0,0)
(0,0,0)
(0,0,0)
(0,0,0)
(0,0,0)
(0,0,0)
(0,0,0)
(0,0,0)
(0,0,0)
(0,0,0)
(0,0,0)
(0,0,0)
(0,0,0)
(0,0,0)
(0,0,0)
(-475005.688866422,40968.9377528459,32358.3686578995)
(-489095.359147774,37723.3575620403,65438.1348682175)
(-520169.232836905,30302.2745080913,99413.5043376427)
(-574498.385611177,16863.508652733,132632.735715599)
(-662264.447251447,-5166.02969476758,158325.748233186)
(-797112.132213283,-36700.0291747062,154806.9811299)
(-990874.448820326,-68345.116562779,56910.6737690028)
(-1231024.13102811,-68444.9729272541,-306752.135173208)
(-1423115.0416953,-42067.1270966928,-1230237.03010164)
(-1236731.00912335,-17867.3696444853,-2903919.04969659)
(0,0,0)
(0,0,0)
(0,0,0)
(0,0,0)
(0,0,0)
(0,0,0)
(-491020.934528624,83599.6820852607,29103.1160544975)
(-504308.378297287,77476.7866825762,58056.5464752559)
(-533647.899022734,63182.6101456985,86011.1612381051)
(-585119.305292819,35968.5750575657,110598.600031855)
(-668902.24762226,-12969.9220686453,126768.501515241)
(-799881.428883943,-94660.8206341922,123167.096848129)
(-992402.693656801,-198289.866359555,56783.5383025495)
(-1225240.8344747,-195779.625148958,-280454.39793083)
(-1413703.81249639,-104725.254332467,-1206108.37928336)
(-1230930.18256826,-39868.4272579211,-2886158.5998285)
(0,0,0)
(0,0,0)
(0,0,0)
(0,0,0)
(0,0,0)
(0,0,0)
(-526066.784205231,128090.859808537,22974.1746028484)
(-537837.430705635,120091.039984944,43811.8099441956)
(-563800.901087315,100986.634486589,58841.4319832384)
(-609388.303314053,62259.0867869602,61673.9095929939)
(-684838.334617486,-17088.1904475727,45104.7200052448)
(-810508.668231096,-185719.649721693,19537.7193312617)
(-1022690.04286658,-509735.840804707,59222.0502332614)
(-1225763.66558341,-503553.757504909,-189523.198713942)
(-1390851.93063704,-204559.175937202,-1141411.695969)
(-1216771.14300421,-63962.628909915,-2846517.24847639)
(0,0,0)
(0,0,0)
(0,0,0)
(0,0,0)
(0,0,0)
(0,0,0)
(-586523.655102111,170760.998966371,14982.1093339416)
(-596174.37654129,162653.831257543,24737.8805082648)
(-617153.177261635,143325.007305762,20129.4154640893)
(-653123.646444111,103100.944801036,-17699.8855230154)
(-712298.598463643,11749.6036426139,-123521.074799722)
(-829047.498636257,-247308.184201977,-304516.733034734)
(-1251177.78576127,-1251056.30997074,65264.4502290146)
(-1316236.39518635,-1316102.20294846,109270.205580999)
(-1337593.09386285,-300754.114682756,-1001049.03187534)
(-1188160.165218,-67874.4911359259,-2782786.66492692)
(0,0,0)
(0,0,0)
(0,0,0)
(0,0,0)
(0,0,0)
(0,0,0)
(-682145.850841261,199047.842143149,6958.82215106965)
(-689279.593732464,192743.824236597,5481.13208815768)
(-703993.510727942,178629.149276157,-20101.2697684752)
(-725218.569357627,152407.061979429,-109130.404770858)
(-740334.91641595,105015.655771164,-382602.816639296)
(-667277.576071964,26881.9555604592,-1308314.26020006)
(7.9617812556665e-05,2.08546956670426e-05,-5.2295252185911e-05)