/*--------------------------------*- C++ -*----------------------------------*\
| =========                 |                                                 |
| \\      /  F ield         | foam-extend: Open Source Cstd::filesystem::create_directory();FD                    |
|  \\    /   O peration     | Version:     4.0                                |
|   \\  /    A nd           | Web:         http://www.foam-extend.org         |
|    \\/     M anipulation  |                                                 |
\*---------------------------------------------------------------------------*/
FoamFile
{
    version 2.0;
    format ascii;
    class volVectorField;
    location "Data/3332";
    object      H;
}
// * * * * * * * * * * * * * * * * * * * * * * * * * * * * * * * * * * * * * //

dimensions      [0 1 -1 0 0 0 0];

internalField   nonuniform List<vector>
4096
(
(0,0,0)
(0,0,0)
(0,0,0)
(0,0,0)
(0,0,0)
(0,0,0)
(0,0,0)
(0,0,0)
(0,0,0)
(0,0,0)
(0,0,0)
(0,0,0)
(0,0,0)
(0,0,0)
(0,0,0)
(0,0,0)
(0,0,0)
(0,0,0)
(0,0,0)
(0,0,0)
(0,0,0)
(0,0,0)
(0,0,0)
(0,0,0)
(0,0,0)
(0,0,0)
(0,0,0)
(0,0,0)
(0,0,0)
(0,0,0)
(0,0,0)
(0,0,0)
(0,0,0)
(0,0,0)
(0,0,0)
(0,0,0)
(0,0,0)
(0,0,0)
(0,0,0)
(0,0,0)
(0,0,0)
(0,0,0)
(0,0,0)
(0,0,0)
(0,0,0)
(0,0,0)
(0,0,0)
(0,0,0)
(0,0,0)
(0,0,0)
(0,0,0)
(0,0,0)
(0,0,0)
(0,0,0)
(0,0,0)
(0,0,0)
(0,0,0)
(0,0,0)
(0,0,0)
(0,0,0)
(0,0,0)
(0,0,0)
(0,0,0)
(0,0,0)
(0,0,0)
(0,0,0)
(0,0,0)
(0,0,0)
(0,0,0)
(0,0,0)
(0,0,0)
(0,0,0)
(0,0,0)
(0,0,0)
(0,0,0)
(0,0,0)
(0,0,0)
(0,0,0)
(0,0,0)
(0,0,0)
(0,0,0)
(0,0,0)
(0,0,0)
(0,0,0)
(0,0,0)
(0,0,0)
(0,0,0)
(0,0,0)
(0,0,0)
(0,0,0)
(0,0,0)
(0,0,0)
(0,0,0)
(0,0,0)
(0,0,0)
(0,0,0)
(0,0,0)
(0,0,0)
(0,0,0)
(0,0,0)
(0,0,0)
(0,0,0)
(0,0,0)
(0,0,0)
(0,0,0)
(0,0,0)
(0,0,0)
(0,0,0)
(0,0,0)
(0,0,0)
(0,0,0)
(0,0,0)
(0,0,0)
(0,0,0)
(0,0,0)
(0,0,0)
(0,0,0)
(0,0,0)
(0,0,0)
(0,0,0)
(0,0,0)
(0,0,0)
(0,0,0)
(0,0,0)
(0,0,0)
(0,0,0)
(0,0,0)
(0,0,0)
(0,0,0)
(0,0,0)
(0,0,0)
(0,0,0)
(0,0,0)
(0,0,0)
(0,0,0)
(0,0,0)
(0,0,0)
(0,0,0)
(0,0,0)
(0,0,0)
(0,0,0)
(0,0,0)
(0,0,0)
(0,0,0)
(0,0,0)
(0,0,0)
(0,0,0)
(0,0,0)
(0,0,0)
(0,0,0)
(0,0,0)
(0,0,0)
(0,0,0)
(0,0,0)
(0,0,0)
(0,0,0)
(0,0,0)
(0,0,0)
(0,0,0)
(0,0,0)
(0,0,0)
(0,0,0)
(0,0,0)
(0,0,0)
(0,0,0)
(0,0,0)
(0,0,0)
(0,0,0)
(0,0,0)
(0,0,0)
(0,0,0)
(0,0,0)
(0,0,0)
(0,0,0)
(0,0,0)
(0,0,0)
(0,0,0)
(0,0,0)
(0,0,0)
(0,0,0)
(0,0,0)
(0,0,0)
(0,0,0)
(0,0,0)
(0,0,0)
(0,0,0)
(0,0,0)
(0,0,0)
(0,0,0)
(0,0,0)
(0,0,0)
(0,0,0)
(0,0,0)
(0,0,0)
(0,0,0)
(0,0,0)
(0,0,0)
(0,0,0)
(0,0,0)
(0,0,0)
(0,0,0)
(0,0,0)
(0,0,0)
(0,0,0)
(0,0,0)
(0,0,0)
(0,0,0)
(0,0,0)
(0,0,0)
(0,0,0)
(0,0,0)
(0,0,0)
(0,0,0)
(0,0,0)
(0,0,0)
(0,0,0)
(0,0,0)
(0,0,0)
(0,0,0)
(0,0,0)
(0,0,0)
(0,0,0)
(0,0,0)
(0,0,0)
(0,0,0)
(0,0,0)
(0,0,0)
(0,0,0)
(0,0,0)
(0,0,0)
(0,0,0)
(0,0,0)
(0,0,0)
(0,0,0)
(0,0,0)
(0,0,0)
(0,0,0)
(0,0,0)
(0,0,0)
(0,0,0)
(0,0,0)
(0,0,0)
(0,0,0)
(0,0,0)
(0,0,0)
(0,0,0)
(0,0,0)
(0,0,0)
(0,0,0)
(0,0,0)
(0,0,0)
(0,0,0)
(0,0,0)
(0,0,0)
(0,0,0)
(0,0,0)
(0,0,0)
(0,0,0)
(0,0,0)
(0,0,0)
(0,0,0)
(0,0,0)
(0,0,0)
(0,0,0)
(0,0,0)
(0,0,0)
(0,0,0)
(0,0,0)
(0,0,0)
(0,0,0)
(0,0,0)
(0,0,0)
(0,0,0)
(0,0,0)
(0,0,0)
(0,0,0)
(0,0,0)
(0,0,0)
(0,0,0)
(0,0,0)
(0,0,0)
(0,0,0)
(0,0,0)
(0,0,0)
(0,0,0)
(0,0,0)
(0,0,0)
(0,0,0)
(0,0,0)
(0,0,0)
(0,0,0)
(0,0,0)
(0,0,0)
(0,0,0)
(0,0,0)
(0,0,0)
(0,0,0)
(0,0,0)
(0,0,0)
(0,0,0)
(0,0,0)
(0,0,0)
(0,0,0)
(0,0,0)
(0,0,0)
(0,0,0)
(0,0,0)
(0,0,0)
(0,0,0)
(0,0,0)
(0,0,0)
(0,0,0)
(0,0,0)
(0,0,0)
(0,0,0)
(0,0,0)
(0,0,0)
(0,0,0)
(0,0,0)
(0,0,0)
(0,0,0)
(0,0,0)
(0,0,0)
(0,0,0)
(0,0,0)
(0,0,0)
(0,0,0)
(0,0,0)
(0,0,0)
(0,0,0)
(0,0,0)
(0,0,0)
(0,0,0)
(0,0,0)
(0,0,0)
(0,0,0)
(0,0,0)
(0,0,0)
(0,0,0)
(0,0,0)
(0,0,0)
(0,0,0)
(0,0,0)
(0,0,0)
(0,0,0)
(0,0,0)
(0,0,0)
(0,0,0)
(0,0,0)
(0,0,0)
(0,0,0)
(0,0,0)
(0,0,0)
(0,0,0)
(0,0,0)
(0,0,0)
(0,0,0)
(0,0,0)
(0,0,0)
(0,0,0)
(0,0,0)
(0,0,0)
(0,0,0)
(0,0,0)
(0,0,0)
(0,0,0)
(0,0,0)
(0,0,0)
(0,0,0)
(0,0,0)
(0,0,0)
(0,0,0)
(0,0,0)
(0,0,0)
(0,0,0)
(0,0,0)
(0,0,0)
(0,0,0)
(0,0,0)
(0,0,0)
(0,0,0)
(0,0,0)
(0,0,0)
(0,0,0)
(0,0,0)
(0,0,0)
(0,0,0)
(0,0,0)
(0,0,0)
(0,0,0)
(0,0,0)
(0,0,0)
(0,0,0)
(0,0,0)
(0,0,0)
(0,0,0)
(0,0,0)
(0,0,0)
(0,0,0)
(0,0,0)
(0,0,0)
(0,0,0)
(0,0,0)
(0,0,0)
(0,0,0)
(0,0,0)
(0,0,0)
(0,0,0)
(0,0,0)
(0,0,0)
(0,0,0)
(0,0,0)
(0,0,0)
(0,0,0)
(0,0,0)
(0,0,0)
(0,0,0)
(0,0,0)
(0,0,0)
(0,0,0)
(0,0,0)
(0,0,0)
(0,0,0)
(0,0,0)
(0,0,0)
(0,0,0)
(0,0,0)
(0,0,0)
(0,0,0)
(0,0,0)
(0,0,0)
(0,0,0)
(0,0,0)
(0,0,0)
(0,0,0)
(0,0,0)
(0,0,0)
(0,0,0)
(0,0,0)
(0,0,0)
(0,0,0)
(0,0,0)
(0,0,0)
(0,0,0)
(0,0,0)
(0,0,0)
(0,0,0)
(0,0,0)
(0,0,0)
(0,0,0)
(0,0,0)
(0,0,0)
(0,0,0)
(0,0,0)
(0,0,0)
(0,0,0)
(0,0,0)
(0,0,0)
(0,0,0)
(0,0,0)
(0,0,0)
(0,0,0)
(0,0,0)
(0,0,0)
(0,0,0)
(0,0,0)
(0,0,0)
(0,0,0)
(0,0,0)
(0,0,0)
(0,0,0)
(0,0,0)
(0,0,0)
(0,0,0)
(0,0,0)
(0,0,0)
(0,0,0)
(0,0,0)
(0,0,0)
(0,0,0)
(0,0,0)
(0,0,0)
(0,0,0)
(0,0,0)
(0,0,0)
(0,0,0)
(0,0,0)
(0,0,0)
(0,0,0)
(0,0,0)
(0,0,0)
(0,0,0)
(0,0,0)
(0,0,0)
(0,0,0)
(0,0,0)
(0,0,0)
(0,0,0)
(0,0,0)
(0,0,0)
(0,0,0)
(0,0,0)
(0,0,0)
(0,0,0)
(0,0,0)
(0,0,0)
(0,0,0)
(0,0,0)
(0,0,0)
(0,0,0)
(0,0,0)
(0,0,0)
(0,0,0)
(0,0,0)
(0,0,0)
(0,0,0)
(0,0,0)
(0,0,0)
(0,0,0)
(0,0,0)
(0,0,0)
(0,0,0)
(0,0,0)
(0,0,0)
(0,0,0)
(0,0,0)
(0,0,0)
(0,0,0)
(0,0,0)
(0,0,0)
(0,0,0)
(0,0,0)
(0,0,0)
(0,0,0)
(0,0,0)
(0,0,0)
(0,0,0)
(0,0,0)
(0,0,0)
(0,0,0)
(0,0,0)
(0,0,0)
(0,0,0)
(0,0,0)
(0,0,0)
(0,0,0)
(0,0,0)
(0,0,0)
(0,0,0)
(0,0,0)
(0,0,0)
(0,0,0)
(0,0,0)
(0,0,0)
(0,0,0)
(0,0,0)
(0,0,0)
(0,0,0)
(0,0,0)
(0,0,0)
(0,0,0)
(0,0,0)
(0,0,0)
(0,0,0)
(0,0,0)
(0,0,0)
(0,0,0)
(0,0,0)
(0,0,0)
(0,0,0)
(0,0,0)
(0,0,0)
(0,0,0)
(0,0,0)
(0,0,0)
(0,0,0)
(0,0,0)
(0,0,0)
(0,0,0)
(0,0,0)
(0,0,0)
(0,0,0)
(0,0,0)
(0,0,0)
(0,0,0)
(0,0,0)
(0,0,0)
(0,0,0)
(0,0,0)
(0,0,0)
(0,0,0)
(0,0,0)
(0,0,0)
(0,0,0)
(0,0,0)
(0,0,0)
(0,0,0)
(0,0,0)
(0,0,0)
(0,0,0)
(0,0,0)
(0,0,0)
(0,0,0)
(0,0,0)
(0,0,0)
(0,0,0)
(0,0,0)
(0,0,0)
(0,0,0)
(0,0,0)
(0,0,0)
(0,0,0)
(0,0,0)
(0,0,0)
(0,0,0)
(0,0,0)
(0,0,0)
(0,0,0)
(0,0,0)
(0,0,0)
(0,0,0)
(0,0,0)
(0,0,0)
(0,0,0)
(0,0,0)
(0,0,0)
(0,0,0)
(0,0,0)
(0,0,0)
(0,0,0)
(0,0,0)
(0,0,0)
(0,0,0)
(0,0,0)
(0,0,0)
(0,0,0)
(0,0,0)
(0,0,0)
(0,0,0)
(0,0,0)
(0,0,0)
(0,0,0)
(0,0,0)
(0,0,0)
(0,0,0)
(0,0,0)
(0,0,0)
(0,0,0)
(0,0,0)
(0,0,0)
(0,0,0)
(0,0,0)
(0,0,0)
(0,0,0)
(0,0,0)
(0,0,0)
(0,0,0)
(0,0,0)
(0,0,0)
(0,0,0)
(0,0,0)
(0,0,0)
(0,0,0)
(0,0,0)
(0,0,0)
(0,0,0)
(0,0,0)
(0,0,0)
(0,0,0)
(0,0,0)
(0,0,0)
(0,0,0)
(0,0,0)
(0,0,0)
(0,0,0)
(0,0,0)
(0,0,0)
(0,0,0)
(0,0,0)
(0,0,0)
(0,0,0)
(0,0,0)
(0,0,0)
(0,0,0)
(0,0,0)
(0,0,0)
(0,0,0)
(0,0,0)
(0,0,0)
(0,0,0)
(0,0,0)
(0,0,0)
(0,0,0)
(0,0,0)
(0,0,0)
(0,0,0)
(0,0,0)
(0,0,0)
(0,0,0)
(0,0,0)
(0,0,0)
(0,0,0)
(0,0,0)
(0,0,0)
(0,0,0)
(0,0,0)
(0,0,0)
(0,0,0)
(0,0,0)
(0,0,0)
(0,0,0)
(0,0,0)
(0,0,0)
(0,0,0)
(0,0,0)
(0,0,0)
(0,0,0)
(0,0,0)
(0,0,0)
(0,0,0)
(0,0,0)
(0,0,0)
(0,0,0)
(0,0,0)
(0,0,0)
(0,0,0)
(0,0,0)
(0,0,0)
(0,0,0)
(0,0,0)
(0,0,0)
(0,0,0)
(0,0,0)
(0,0,0)
(0,0,0)
(0,0,0)
(0,0,0)
(0,0,0)
(0,0,0)
(0,0,0)
(0,0,0)
(0,0,0)
(0,0,0)
(0,0,0)
(0,0,0)
(0,0,0)
(0,0,0)
(0,0,0)
(0,0,0)
(0,0,0)
(0,0,0)
(0,0,0)
(0,0,0)
(0,0,0)
(0,0,0)
(0,0,0)
(0,0,0)
(0,0,0)
(0,0,0)
(0,0,0)
(0,0,0)
(0,0,0)
(0,0,0)
(0,0,0)
(0,0,0)
(0,0,0)
(0,0,0)
(0,0,0)
(0,0,0)
(0,0,0)
(0,0,0)
(0,0,0)
(0,0,0)
(0,0,0)
(0,0,0)
(0,0,0)
(0,0,0)
(0,0,0)
(0,0,0)
(0,0,0)
(0,0,0)
(0,0,0)
(0,0,0)
(0,0,0)
(0,0,0)
(0,0,0)
(0,0,0)
(0,0,0)
(0,0,0)
(0,0,0)
(0,0,0)
(0,0,0)
(0,0,0)
(0,0,0)
(0,0,0)
(0,0,0)
(0,0,0)
(0,0,0)
(0,0,0)
(0,0,0)
(0,0,0)
(0,0,0)
(0,0,0)
(0,0,0)
(0,0,0)
(0,0,0)
(0,0,0)
(0,0,0)
(0,0,0)
(0,0,0)
(0,0,0)
(0,0,0)
(0,0,0)
(0,0,0)
(0,0,0)
(0,0,0)
(0,0,0)
(0,0,0)
(0,0,0)
(6.68765413293139e-13,1.22053042968511e-11,-1.26083264503168e-11)
(2.54013456278439e-13,2.71547593116548e-11,-1.21431247596797e-11)
(8.59552807718945e-13,4.56510187314392e-11,-1.14526349635251e-11)
(3.2965013126498e-12,7.26685411343221e-11,-1.04945733587009e-11)
(4.56515439301898e-12,1.14735111266402e-10,-8.58152621638478e-12)
(5.74748385818999e-12,1.80883218801463e-10,-5.91248373517166e-12)
(6.46302605494363e-12,2.87460664472939e-10,-2.98075772007781e-12)
(6.85193365198145e-12,4.66186023675118e-10,-1.26539520140745e-12)
(6.68268238153552e-12,7.63423446347628e-10,-9.71197762585714e-13)
(6.41554522761234e-12,1.17765804369833e-09,-6.01545780552483e-13)
(0,0,0)
(0,0,0)
(0,0,0)
(0,0,0)
(0,0,0)
(0,0,0)
(3.54350843359203e-13,1.18763066516439e-11,-2.79160604870907e-11)
(1.43482560482955e-13,2.64457996963251e-11,-2.69973816552026e-11)
(2.63830051076139e-12,4.46361810628212e-11,-2.50711646071827e-11)
(6.93387235698971e-12,7.10138698283189e-11,-2.22196360011194e-11)
(9.15583212206032e-12,1.12344600438994e-10,-1.78252017537035e-11)
(1.14668676112863e-11,1.78263349665276e-10,-1.23204380581361e-11)
(1.30217596239463e-11,2.8592543105442e-10,-6.89705455599863e-12)
(1.30447055038837e-11,4.6585252007895e-10,-3.97360999358084e-12)
(1.23219343735347e-11,7.63370114300388e-10,-2.84195547532415e-12)
(1.10262898449661e-11,1.17759589395878e-09,-1.45803500721797e-12)
(0,0,0)
(0,0,0)
(0,0,0)
(0,0,0)
(0,0,0)
(0,0,0)
(7.23603031703895e-13,1.11451401614473e-11,-4.80801873145048e-11)
(2.72468384947539e-12,2.42254514880597e-11,-4.69965173525455e-11)
(7.12075304131254e-12,4.12694815297945e-11,-4.43058294575789e-11)
(1.21900098626322e-11,6.66721917800654e-11,-3.99676763861164e-11)
(1.54967661226996e-11,1.07045927903939e-10,-3.32893216824792e-11)
(1.74402076074954e-11,1.73140567633153e-10,-2.48104778114767e-11)
(1.7424984698124e-11,2.83299220230637e-10,-1.67211749632132e-11)
(1.53869458585118e-11,4.65232821531929e-10,-1.15670593683381e-11)
(1.38900410089172e-11,7.62983318917251e-10,-8.2596667648586e-12)
(1.12819247156742e-11,1.17709628486436e-09,-4.47668407281359e-12)
(0,0,0)
(0,0,0)
(0,0,0)
(0,0,0)
(0,0,0)
(0,0,0)
(2.53881573893941e-12,1.00167146917144e-11,-7.83750976558452e-11)
(5.58648795987212e-12,2.12549419009679e-11,-7.69890366305883e-11)
(1.02629718234886e-11,3.65937204083443e-11,-7.37258214762472e-11)
(1.56782145573399e-11,5.98455944970684e-11,-6.85211863187364e-11)
(1.96126840032743e-11,9.86557001036701e-11,-6.07374167036035e-11)
(2.05049779034496e-11,1.65036905130144e-10,-5.03376537641462e-11)
(1.80710565329365e-11,2.78255015445417e-10,-3.94083280576765e-11)
(1.35227180528581e-11,4.6294500677559e-10,-2.99416668455384e-11)
(1.13720553937079e-11,7.60834136534279e-10,-2.15109311439942e-11)
(8.32558553025973e-12,1.17396401013986e-09,-1.16217157199404e-11)
(0,0,0)
(0,0,0)
(0,0,0)
(0,0,0)
(0,0,0)
(0,0,0)
(4.96863888330981e-12,8.42642844341266e-12,-1.22887079945033e-10)
(9.20083143570813e-12,1.72705572316927e-11,-1.20901869911501e-10)
(1.36544227795775e-11,3.04990432434099e-11,-1.17103529194267e-10)
(1.81743952744845e-11,5.10880414949635e-11,-1.1150325152985e-10)
(2.13667325990574e-11,8.75085672538548e-11,-1.03993376800853e-10)
(2.09663123057276e-11,1.52729435449023e-10,-9.38842695857478e-11)
(1.63020720593716e-11,2.67706817945325e-10,-8.18298131887225e-11)
(1.06198359517938e-11,4.55412458217398e-10,-6.50501283680731e-11)
(8.18446065019004e-12,7.52459350379608e-10,-4.6269602502539e-11)
(5.81415764306097e-12,1.16341671796189e-09,-2.43609354478239e-11)
(0,0,0)
(0,0,0)
(0,0,0)
(0,0,0)
(0,0,0)
(0,0,0)
(6.6308441723078e-12,6.49311006114126e-12,-1.87702602074246e-10)
(1.28987518121854e-11,1.31670630534198e-11,-1.85859660060683e-10)
(1.81424445473061e-11,2.41185127718687e-11,-1.82312986090812e-10)
(2.17570924506428e-11,4.21534152377859e-11,-1.77167843697891e-10)
(2.27450199938159e-11,7.56896134686277e-11,-1.70148231322641e-10)
(2.03274013084857e-11,1.38754411100858e-10,-1.6002015586945e-10)
(1.50285293503589e-11,2.53760302284162e-10,-1.44619891558558e-10)
(8.64008494225266e-12,4.39655244820401e-10,-1.20041309787451e-10)
(4.76866524014217e-12,7.32880418244433e-10,-8.69971142008588e-11)
(2.17765784592118e-12,1.14068226772081e-09,-4.61089151328791e-11)
(0,0,0)
(0,0,0)
(0,0,0)
(0,0,0)
(0,0,0)
(0,0,0)
(6.90971108675733e-12,4.74329520016426e-12,-2.91762520582059e-10)
(1.42237562398381e-11,9.86858714217651e-12,-2.90603524178693e-10)
(1.93777360692923e-11,1.90174971666047e-11,-2.87854212981943e-10)
(2.21509136863682e-11,3.46508784748172e-11,-2.83186593878174e-10)
(2.12557003365834e-11,6.46200564214855e-11,-2.76320684960941e-10)
(1.81809909804111e-11,1.22595913896758e-10,-2.65014632622395e-10)
(1.4930360159515e-11,2.31998814008642e-10,-2.43434487120251e-10)
(8.91897679498521e-12,4.09273476294392e-10,-2.08816915156711e-10)
(2.84652940747597e-12,6.93657583418854e-10,-1.55552643381822e-10)
(-8.26494968345929e-13,1.09556473534394e-09,-8.4550111912892e-11)
(0,0,0)
(0,0,0)
(0,0,0)
(0,0,0)
(0,0,0)
(0,0,0)
(6.85697522944617e-12,3.45480579273945e-12,-4.67902120393006e-10)
(1.41235801827005e-11,7.65053561803103e-12,-4.66899235826925e-10)
(1.89010256253158e-11,1.48227173985811e-11,-4.64319649109763e-10)
(2.20216086944498e-11,2.80054546477211e-11,-4.59755099972626e-10)
(2.16631078990918e-11,5.43147402257426e-11,-4.5196674941154e-10)
(1.96892624500581e-11,1.04972245459608e-10,-4.37688365400404e-10)
(1.59235125164739e-11,1.99926224015775e-10,-4.10059940798255e-10)
(8.82589833051071e-12,3.57540754392666e-10,-3.59175622923495e-10)
(2.16612641065142e-12,6.23030150274658e-10,-2.77088504568154e-10)
(-1.48873593166412e-12,1.01068624551954e-09,-1.56629812185646e-10)
(0,0,0)
(0,0,0)
(0,0,0)
(0,0,0)
(0,0,0)
(0,0,0)
(6.61973174590785e-12,2.31217192035794e-12,-7.63051305235371e-10)
(1.37413058662058e-11,5.67429965153686e-12,-7.61768208582008e-10)
(1.86840672193718e-11,1.06674839619612e-11,-7.58690302253256e-10)
(2.26196428802638e-11,2.03539127646897e-11,-7.53518468264573e-10)
(2.28388047242013e-11,4.04241139943377e-11,-7.43912904384342e-10)
(2.07968887678458e-11,7.89478620982557e-11,-7.25441044850575e-10)
(1.65320295323842e-11,1.50569372829915e-10,-6.89334750211686e-10)
(9.49314150480264e-12,2.76167646966841e-10,-6.20767071957938e-10)
(2.83908166644118e-12,5.02519605768439e-10,-5.01135096252047e-10)
(-1.03340507316919e-12,8.53205568989569e-10,-3.00655295994719e-10)
(0,0,0)
(0,0,0)
(0,0,0)
(0,0,0)
(0,0,0)
(0,0,0)
(7.5526973012363e-12,1.0800306074723e-12,-1.17713707940527e-09)
(1.43569475892183e-11,3.12153711574572e-12,-1.17545985129262e-09)
(1.86710885576089e-11,5.86162794161748e-12,-1.17156337934881e-09)
(2.28516773236737e-11,1.1002764117184e-11,-1.16537636646855e-09)
(2.34721004779757e-11,2.18882643351628e-11,-1.15380329506792e-09)
(2.1046458339155e-11,4.29302583399287e-11,-1.13160091386661e-09)
(1.68186593882377e-11,8.24366350682288e-11,-1.088916555176e-09)
(1.03820355338198e-11,1.56524404267898e-10,-1.00685722066091e-09)
(3.0035964890568e-12,3.01863015555601e-10,-8.5099270085767e-10)
(-1.55717785532198e-12,5.5177369889707e-10,-5.50157879640576e-10)
(0,0,0)
(0,0,0)
(0,0,0)
(0,0,0)
(0,0,0)
(0,0,0)
(0,0,0)
(0,0,0)
(0,0,0)
(0,0,0)
(0,0,0)
(0,0,0)
(0,0,0)
(0,0,0)
(0,0,0)
(0,0,0)
(0,0,0)
(0,0,0)
(0,0,0)
(0,0,0)
(0,0,0)
(0,0,0)
(0,0,0)
(0,0,0)
(0,0,0)
(0,0,0)
(0,0,0)
(0,0,0)
(0,0,0)
(0,0,0)
(0,0,0)
(0,0,0)
(0,0,0)
(0,0,0)
(0,0,0)
(0,0,0)
(0,0,0)
(0,0,0)
(0,0,0)
(0,0,0)
(0,0,0)
(0,0,0)
(0,0,0)
(0,0,0)
(0,0,0)
(0,0,0)
(0,0,0)
(0,0,0)
(0,0,0)
(0,0,0)
(0,0,0)
(0,0,0)
(0,0,0)
(0,0,0)
(0,0,0)
(0,0,0)
(0,0,0)
(0,0,0)
(0,0,0)
(0,0,0)
(0,0,0)
(0,0,0)
(0,0,0)
(0,0,0)
(0,0,0)
(0,0,0)
(0,0,0)
(0,0,0)
(0,0,0)
(0,0,0)
(0,0,0)
(0,0,0)
(0,0,0)
(0,0,0)
(0,0,0)
(0,0,0)
(0,0,0)
(0,0,0)
(0,0,0)
(0,0,0)
(0,0,0)
(0,0,0)
(0,0,0)
(0,0,0)
(0,0,0)
(0,0,0)
(0,0,0)
(0,0,0)
(0,0,0)
(0,0,0)
(0,0,0)
(0,0,0)
(0,0,0)
(0,0,0)
(0,0,0)
(0,0,0)
(0,0,0)
(0,0,0)
(0,0,0)
(0,0,0)
(0,0,0)
(0,0,0)
(5.32561367861201e-13,2.30037291567423e-11,-2.39150162454777e-11)
(2.72483275450011e-13,4.96841494888426e-11,-2.30046621519073e-11)
(9.16328871514392e-13,8.31609787302227e-11,-2.11958342705862e-11)
(3.03812547632421e-12,1.33089325223702e-10,-1.84114703987648e-11)
(4.28662273916824e-12,2.08404252867892e-10,-1.37351096295721e-11)
(5.43562697933481e-12,3.2262883750643e-10,-8.07794010002817e-12)
(6.2828969549049e-12,5.04599619689753e-10,-2.93686443568412e-12)
(6.89123980912891e-12,8.14352415263473e-10,-5.39450105919895e-13)
(6.36636244634307e-12,1.40766860080224e-09,-4.99182149210927e-13)
(5.87614918616715e-12,2.76625792327036e-09,-4.17569079680017e-13)
(0,0,0)
(0,0,0)
(0,0,0)
(0,0,0)
(0,0,0)
(0,0,0)
(1.66838501666544e-13,2.21769528373071e-11,-5.23345779854247e-11)
(4.37613720743204e-13,4.79036054518085e-11,-5.07887891459945e-11)
(3.15347143770524e-12,8.06226800714692e-11,-4.70243349786552e-11)
(6.8811161578247e-12,1.28934400626148e-10,-4.06604905362417e-11)
(8.94974096155733e-12,2.03155679467383e-10,-3.08969519435779e-11)
(1.1166266141253e-11,3.18002497802548e-10,-1.87551880945618e-11)
(1.27245258851623e-11,5.02724448463972e-10,-7.75518596147162e-12)
(1.25327495330246e-11,8.15194342459676e-10,-3.18925369668518e-12)
(1.13248092890152e-11,1.40885108599288e-09,-2.45812388010963e-12)
(1.00678639322802e-11,2.76737661374789e-09,-1.46666955666671e-12)
(0,0,0)
(0,0,0)
(0,0,0)
(0,0,0)
(0,0,0)
(0,0,0)
(7.68358539478459e-13,2.04360126665995e-11,-9.01000809335285e-11)
(3.00450554160404e-12,4.37862108820823e-11,-8.79742389124555e-11)
(7.45836109132468e-12,7.41876782855733e-11,-8.2586522178489e-11)
(1.23382524419854e-11,1.19554635745214e-10,-7.32128150306271e-11)
(1.54081500519161e-11,1.91406226650918e-10,-5.85052029884019e-11)
(1.74545672622471e-11,3.07439254660314e-10,-3.92801623651402e-11)
(1.73150738884922e-11,4.9869803634372e-10,-2.092542378142e-11)
(1.43673680111876e-11,8.16492249621828e-10,-1.30697479998424e-11)
(1.22562406997346e-11,1.41036932274858e-09,-9.91566256860228e-12)
(9.93751536724605e-12,2.76829500639442e-09,-5.75360660230913e-12)
(0,0,0)
(0,0,0)
(0,0,0)
(0,0,0)
(0,0,0)
(0,0,0)
(2.74304096198428e-12,1.79668765780479e-11,-1.44800160354509e-10)
(6.30765747480457e-12,3.82365063970712e-11,-1.41761385034987e-10)
(1.1153013830905e-11,6.50709572836944e-11,-1.35084284995039e-10)
(1.66519979443171e-11,1.05498807836934e-10,-1.2397320221256e-10)
(2.03600539136267e-11,1.727742182487e-10,-1.06519569986519e-10)
(2.18831218781273e-11,2.88548313713826e-10,-8.29377032988348e-11)
(1.91525928208825e-11,4.892605172289e-10,-5.79004106882421e-11)
(1.26245309095415e-11,8.16266128895066e-10,-4.32841362599175e-11)
(9.85762612487551e-12,1.41004377872526e-09,-3.19628377565119e-11)
(7.25116198914991e-12,2.76565385168449e-09,-1.76921586469032e-11)
(0,0,0)
(0,0,0)
(0,0,0)
(0,0,0)
(0,0,0)
(0,0,0)
(4.91674723204818e-12,1.48700877197275e-11,-2.2298437246951e-10)
(9.50598489674607e-12,3.11460291969675e-11,-2.19102087998593e-10)
(1.44346755866992e-11,5.34675330332081e-11,-2.11704394892617e-10)
(1.95991468026546e-11,8.76363373500554e-11,-2.00547581282735e-10)
(2.30765791692e-11,1.47313126356913e-10,-1.84637007624212e-10)
(2.28868802568092e-11,2.57369871301223e-10,-1.65171249034058e-10)
(1.34689028999493e-11,4.64397533632851e-10,-1.47274270640391e-10)
(7.59652348341377e-12,8.0807783820613e-10,-1.13180116222836e-10)
(5.85472573038153e-12,1.40048126569333e-09,-7.93505704339772e-11)
(4.1876724359155e-12,2.75141366577349e-09,-4.17193157942641e-11)
(0,0,0)
(0,0,0)
(0,0,0)
(0,0,0)
(0,0,0)
(0,0,0)
(6.53771701972315e-12,1.1274351737625e-11,-3.33957672711178e-10)
(1.26505537535529e-11,2.35168224530669e-11,-3.3068775934513e-10)
(1.80983177596448e-11,4.12941655090337e-11,-3.2425710131917e-10)
(2.22400168383713e-11,6.93784708826555e-11,-3.14898118343833e-10)
(2.36865015877797e-11,1.21481536379774e-10,-3.0195186071301e-10)
(2.10856342016519e-11,2.27022473378524e-10,-2.85074415635257e-10)
(1.22114358548058e-11,4.43020414779736e-10,-2.62215865864701e-10)
(5.97765788158999e-12,7.84310283464396e-10,-2.16139618612391e-10)
(3.10330099766674e-12,1.36888124572192e-09,-1.54845294281767e-10)
(1.18627509054029e-12,2.71350406494039e-09,-8.15432798303296e-11)
(0,0,0)
(0,0,0)
(0,0,0)
(0,0,0)
(0,0,0)
(0,0,0)
(7.03920409081514e-12,8.25827884556137e-12,-5.0987245066683e-10)
(1.36924965672355e-11,1.73198651663183e-11,-5.07639540375105e-10)
(1.89048967335505e-11,3.13692698521093e-11,-5.03051967123169e-10)
(2.19304285962243e-11,5.39756911672937e-11,-4.96073073289009e-10)
(2.02549641938106e-11,9.79952324750663e-11,-4.86702438914727e-10)
(1.42245139154367e-11,1.92649774533855e-10,-4.71599071067958e-10)
(1.23853781888405e-11,4.05247231898623e-10,-4.32118840576393e-10)
(7.38742692167282e-12,7.31111748309617e-10,-3.76006449062563e-10)
(2.47143108272132e-12,1.30006520890694e-09,-2.76814187273069e-10)
(-4.98117056468263e-13,2.63478272994874e-09,-1.4897347728142e-10)
(0,0,0)
(0,0,0)
(0,0,0)
(0,0,0)
(0,0,0)
(0,0,0)
(6.99672453574734e-12,6.25519307391511e-12,-8.14255954112401e-10)
(1.35202294320343e-11,1.32715694809477e-11,-8.1236014734525e-10)
(1.84917099248012e-11,2.43439702068665e-11,-8.08338706239105e-10)
(2.188480001639e-11,4.37059558262834e-11,-8.01917569845106e-10)
(2.12753501193376e-11,8.44648526587383e-11,-7.91879099655582e-10)
(1.80852212092885e-11,1.7205559541272e-10,-7.72974471735908e-10)
(1.43960458276184e-11,3.52306723945325e-10,-7.2922207974834e-10)
(8.11188740085622e-12,6.34840508677052e-10,-6.38448695894e-10)
(2.21797853450128e-12,1.17370356082193e-09,-4.90760060615716e-10)
(-6.37871587737018e-13,2.48648368092934e-09,-2.78806834653065e-10)
(0,0,0)
(0,0,0)
(0,0,0)
(0,0,0)
(0,0,0)
(0,0,0)
(6.56877640543078e-12,4.38714561451626e-12,-1.40374574762632e-09)
(1.32161620732453e-11,9.80266235258871e-12,-1.40172482106605e-09)
(1.83180892510358e-11,1.80477027751937e-11,-1.39704238151323e-09)
(2.23652276475473e-11,3.28546851873433e-11,-1.38908047671405e-09)
(2.29027948496182e-11,6.51526129332755e-11,-1.37474035009798e-09)
(2.07081978872682e-11,1.32586771482889e-10,-1.34620511762493e-09)
(1.60970890403345e-11,2.6265608557298e-10,-1.28623714101949e-09)
(9.50440849784321e-12,4.87461741503857e-10,-1.16657782175922e-09)
(3.01587162194734e-12,9.61212105986442e-10,-9.57435790815198e-10)
(-2.56830975652379e-13,2.20649136113063e-09,-5.98420808718964e-10)
(0,0,0)
(0,0,0)
(0,0,0)
(0,0,0)
(0,0,0)
(0,0,0)
(6.95549979606682e-12,2.07527634844299e-12,-2.76212650440461e-09)
(1.35820127611486e-11,5.26077354048957e-12,-2.75973287664939e-09)
(1.83457036189643e-11,1.01154733925481e-11,-2.75398866399038e-09)
(2.22813700402282e-11,1.82879365427498e-11,-2.7438119028834e-09)
(2.31579836118176e-11,3.59132599529754e-11,-2.72531458584369e-09)
(2.12923579884645e-11,7.25562582406434e-11,-2.68964968175825e-09)
(1.71959599413422e-11,1.42712589979165e-10,-2.61756208431657e-09)
(1.10419199985183e-11,2.77234805342844e-10,-2.47524551160198e-09)
(4.0317908275589e-12,6.00288186753997e-10,-2.19918809186769e-09)
(5.86414012785194e-14,1.60528502956389e-09,-1.60141037088787e-09)
(0,0,0)
(0,0,0)
(0,0,0)
(0,0,0)
(0,0,0)
(0,0,0)
(0,0,0)
(0,0,0)
(0,0,0)
(0,0,0)
(0,0,0)
(0,0,0)
(0,0,0)
(0,0,0)
(0,0,0)
(0,0,0)
(0,0,0)
(0,0,0)
(0,0,0)
(0,0,0)
(0,0,0)
(0,0,0)
(0,0,0)
(0,0,0)
(0,0,0)
(0,0,0)
(0,0,0)
(0,0,0)
(0,0,0)
(0,0,0)
(0,0,0)
(0,0,0)
(0,0,0)
(0,0,0)
(0,0,0)
(0,0,0)
(0,0,0)
(0,0,0)
(0,0,0)
(0,0,0)
(0,0,0)
(0,0,0)
(0,0,0)
(0,0,0)
(0,0,0)
(0,0,0)
(0,0,0)
(0,0,0)
(0,0,0)
(0,0,0)
(0,0,0)
(0,0,0)
(0,0,0)
(0,0,0)
(0,0,0)
(0,0,0)
(0,0,0)
(0,0,0)
(0,0,0)
(0,0,0)
(0,0,0)
(0,0,0)
(0,0,0)
(0,0,0)
(0,0,0)
(0,0,0)
(0,0,0)
(0,0,0)
(0,0,0)
(0,0,0)
(0,0,0)
(0,0,0)
(0,0,0)
(0,0,0)
(0,0,0)
(0,0,0)
(0,0,0)
(0,0,0)
(0,0,0)
(0,0,0)
(0,0,0)
(0,0,0)
(0,0,0)
(0,0,0)
(0,0,0)
(0,0,0)
(0,0,0)
(0,0,0)
(0,0,0)
(0,0,0)
(0,0,0)
(0,0,0)
(0,0,0)
(0,0,0)
(0,0,0)
(0,0,0)
(0,0,0)
(0,0,0)
(0,0,0)
(0,0,0)
(0,0,0)
(0,0,0)
(4.48983593361657e-13,3.07832497391684e-11,-3.2968320327773e-11)
(2.44199430991221e-13,6.66447217826336e-11,-3.20900125045095e-11)
(6.70263659413376e-13,1.11047727251563e-10,-2.95053058718821e-11)
(2.51668930414929e-12,1.75061008410915e-10,-2.47219634365559e-11)
(3.87802661038102e-12,2.67225254631612e-10,-1.67907527431931e-11)
(4.92089101904038e-12,4.00266905321498e-10,-7.18520967549583e-12)
(5.7606538502675e-12,5.96182810712507e-10,1.16956597480621e-12)
(6.00904465594277e-12,8.80988973195903e-10,4.19316329501164e-12)
(5.10226418674781e-12,1.28718943878049e-09,3.13795490345213e-12)
(4.33988962799252e-12,1.78178988430487e-09,1.39303296318906e-12)
(0,0,0)
(0,0,0)
(0,0,0)
(0,0,0)
(0,0,0)
(0,0,0)
(3.6198983273752e-13,3.00716551294764e-11,-7.15692166184709e-11)
(7.90554122879935e-13,6.39819703489574e-11,-6.94836743094106e-11)
(3.22462877961362e-12,1.06208374066876e-10,-6.38768604652535e-11)
(6.49734244663052e-12,1.6746600552503e-10,-5.36306669484705e-11)
(8.55742992951962e-12,2.58589984314347e-10,-3.74808404476821e-11)
(1.07295071500281e-11,3.93805447676108e-10,-1.62453657422487e-11)
(1.21850057403423e-11,5.95623616299232e-10,3.98557819535324e-12)
(1.05037125548915e-11,8.84790534360538e-10,8.98870941270018e-12)
(8.81511821027575e-12,1.29104656760882e-09,5.74265027992925e-12)
(7.68280172932154e-12,1.78461841186548e-09,2.27216008983557e-12)
(0,0,0)
(0,0,0)
(0,0,0)
(0,0,0)
(0,0,0)
(0,0,0)
(1.11165260537189e-12,2.75167693173139e-11,-1.22349400591938e-10)
(3.16649329350619e-12,5.79552281549976e-11,-1.18908126145896e-10)
(7.20137494582525e-12,9.63121066059524e-11,-1.10672542824881e-10)
(1.16864683076033e-11,1.52502726071302e-10,-9.53633069120361e-11)
(1.48151178305145e-11,2.39241322886387e-10,-7.01109720921629e-11)
(1.79907696251375e-11,3.76802701158982e-10,-3.35726730009565e-11)
(1.88969172216384e-11,5.94721268056987e-10,6.54136914019658e-12)
(1.14394033067782e-11,8.93956754668613e-10,1.03091931518613e-11)
(8.41972875772557e-12,1.2991949667487e-09,3.04456599926926e-12)
(6.82506347418106e-12,1.78996382004258e-09,-5.76039498759326e-13)
(0,0,0)
(0,0,0)
(0,0,0)
(0,0,0)
(0,0,0)
(0,0,0)
(2.80105450032456e-12,2.33812822675781e-11,-1.92702336142562e-10)
(6.72103463576093e-12,4.93232933324114e-11,-1.88029551384177e-10)
(1.16453552982177e-11,8.17781696938175e-11,-1.77709837814901e-10)
(1.70608362040834e-11,1.29111028819064e-10,-1.59166713968877e-10)
(2.22392791179394e-11,2.05422508371226e-10,-1.28333520034679e-10)
(2.80242716811702e-11,3.39564699899677e-10,-8.03985098072416e-11)
(2.93993019886813e-11,5.88769173206472e-10,-1.59065299424573e-11)
(9.4915230947837e-12,9.10488162339454e-10,-1.54851318707916e-11)
(5.14946004814321e-12,1.31059381110339e-09,-2.0192857106254e-11)
(3.7991892518654e-12,1.79419286567699e-09,-1.39699638639948e-11)
(0,0,0)
(0,0,0)
(0,0,0)
(0,0,0)
(0,0,0)
(0,0,0)
(4.63019874257746e-12,1.86181686409436e-11,-2.87084449373511e-10)
(9.73749853555666e-12,3.8976044240997e-11,-2.81957566218864e-10)
(1.54512294995898e-11,6.38373410231987e-11,-2.7132702829471e-10)
(2.19464396115754e-11,9.91633708369237e-11,-2.53920713200758e-10)
(2.94424105578365e-11,1.56576472076382e-10,-2.27644039379873e-10)
(3.5337299784735e-11,2.64491021917415e-10,-1.96086364829066e-10)
(7.51867334473307e-13,5.19420342475615e-10,-2.02824234842465e-10)
(-2.4654675639875e-12,9.26351409780056e-10,-1.29115554553064e-10)
(-1.76508936179507e-13,1.31469730925631e-09,-8.80776557001517e-11)
(3.77957474358438e-13,1.78575999672485e-09,-4.64145939104758e-11)
(0,0,0)
(0,0,0)
(0,0,0)
(0,0,0)
(0,0,0)
(0,0,0)
(6.28387654598641e-12,1.37248792859035e-11,-4.15056296538764e-10)
(1.24168530140608e-11,2.83811257371804e-11,-4.10890986702681e-10)
(1.86642304414919e-11,4.60193398879499e-11,-4.02399096883993e-10)
(2.46965389239439e-11,6.98981849901019e-11,-3.89358561431899e-10)
(3.02953604141209e-11,1.1095786696588e-10,-3.71222777774515e-10)
(3.2599783275345e-11,2.09158687077463e-10,-3.49116713238067e-10)
(3.90837148464559e-12,5.22774726638752e-10,-3.47149055064086e-10)
(-2.11813129513885e-12,9.13257965950425e-10,-2.70840264221557e-10)
(-1.38267663810517e-12,1.28424933655367e-09,-1.88443151905734e-10)
(-1.63566974866784e-12,1.74421527233329e-09,-9.72459008858073e-11)
(0,0,0)
(0,0,0)
(0,0,0)
(0,0,0)
(0,0,0)
(0,0,0)
(6.80937957249855e-12,9.85838867157305e-12,-6.000419896344e-10)
(1.31532189986981e-11,1.98775426526986e-11,-5.97040046036031e-10)
(1.89513025448119e-11,3.17190573036172e-11,-5.91737575415081e-10)
(2.28295295631352e-11,4.56762754278201e-11,-5.85346687768638e-10)
(1.86819761633912e-11,6.83918399761103e-11,-5.82316201071402e-10)
(-4.66153745461062e-12,1.29754522179004e-10,-5.85692357231119e-10)
(9.21349462807376e-12,4.80519067410243e-10,-5.08060847159651e-10)
(4.46640476379262e-12,8.51623083497941e-10,-4.8283152792187e-10)
(9.92369176730988e-13,1.20050704088521e-09,-3.34838637724656e-10)
(-1.17254531863109e-12,1.64927287263847e-09,-1.72091110577179e-10)
(0,0,0)
(0,0,0)
(0,0,0)
(0,0,0)
(0,0,0)
(0,0,0)
(6.96896522899845e-12,7.24533951114014e-12,-8.74567937339292e-10)
(1.29676954543765e-11,1.43378324065739e-11,-8.72311555885315e-10)
(1.83668409616883e-11,2.3596872954246e-11,-8.68694634888732e-10)
(2.26976004665904e-11,3.74254473833625e-11,-8.6445694208926e-10)
(2.16829619245458e-11,7.05906440071233e-11,-8.62227445116048e-10)
(1.38016531518336e-11,1.64700150287023e-10,-8.61957800474846e-10)
(1.32733003451477e-11,4.38551443279515e-10,-8.36123588781509e-10)
(7.80201929522738e-12,7.04828625190813e-10,-7.09493381986219e-10)
(2.75620740711693e-12,1.03811019732562e-09,-5.1641542601919e-10)
(5.47613558729523e-13,1.47607149916068e-09,-2.78440596514082e-10)
(0,0,0)
(0,0,0)
(0,0,0)
(0,0,0)
(0,0,0)
(0,0,0)
(6.85971911054139e-12,5.25352635076362e-12,-1.27550682200228e-09)
(1.30756113322408e-11,1.05396423672922e-11,-1.27308202180543e-09)
(1.8288413835705e-11,1.81485373323637e-11,-1.26861618488862e-09)
(2.25918496755747e-11,3.11438603720123e-11,-1.26188142667724e-09)
(2.36069153573974e-11,6.41449012774115e-11,-1.25141970921594e-09)
(2.07707345240074e-11,1.43242891870791e-10,-1.22938806946418e-09)
(1.63812653743271e-11,3.08585015649217e-10,-1.17082857945719e-09)
(1.0589313713133e-11,5.10246896764703e-10,-1.0255544456638e-09)
(4.9248087595174e-12,7.97969265276605e-10,-7.92491183307121e-10)
(2.52869187169531e-12,1.19495500254057e-09,-4.54997332408441e-10)
(0,0,0)
(0,0,0)
(0,0,0)
(0,0,0)
(0,0,0)
(0,0,0)
(6.63714838805566e-12,2.83632531560457e-12,-1.76994565567495e-09)
(1.30985736427217e-11,5.94213484448648e-12,-1.76678415647158e-09)
(1.82844159046524e-11,1.07583877933299e-11,-1.76053565794344e-09)
(2.20719895435331e-11,1.87176073202388e-11,-1.75012777129748e-09)
(2.34063394794638e-11,3.81205524796083e-11,-1.73245100583624e-09)
(2.17610187865419e-11,8.10507228767722e-11,-1.69679567244477e-09)
(1.75919772066175e-11,1.61032156841768e-10,-1.61841080733212e-09)
(1.22193056056704e-11,2.75152078879689e-10,-1.45860686693811e-09)