/*--------------------------------*- C++ -*----------------------------------*\
| =========                 |                                                 |
| \\      /  F ield         | foam-extend: Open Source CFD                    |
|  \\    /   O peration     | Version:     4.0                                |
|   \\  /    A nd           | Web:         http://www.foam-extend.org         |
|    \\/     M anipulation  |                                                 |
\*---------------------------------------------------------------------------*/
FoamFile
{
    version 2.0;
    format ascii;
    class volVectorField;
    location "1854";
    object      E;
}
// * * * * * * * * * * * * * * * * * * * * * * * * * * * * * * * * * * * * * //

dimensions      [0 1 -1 0 0 0 0];

internalField   nonuniform List<vector>
4096
(
(0,0,0)
(0,0,0)
(0,0,0)
(0,0,0)
(0,0,0)
(0,0,0)
(0,0,0)
(0,0,0)
(0,0,0)
(0,0,0)
(0,0,0)
(0,0,0)
(0,0,0)
(0,0,0)
(0,0,0)
(0,0,0)
(0,0,0)
(0,0,0)
(0,0,0)
(0,0,0)
(0,0,0)
(0,0,0)
(0,0,0)
(0,0,0)
(0,0,0)
(0,0,0)
(0,0,0)
(0,0,0)
(0,0,0)
(0,0,0)
(0,0,0)
(0,0,0)
(0,0,0)
(0,0,0)
(0,0,0)
(0,0,0)
(0,0,0)
(0,0,0)
(0,0,0)
(0,0,0)
(0,0,0)
(0,0,0)
(0,0,0)
(0,0,0)
(0,0,0)
(0,0,0)
(0,0,0)
(0,0,0)
(0,0,0)
(0,0,0)
(0,0,0)
(0,0,0)
(0,0,0)
(0,0,0)
(0,0,0)
(0,0,0)
(0,0,0)
(0,0,0)
(0,0,0)
(0,0,0)
(0,0,0)
(0,0,0)
(0,0,0)
(0,0,0)
(0,0,0)
(0,0,0)
(0,0,0)
(0,0,0)
(0,0,0)
(0,0,0)
(0,0,0)
(0,0,0)
(0,0,0)
(0,0,0)
(0,0,0)
(0,0,0)
(0,0,0)
(0,0,0)
(0,0,0)
(0,0,0)
(0,0,0)
(0,0,0)
(0,0,0)
(0,0,0)
(0,0,0)
(0,0,0)
(0,0,0)
(0,0,0)
(0,0,0)
(0,0,0)
(0,0,0)
(0,0,0)
(0,0,0)
(0,0,0)
(0,0,0)
(0,0,0)
(0,0,0)
(0,0,0)
(0,0,0)
(0,0,0)
(0,0,0)
(0,0,0)
(0,0,0)
(0,0,0)
(0,0,0)
(0,0,0)
(0,0,0)
(0,0,0)
(0,0,0)
(0,0,0)
(0,0,0)
(0,0,0)
(0,0,0)
(0,0,0)
(0,0,0)
(0,0,0)
(0,0,0)
(0,0,0)
(0,0,0)
(0,0,0)
(0,0,0)
(0,0,0)
(0,0,0)
(0,0,0)
(0,0,0)
(0,0,0)
(0,0,0)
(0,0,0)
(0,0,0)
(0,0,0)
(0,0,0)
(0,0,0)
(0,0,0)
(0,0,0)
(0,0,0)
(0,0,0)
(0,0,0)
(0,0,0)
(0,0,0)
(0,0,0)
(0,0,0)
(0,0,0)
(0,0,0)
(0,0,0)
(0,0,0)
(0,0,0)
(0,0,0)
(0,0,0)
(0,0,0)
(0,0,0)
(0,0,0)
(0,0,0)
(0,0,0)
(0,0,0)
(0,0,0)
(0,0,0)
(0,0,0)
(0,0,0)
(0,0,0)
(0,0,0)
(0,0,0)
(0,0,0)
(0,0,0)
(0,0,0)
(0,0,0)
(0,0,0)
(0,0,0)
(0,0,0)
(0,0,0)
(0,0,0)
(0,0,0)
(0,0,0)
(0,0,0)
(0,0,0)
(0,0,0)
(0,0,0)
(0,0,0)
(0,0,0)
(0,0,0)
(0,0,0)
(0,0,0)
(0,0,0)
(0,0,0)
(0,0,0)
(0,0,0)
(0,0,0)
(0,0,0)
(0,0,0)
(0,0,0)
(0,0,0)
(0,0,0)
(0,0,0)
(0,0,0)
(0,0,0)
(0,0,0)
(0,0,0)
(0,0,0)
(0,0,0)
(0,0,0)
(0,0,0)
(0,0,0)
(0,0,0)
(0,0,0)
(0,0,0)
(0,0,0)
(0,0,0)
(0,0,0)
(0,0,0)
(0,0,0)
(0,0,0)
(0,0,0)
(0,0,0)
(0,0,0)
(0,0,0)
(0,0,0)
(0,0,0)
(0,0,0)
(0,0,0)
(0,0,0)
(0,0,0)
(0,0,0)
(0,0,0)
(0,0,0)
(0,0,0)
(0,0,0)
(0,0,0)
(0,0,0)
(0,0,0)
(0,0,0)
(0,0,0)
(0,0,0)
(0,0,0)
(0,0,0)
(0,0,0)
(0,0,0)
(0,0,0)
(0,0,0)
(0,0,0)
(0,0,0)
(0,0,0)
(0,0,0)
(0,0,0)
(0,0,0)
(0,0,0)
(0,0,0)
(0,0,0)
(0,0,0)
(0,0,0)
(0,0,0)
(0,0,0)
(0,0,0)
(0,0,0)
(0,0,0)
(0,0,0)
(0,0,0)
(0,0,0)
(0,0,0)
(0,0,0)
(0,0,0)
(0,0,0)
(0,0,0)
(0,0,0)
(0,0,0)
(0,0,0)
(0,0,0)
(0,0,0)
(0,0,0)
(0,0,0)
(0,0,0)
(0,0,0)
(0,0,0)
(0,0,0)
(0,0,0)
(0,0,0)
(0,0,0)
(0,0,0)
(0,0,0)
(0,0,0)
(0,0,0)
(0,0,0)
(0,0,0)
(0,0,0)
(0,0,0)
(0,0,0)
(0,0,0)
(0,0,0)
(0,0,0)
(0,0,0)
(0,0,0)
(0,0,0)
(0,0,0)
(0,0,0)
(0,0,0)
(0,0,0)
(0,0,0)
(0,0,0)
(0,0,0)
(0,0,0)
(0,0,0)
(0,0,0)
(0,0,0)
(0,0,0)
(0,0,0)
(0,0,0)
(0,0,0)
(0,0,0)
(0,0,0)
(0,0,0)
(0,0,0)
(0,0,0)
(0,0,0)
(0,0,0)
(0,0,0)
(0,0,0)
(0,0,0)
(0,0,0)
(0,0,0)
(0,0,0)
(0,0,0)
(0,0,0)
(0,0,0)
(0,0,0)
(0,0,0)
(0,0,0)
(0,0,0)
(0,0,0)
(0,0,0)
(0,0,0)
(0,0,0)
(0,0,0)
(0,0,0)
(0,0,0)
(0,0,0)
(0,0,0)
(0,0,0)
(0,0,0)
(0,0,0)
(0,0,0)
(0,0,0)
(0,0,0)
(0,0,0)
(0,0,0)
(0,0,0)
(0,0,0)
(0,0,0)
(0,0,0)
(0,0,0)
(0,0,0)
(0,0,0)
(0,0,0)
(0,0,0)
(0,0,0)
(0,0,0)
(0,0,0)
(0,0,0)
(0,0,0)
(0,0,0)
(0,0,0)
(0,0,0)
(0,0,0)
(0,0,0)
(0,0,0)
(0,0,0)
(0,0,0)
(0,0,0)
(0,0,0)
(0,0,0)
(0,0,0)
(0,0,0)
(0,0,0)
(0,0,0)
(0,0,0)
(0,0,0)
(0,0,0)
(0,0,0)
(0,0,0)
(0,0,0)
(0,0,0)
(0,0,0)
(0,0,0)
(0,0,0)
(0,0,0)
(0,0,0)
(0,0,0)
(0,0,0)
(0,0,0)
(0,0,0)
(0,0,0)
(0,0,0)
(0,0,0)
(0,0,0)
(0,0,0)
(0,0,0)
(0,0,0)
(0,0,0)
(0,0,0)
(0,0,0)
(0,0,0)
(0,0,0)
(0,0,0)
(0,0,0)
(0,0,0)
(0,0,0)
(0,0,0)
(0,0,0)
(0,0,0)
(0,0,0)
(0,0,0)
(0,0,0)
(0,0,0)
(0,0,0)
(0,0,0)
(0,0,0)
(0,0,0)
(0,0,0)
(0,0,0)
(0,0,0)
(0,0,0)
(0,0,0)
(0,0,0)
(0,0,0)
(0,0,0)
(0,0,0)
(0,0,0)
(0,0,0)
(0,0,0)
(0,0,0)
(0,0,0)
(0,0,0)
(0,0,0)
(0,0,0)
(0,0,0)
(0,0,0)
(0,0,0)
(0,0,0)
(0,0,0)
(0,0,0)
(0,0,0)
(0,0,0)
(0,0,0)
(0,0,0)
(0,0,0)
(0,0,0)
(0,0,0)
(0,0,0)
(0,0,0)
(0,0,0)
(0,0,0)
(0,0,0)
(0,0,0)
(0,0,0)
(0,0,0)
(0,0,0)
(0,0,0)
(0,0,0)
(0,0,0)
(0,0,0)
(0,0,0)
(0,0,0)
(0,0,0)
(0,0,0)
(0,0,0)
(0,0,0)
(0,0,0)
(0,0,0)
(0,0,0)
(0,0,0)
(0,0,0)
(0,0,0)
(0,0,0)
(0,0,0)
(0,0,0)
(0,0,0)
(0,0,0)
(0,0,0)
(0,0,0)
(0,0,0)
(0,0,0)
(0,0,0)
(0,0,0)
(0,0,0)
(0,0,0)
(0,0,0)
(0,0,0)
(0,0,0)
(0,0,0)
(0,0,0)
(0,0,0)
(0,0,0)
(0,0,0)
(0,0,0)
(0,0,0)
(0,0,0)
(0,0,0)
(0,0,0)
(0,0,0)
(0,0,0)
(0,0,0)
(0,0,0)
(0,0,0)
(0,0,0)
(0,0,0)
(0,0,0)
(0,0,0)
(0,0,0)
(0,0,0)
(0,0,0)
(0,0,0)
(0,0,0)
(0,0,0)
(0,0,0)
(0,0,0)
(0,0,0)
(0,0,0)
(0,0,0)
(0,0,0)
(0,0,0)
(0,0,0)
(0,0,0)
(0,0,0)
(0,0,0)
(0,0,0)
(0,0,0)
(0,0,0)
(0,0,0)
(0,0,0)
(0,0,0)
(0,0,0)
(0,0,0)
(0,0,0)
(0,0,0)
(0,0,0)
(0,0,0)
(0,0,0)
(0,0,0)
(0,0,0)
(0,0,0)
(0,0,0)
(0,0,0)
(0,0,0)
(0,0,0)
(0,0,0)
(0,0,0)
(0,0,0)
(0,0,0)
(0,0,0)
(0,0,0)
(0,0,0)
(0,0,0)
(0,0,0)
(0,0,0)
(0,0,0)
(0,0,0)
(0,0,0)
(0,0,0)
(0,0,0)
(0,0,0)
(0,0,0)
(0,0,0)
(0,0,0)
(0,0,0)
(0,0,0)
(0,0,0)
(0,0,0)
(0,0,0)
(0,0,0)
(0,0,0)
(0,0,0)
(0,0,0)
(0,0,0)
(0,0,0)
(0,0,0)
(0,0,0)
(0,0,0)
(0,0,0)
(0,0,0)
(0,0,0)
(0,0,0)
(0,0,0)
(0,0,0)
(0,0,0)
(0,0,0)
(0,0,0)
(0,0,0)
(0,0,0)
(0,0,0)
(0,0,0)
(0,0,0)
(0,0,0)
(0,0,0)
(0,0,0)
(0,0,0)
(0,0,0)
(0,0,0)
(0,0,0)
(0,0,0)
(0,0,0)
(0,0,0)
(0,0,0)
(0,0,0)
(0,0,0)
(0,0,0)
(0,0,0)
(0,0,0)
(0,0,0)
(0,0,0)
(0,0,0)
(0,0,0)
(0,0,0)
(0,0,0)
(0,0,0)
(0,0,0)
(0,0,0)
(0,0,0)
(0,0,0)
(0,0,0)
(0,0,0)
(0,0,0)
(0,0,0)
(0,0,0)
(0,0,0)
(0,0,0)
(0,0,0)
(0,0,0)
(0,0,0)
(0,0,0)
(0,0,0)
(0,0,0)
(0,0,0)
(0,0,0)
(0,0,0)
(0,0,0)
(0,0,0)
(0,0,0)
(0,0,0)
(0,0,0)
(0,0,0)
(0,0,0)
(0,0,0)
(0,0,0)
(0,0,0)
(0,0,0)
(0,0,0)
(0,0,0)
(0,0,0)
(0,0,0)
(0,0,0)
(0,0,0)
(0,0,0)
(0,0,0)
(0,0,0)
(0,0,0)
(0,0,0)
(0,0,0)
(0,0,0)
(0,0,0)
(0,0,0)
(0,0,0)
(0,0,0)
(0,0,0)
(0,0,0)
(0,0,0)
(0,0,0)
(0,0,0)
(0,0,0)
(0,0,0)
(0,0,0)
(0,0,0)
(0,0,0)
(0,0,0)
(0,0,0)
(0,0,0)
(0,0,0)
(0,0,0)
(0,0,0)
(0,0,0)
(0,0,0)
(0,0,0)
(0,0,0)
(0,0,0)
(0,0,0)
(0,0,0)
(0,0,0)
(0,0,0)
(0,0,0)
(0,0,0)
(0,0,0)
(0,0,0)
(0,0,0)
(0,0,0)
(0,0,0)
(0,0,0)
(0,0,0)
(0,0,0)
(0,0,0)
(0,0,0)
(0,0,0)
(0,0,0)
(0,0,0)
(0,0,0)
(0,0,0)
(0,0,0)
(0,0,0)
(0,0,0)
(0,0,0)
(0,0,0)
(0,0,0)
(0,0,0)
(0,0,0)
(0,0,0)
(0,0,0)
(0,0,0)
(0,0,0)
(0,0,0)
(0,0,0)
(0,0,0)
(0,0,0)
(0,0,0)
(0,0,0)
(0,0,0)
(0,0,0)
(0,0,0)
(0,0,0)
(0,0,0)
(0,0,0)
(0,0,0)
(0,0,0)
(0,0,0)
(0,0,0)
(0,0,0)
(0,0,0)
(0,0,0)
(0,0,0)
(0,0,0)
(0,0,0)
(0,0,0)
(0,0,0)
(0,0,0)
(0,0,0)
(0,0,0)
(0,0,0)
(0,0,0)
(0,0,0)
(0,0,0)
(0,0,0)
(0,0,0)
(0,0,0)
(0,0,0)
(0,0,0)
(0,0,0)
(0,0,0)
(0,0,0)
(0,0,0)
(0,0,0)
(0,0,0)
(0,0,0)
(0,0,0)
(0,0,0)
(0,0,0)
(0,0,0)
(0,0,0)
(0,0,0)
(0,0,0)
(0,0,0)
(0,0,0)
(0,0,0)
(0,0,0)
(0,0,0)
(0,0,0)
(0,0,0)
(0,0,0)
(0,0,0)
(0,0,0)
(0,0,0)
(0,0,0)
(0,0,0)
(0,0,0)
(0,0,0)
(0,0,0)
(0,0,0)
(0,0,0)
(0,0,0)
(0,0,0)
(0,0,0)
(0,0,0)
(0,0,0)
(0,0,0)
(0,0,0)
(0,0,0)
(0,0,0)
(0,0,0)
(0,0,0)
(0,0,0)
(0,0,0)
(0,0,0)
(0,0,0)
(0,0,0)
(0,0,0)
(0,0,0)
(0,0,0)
(0,0,0)
(0,0,0)
(0,0,0)
(0,0,0)
(0,0,0)
(0,0,0)
(0,0,0)
(0,0,0)
(0,0,0)
(0,0,0)
(0,0,0)
(0,0,0)
(0,0,0)
(0,0,0)
(0,0,0)
(0,0,0)
(0,0,0)
(0,0,0)
(0,0,0)
(-85490.2425565513,44978.1229486353,40512.1196079143)
(-90395.3047320237,43182.1302846957,87725.2940552423)
(-101846.038799938,39418.427758269,150152.905096912)
(-123460.989690332,33352.0202467843,240261.874540466)
(-162468.112041939,25143.1024877406,377586.884094673)
(-232528.952978419,15692.7312858085,594423.105787275)
(-359333.570768829,7034.20405383333,946722.472502295)
(-588443.571434938,1718.8797721377,1533447.16416514)
(-970709.472591673,-66.3172464793893,2504222.95400326)
(-1352687.46282901,-196.619604570548,3857107.03643686)
(0,0,0)
(0,0,0)
(0,0,0)
(0,0,0)
(0,0,0)
(0,0,0)
(-90472.7262774631,96879.8268675506,38571.022358546)
(-95441.1514937267,93466.5745857159,83727.7295512576)
(-107061.994953953,86239.3834635586,143968.768799917)
(-129175.296095083,74536.0878768909,231959.9972649)
(-169267.450645044,58320.404347222,368050.146050452)
(-240992.364338611,38953.8161570465,585781.425517824)
(-369185.098127657,20529.3876154015,941471.340083913)
(-597432.728434876,8889.82759498211,1531733.12069587)
(-976722.07783252,4305.30107234071,2504083.58020962)
(-1355491.36958788,2170.75568373102,3857207.57450913)
(0,0,0)
(0,0,0)
(0,0,0)
(0,0,0)
(0,0,0)
(0,0,0)
(-101837.676621971,163746.240745976,34971.2627435447)
(-106910.020796351,159145.006115836,76202.8520097795)
(-118882.144946291,149306.374899181,132018.005520453)
(-142090.080734342,133174.882060389,215469.2920713)
(-184742.844388838,110047.826124893,348484.714682455)
(-260883.148139863,81013.1659177367,567308.513061627)
(-393463.569565115,51530.4253967473,929771.044845413)
(-619801.102954256,31333.6886710308,1527128.28672359)
(-991153.268029397,20663.9478802931,2501922.90794506)
(-1362028.78672486,11181.5268559612,3854940.92349775)
(0,0,0)
(0,0,0)
(0,0,0)
(0,0,0)
(0,0,0)
(0,0,0)
(-122960.934127325,256529.856735787,30177.3181375154)
(-128115.189548865,251408.218718085,66029.2950841334)
(-140535.783040756,240388.724411289,115482.728612774)
(-165359.798406619,222056.487029218,191960.922050555)
(-212240.882652075,195065.41288782,319184.21793971)
(-296881.989196344,159426.825892359,537652.547161436)
(-439940.543274772,119754.221754886,909369.294078064)
(-663021.432580663,87413.2357836313,1516311.17954606)
(-1017505.83098751,62146.3883715757,2492334.57004226)
(-1373508.27070615,33424.227787547,3843600.13981695)
(0,0,0)
(0,0,0)
(0,0,0)
(0,0,0)
(0,0,0)
(0,0,0)
(-160776.424679781,392470.956868611,24835.3245469539)
(-165897.637792226,387501.707636933,54639.4734203281)
(-178553.426908101,376809.413762486,96772.2109772336)
(-204740.257286958,358956.201223412,164612.754069996)
(-255961.191660814,332369.424485145,283269.934133487)
(-351134.929253209,296049.594230014,497782.095049019)
(-510692.83439125,251428.904024597,876800.247170558)
(-728796.360295047,202101.604266912,1490908.23898234)
(-1055785.50590561,145334.881757464,2463505.25150214)
(-1390108.18690863,77034.4819808456,3810003.18421744)
(0,0,0)
(0,0,0)
(0,0,0)
(0,0,0)
(0,0,0)
(0,0,0)
(-229103.00069832,601978.717944048,19595.2396228848)
(-233959.984027418,597546.45420219,43510.4770850418)
(-246207.513605357,588016.437070614,78510.9673822717)
(-272125.448209043,571967.672891718,137624.943923007)
(-323815.270672591,547204.611524463,246605.027556284)
(-420745.282000617,510536.861537338,452863.042249596)
(-580761.94306007,457914.053375375,827139.835958901)
(-788976.434253865,384278.259110569,1433939.61536911)
(-1097271.53283254,281466.968644786,2395079.06131439)
(-1411016.27572931,150278.424039987,3732851.3949844)
(0,0,0)
(0,0,0)
(0,0,0)
(0,0,0)
(0,0,0)
(0,0,0)
(-354528.012867378,941569.33699215,14937.3938192757)
(-358819.797082451,937688.189445563,33615.4556583631)
(-369788.491883455,929359.691218103,62060.6933943362)
(-393431.22046841,915000.754343643,112458.832410825)
(-441411.998787001,891483.109386086,209592.3333362)
(-532450.142936946,852666.225224836,399913.112585642)
(-682591.275769064,787321.751375203,753096.69035489)
(-871909.520439844,678493.628528107,1330790.8413772)
(-1159165.33783461,507793.628111112,2263629.51974543)
(-1445159.68089501,276722.982127452,3582344.64255309)
(0,0,0)
(0,0,0)
(0,0,0)
(0,0,0)
(0,0,0)
(0,0,0)
(-583779.444539261,1514414.92862029,10933.8529111204)
(-587215.996289845,1510840.05375978,24997.9848867562)
(-596028.827806742,1503010.45542083,47376.0484907883)
(-615220.558885915,1488949.62300747,88647.7387128629)
(-654638.451313307,1464261.7709088,170507.528503451)
(-730312.250004006,1419250.10889075,334235.894841531)
(-856036.274060119,1333713.24874849,643880.671528346)
(-1009340.66139816,1172032.1759535,1159682.78550112)
(-1271663.36132118,906899.030384017,2032240.7445494)
(-1510514.763929,514115.870920376,3305362.61968541)
(0,0,0)
(0,0,0)
(0,0,0)
(0,0,0)
(0,0,0)
(0,0,0)
(-967589.116308201,2474711.41229397,7292.63263449088)
(-969946.00965974,2471089.28933681,16989.4067172184)
(-975938.931062648,2462841.38588155,33097.4073190989)
(-988833.789335379,2447158.33934223,63722.4803197073)
(-1014863.73957662,2417575.54358271,125272.447222407)
(-1063823.1360701,2359992.72805697,248352.964126285)
(-1146138.15627567,2246398.88265043,481805.486500022)
(-1268576.20940583,2028268.91916333,894144.952696031)
(-1479159.90950824,1641105.83026674,1639098.06232148)
(-1624522.45833426,986826.698050462,2790909.69352566)
(0,0,0)
(0,0,0)
(0,0,0)
(0,0,0)
(0,0,0)
(0,0,0)
(-1351256.48501628,3822260.15871887,3707.73859140997)
(-1352436.84312175,3818464.16340408,8769.7076458882)
(-1355416.53402739,3809657.51291844,17370.1146364143)
(-1361753.04288926,3792293.15762579,33988.3392421528)
(-1374357.84754376,3758385.61181997,67536.1185486893)
(-1397924.64120976,3690956.74324755,134496.744567865)
(-1439122.68404739,3556671.2684906,263347.042775085)
(-1508620.41543093,3293632.6891009,506603.688268401)
(-1624168.83601008,2787433.3174236,984445.037121578)
(-1635747.64927426,1803337.46500561,1803681.91944072)
(0,0,0)
(0,0,0)
(0,0,0)
(0,0,0)
(0,0,0)
(0,0,0)
(0,0,0)
(0,0,0)
(0,0,0)
(0,0,0)
(0,0,0)
(0,0,0)
(0,0,0)
(0,0,0)
(0,0,0)
(0,0,0)
(0,0,0)
(0,0,0)
(0,0,0)
(0,0,0)
(0,0,0)
(0,0,0)
(0,0,0)
(0,0,0)
(0,0,0)
(0,0,0)
(0,0,0)
(0,0,0)
(0,0,0)
(0,0,0)
(0,0,0)
(0,0,0)
(0,0,0)
(0,0,0)
(0,0,0)
(0,0,0)
(0,0,0)
(0,0,0)
(0,0,0)
(0,0,0)
(0,0,0)
(0,0,0)
(0,0,0)
(0,0,0)
(0,0,0)
(0,0,0)
(0,0,0)
(0,0,0)
(0,0,0)
(0,0,0)
(0,0,0)
(0,0,0)
(0,0,0)
(0,0,0)
(0,0,0)
(0,0,0)
(0,0,0)
(0,0,0)
(0,0,0)
(0,0,0)
(0,0,0)
(0,0,0)
(0,0,0)
(0,0,0)
(0,0,0)
(0,0,0)
(0,0,0)
(0,0,0)
(0,0,0)
(0,0,0)
(0,0,0)
(0,0,0)
(0,0,0)
(0,0,0)
(0,0,0)
(0,0,0)
(0,0,0)
(0,0,0)
(0,0,0)
(0,0,0)
(0,0,0)
(0,0,0)
(0,0,0)
(0,0,0)
(0,0,0)
(0,0,0)
(0,0,0)
(0,0,0)
(0,0,0)
(0,0,0)
(0,0,0)
(0,0,0)
(0,0,0)
(0,0,0)
(0,0,0)
(0,0,0)
(0,0,0)
(0,0,0)
(0,0,0)
(0,0,0)
(0,0,0)
(0,0,0)
(12687812.7891804,40141.6073485105,35530.1762924936)
(12679592.2139197,38277.6344101464,76239.838608707)
(12660580.2491462,34288.096038412,128500.270002015)
(12625035.1739962,27728.1944105503,201250.727282885)
(12561713.2266177,18437.024554119,307607.179447074)
(12449060.4387882,7266.07771842782,467726.525339835)
(12242452.3788254,-2807.61508649486,717723.00620999)
(11834217.1392724,-7258.45253523853,1151295.56341593)
(10913124.0600755,-6036.57848901467,2122473.42461576)
(8411693.67221284,-2972.42117104646,5210039.52612292)
(0,0,0)
(0,0,0)
(0,0,0)
(0,0,0)
(0,0,0)
(0,0,0)
(12679336.7793819,85739.8048454764,33567.1122217145)
(12671078.6849201,82213.3681162365,72086.357479813)
(12651900.8491785,74569.2036799298,121817.221083791)
(12615701.9452185,61772.1314143616,191870.858144379)
(12550642.1566101,42974.2147508957,296398.876070469)
(12434843.9469829,19129.8077657504,457673.650079745)
(12225073.8497932,-3723.40266399421,713305.305114435)
(11818510.8842549,-13458.0517733009,1152536.1070407)
(10903348.7778244,-10082.1480174644,2125485.63628998)
(8407434.17478723,-4341.93551230922,5212904.42163405)
(0,0,0)
(0,0,0)
(0,0,0)
(0,0,0)
(0,0,0)
(0,0,0)
(12660128.8458949,142840.802721895,29907.2949846113)
(12651823.4410381,138131.164048709,64230.8525956838)
(12632279.5290697,127787.081241887,108826.116395842)
(12594519.7366616,110065.722435069,172897.523357214)
(12524961.3611258,82700.3447017638,272442.003269673)
(12399718.8870666,45120.9253900038,434823.66581694)
(12177969.4467837,5098.94649358202,703543.115688576)
(11775253.8172051,-11889.8550637146,1155894.81419774)
(10878163.3778269,-5717.39893954356,2131188.23464145)
(8396986.64295272,-324.769816818488,5217130.45464641)
(0,0,0)
(0,0,0)
(0,0,0)
(0,0,0)
(0,0,0)
(0,0,0)
(12624905.1242947,218911.335983525,25038.2236943446)
(12616625.5793777,213784.185668822,53619.248525671)
(12596625.6907842,202484.644103793,90735.0272168277)
(12556385.972648,182824.336968985,145205.457006348)
(12478544.7616279,151462.078123687,234632.894682472)
(12331911.4419351,105254.569042053,394680.635277016)
(12073358.9228028,49041.9612558865,686412.969815167)
(11676911.8428779,21625.7761527767,1161938.87851811)
(10827415.8286615,23833.8051873066,2136440.83012011)
(8377519.48700783,16812.5651942807,5217250.55277315)
(0,0,0)
(0,0,0)
(0,0,0)
(0,0,0)
(0,0,0)
(0,0,0)
(12562967.2774907,324435.40458013,19707.0446109191)
(12554903.3274829,319689.350946111,41975.7294364148)
(12534823.2993166,309380.042564637,70678.4201289741)
(12492456.9824191,291790.238894234,113490.093875624)
(12405163.6489592,264637.476129409,188164.670627924)
(12226462.009768,226501.393603746,338295.722423064)
(11885406.4324205,181406.285605069,658806.946640113)
(11494687.3136269,141925.616701896,1163998.24754707)
(10747927.3150111,103822.785626738,2129271.26156879)
(8348560.16907629,56118.3822969162,5200271.9038592)
(0,0,0)
(0,0,0)
(0,0,0)
(0,0,0)
(0,0,0)
(0,0,0)
(12452682.5174698,476884.803305612,14739.8984843498)
(12445179.144218,472987.222449839,31277.7141132042)
(12426065.5077729,464680.4861031,52679.0645744554)
(12384494.4015633,450862.382904169,85961.8861703136)
(12296287.7961291,429760.914415691,149710.196460343)
(12112577.8864308,398959.562164504,292903.67484614)
(11767315.973309,356196.582558971,619010.27690114)
(11393846.0798904,301387.569030696,1125700.62580596)
(10680249.4585698,219567.441208964,2081409.79419937)
(8315341.61303682,116131.559805508,5144013.54330257)
(0,0,0)
(0,0,0)
(0,0,0)
(0,0,0)
(0,0,0)
(0,0,0)
(12248140.3116013,712535.627795102,10655.6664198449)
(12241628.0950225,709519.196634984,22650.6155077798)
(12224730.7304428,703304.299864308,38482.3947984379)
(12187041.0673556,693340.528054087,64506.7772024623)
(12104849.6999112,678386.552947552,118594.255350458)
(11929273.0557061,654969.445542112,249835.988707778)
(11594559.3661587,614024.939072611,563831.805644275)
(11257547.2206208,541157.735556518,1043579.71343586)
(10579898.6630883,395345.770604681,1977712.19849505)
(8258595.28590115,211402.140779995,5027661.46610252)
(0,0,0)
(0,0,0)
(0,0,0)
(0,0,0)
(0,0,0)
(0,0,0)
(11839493.2513203,1130741.73391185,7496.01340172962)
(11834358.3953948,1128273.36948693,16142.2642431352)
(11820942.4553733,1123271.86767641,28178.2286289678)
(11790547.7730088,1115490.30175371,49234.9384126269)
(11722860.7242696,1104225.49539512,94871.6357600513)
(11573973.852166,1085962.39425766,208567.400252657)
(11281140.7062687,1043793.57838538,490596.59598906)
(11061094.8997777,912919.566503758,897374.019243829)
(10377111.1539596,699485.348178174,1793434.74176745)
(8127105.88909613,400171.675590141,4816019.36931018)
(0,0,0)
(0,0,0)
(0,0,0)
(0,0,0)
(0,0,0)
(0,0,0)
(10916052.8137437,2091131.44170684,4943.17753111787)
(10912588.1391009,2088696.65643476,10960.5572007085)
(10903631.8729403,2083476.62900161,20159.8072505507)
(10883773.7899619,2074354.98840818,37662.3566767183)
(10841435.8186136,2058249.17163607,76313.9376235064)
(10755246.8835896,2026108.41767245,166072.709926977)
(10599726.589786,1953597.77055738,359378.587071371)
(10380782.4094054,1788358.04144459,683556.308697359)
(9762882.84413077,1496199.69791727,1493774.02069724)
(7727165.74540045,975676.410540531,4415555.8973901)
(0,0,0)
(0,0,0)
(0,0,0)
(0,0,0)
(0,0,0)
(0,0,0)
(8412706.3503283,5173620.25013529,2523.17160487934)
(8410993.92837906,5171008.66820002,5755.2037167322)
(8406609.95957647,5165181.33787226,10998.8166202312)
(8397072.20610978,5154144.16712902,21359.204278454)
(8377388.00981334,5132901.4143263,43935.9196091933)
(8338676.67015202,5089120.2911785,93297.5501194028)
(8266870.73161945,4996020.46836399,193856.252023963)
(8129123.70498396,4802407.98616846,391037.002263268)
(7727460.5277579,4411713.55416752,972868.59762304)
(6283098.85440292,3439178.35358628,3439494.96627798)
(0,0,0)
(0,0,0)
(0,0,0)
(0,0,0)
(0,0,0)
(0,0,0)
(0,0,0)
(0,0,0)
(0,0,0)
(0,0,0)
(0,0,0)
(0,0,0)
(0,0,0)
(0,0,0)
(0,0,0)
(0,0,0)
(0,0,0)
(0,0,0)
(0,0,0)
(0,0,0)
(0,0,0)
(0,0,0)
(0,0,0)
(0,0,0)
(0,0,0)
(0,0,0)
(0,0,0)
(0,0,0)
(0,0,0)
(0,0,0)
(0,0,0)
(0,0,0)
(0,0,0)
(0,0,0)
(0,0,0)
(0,0,0)
(0,0,0)
(0,0,0)
(0,0,0)
(0,0,0)
(0,0,0)
(0,0,0)
(0,0,0)
(0,0,0)
(0,0,0)
(0,0,0)
(0,0,0)
(0,0,0)
(0,0,0)
(0,0,0)
(0,0,0)
(0,0,0)
(0,0,0)
(0,0,0)
(0,0,0)
(0,0,0)
(0,0,0)
(0,0,0)
(0,0,0)
(0,0,0)
(0,0,0)
(0,0,0)
(0,0,0)
(0,0,0)
(0,0,0)
(0,0,0)
(0,0,0)
(0,0,0)
(0,0,0)
(0,0,0)
(0,0,0)
(0,0,0)
(0,0,0)
(0,0,0)
(0,0,0)
(0,0,0)
(0,0,0)
(0,0,0)
(0,0,0)
(0,0,0)
(0,0,0)
(0,0,0)
(0,0,0)
(0,0,0)
(0,0,0)
(0,0,0)
(0,0,0)
(0,0,0)
(0,0,0)
(0,0,0)
(0,0,0)
(0,0,0)
(0,0,0)
(0,0,0)
(0,0,0)
(0,0,0)
(0,0,0)
(0,0,0)
(0,0,0)
(0,0,0)
(0,0,0)
(0,0,0)
(-220168.613902389,31794.9116578222,27211.6760470131)
(-229210.674233321,29902.9042344306,57136.8445875153)
(-249844.273721804,25714.8964141313,92871.6556635303)
(-287466.509049599,18476.7243401267,137921.798991249)
(-351824.270269817,7437.26031937106,195047.220181454)
(-459230.949404898,-6907.46628110227,261271.259277836)
(-634804.17553088,-20122.9940949956,309675.992351188)
(-912640.995046472,-22885.2011840076,230444.512476037)
(-1311019.11072073,-15757.1748496063,-378629.957256136)
(-1607421.93190981,-7226.6045960251,-3201262.56391527)
(0,0,0)
(0,0,0)
(0,0,0)
(0,0,0)
(0,0,0)
(0,0,0)
(-229869.294451193,66777.4617288045,25248.708384067)
(-238788.727537168,63206.0381097828,52838.1715879651)
(-259207.438754548,55163.1991239229,85523.3414332711)
(-296844.861880188,40771.4457697998,126800.611724301)
(-362194.174588953,17429.9227012845,180669.465163437)
(-472493.402696219,-15913.9790437192,248038.512227067)
(-652176.672282985,-50738.9178936779,306930.142723908)
(-927363.01485382,-56643.8206983089,237587.845968935)
(-1318430.46646809,-35215.1492677602,-370149.750698202)
(-1610024.18690459,-14767.8957294715,-3194124.91325086)
(0,0,0)
(0,0,0)
(0,0,0)
(0,0,0)
(0,0,0)
(0,0,0)
(-251532.583621474,107871.198864471,21592.8770028095)
(-260170.59205832,103161.575140117,44656.5576908966)
(-280210.834715656,92324.8677708284,71010.437451236)
(-318175.298849138,72113.3390243095,103388.764329448)
(-386892.79071399,36422.1985603145,147275.824932236)
(-508502.594732072,-22591.1775206433,213199.689829844)
(-710126.268073741,-99430.177471905,301011.848887491)
(-978129.62195322,-110218.092180308,258994.744149686)
(-1340749.77651146,-56509.8920549032,-349772.174102695)
(-1617192.55825808,-19829.3239951594,-3179506.36000421)
(0,0,0)
(0,0,0)
(0,0,0)
(0,0,0)
(0,0,0)
(0,0,0)
(-290147.782433729,157193.192074102,16756.0981407974)
(-298302.859849454,152249.58649261,33621.7106374564)
(-317751.907440235,140830.703650281,50518.6576044216)
(-356484.104894874,119055.074626437,67472.1841671089)
(-432815.34442864,78189.4757611859,88090.1976447612)
(-587681.705186755,-138.275007427893,136255.626875377)
(-890026.511398944,-138914.395073039,290150.463300232)
(-1144080.12143506,-160666.243881343,312615.763936254)
(-1396469.31045148,-55726.945474766,-313256.85890882)
(-1632475.81490316,-12165.1821384537,-3159900.51423262)
(0,0,0)
(0,0,0)
(0,0,0)
(0,0,0)
(0,0,0)
(0,0,0)
(-354916.768795238,214477.325667669,11625.0973143582)
(-362379.002991637,210273.858206802,21908.3406967887)
(-380726.336968856,200916.854639214,28397.0106152029)
(-419482.057719266,184109.173936064,26307.1360659846)
(-504796.688617146,155933.721480706,9548.41254477989)
(-723123.709094604,112676.933159736,-2655.89213781681)
(-1436686.3412953,63285.6709957611,268262.000131174)
(-1705114.65038094,41013.8359240567,417409.068955641)
(-1505585.28238832,36091.2876567729,-269871.382154377)
(-1657480.43731921,22901.0021795576,-3147871.77545474)
(0,0,0)
(0,0,0)
(0,0,0)
(0,0,0)
(0,0,0)
(0,0,0)
(-461788.398037217,272749.461826886,7223.96396985377)
(-468299.775381917,269819.468693777,12182.4577048035)
(-484701.837086498,263702.679043929,11189.1627815125)
(-520716.20033057,253741.319141303,-2207.1959079911)
(-603589.423123721,238595.365193263,-33966.4357457244)
(-821253.499149306,215845.487737632,-52278.4201214831)
(-1499900.71470635,183531.64156425,245717.481947391)
(-1745786.94535456,165112.893451952,412276.634286514)
(-1556291.38203504,119210.669072508,-283276.721902383)
(-1682459.60838495,59390.7041281674,-3170940.0178071)
(0,0,0)
(0,0,0)
(0,0,0)
(0,0,0)
(0,0,0)
(0,0,0)
(-636457.36581452,304256.785977822,4115.53788685705)
(-641785.582296914,302636.485050769,5737.38347125314)
(-655532.807023338,299878.441615539,850.342987640193)
(-686876.64339352,297173.643838254,-17639.0863381427)
(-762914.865367095,296697.820866999,-56951.7921116294)
(-975943.255326718,299960.662205708,-84825.4709248498)
(-1683451.38863488,300828.725555896,226913.384499198)
(-1910318.96383647,344864.525340628,366053.121689757)
(-1633067.41955951,192650.744874287,-343395.686842034)
(-1723768.97518904,79957.7192464193,-3230573.25624823)
(0,0,0)
(0,0,0)
(0,0,0)
(0,0,0)
(0,0,0)
(0,0,0)
(-915149.155059222,207598.62693725,2325.75004206152)
(-919144.632394938,206833.762661193,2656.6848433816)
(-929589.402115171,206320.656430353,-2228.48786093437)
(-954123.96665368,209068.983906501,-18426.903644696)
(-1017011.76281846,223135.839059855,-53967.2501273981)
(-1212362.80919758,267572.874203877,-84217.6161401275)
(-1984529.42758228,362702.189642914,270604.238245851)
(-1618759.48491846,232873.686326414,213474.64657829)
(-1694734.59465553,85419.1905098571,-456422.865819983)
(-1787880.43609688,316.77855203681,-3310770.41531054)
(0,0,0)
(0,0,0)
(0,0,0)
(0,0,0)
(0,0,0)
(0,0,0)
(-1314779.708558,-412021.460202409,1477.79406334426)
(-1317376.59120779,-412666.949443711,1968.42109886348)
(-1324059.52295935,-413271.719878391,277.37792928101)
(-1339127.11576214,-412048.894268202,-4678.65354990499)
(-1373725.38557327,-405485.662485487,-9870.76319564199)
(-1456494.23848435,-390118.318498125,10586.7362023234)
(-1637517.75129863,-378922.72832522,140481.179877028)
(-1697514.60706662,-463018.336423449,65695.4037208454)
(-1854114.8243831,-539016.94236287,-541845.610270542)
(-1883705.34695332,-468268.796093995,-3311363.75864873)
(0,0,0)
(0,0,0)
(0,0,0)
(0,0,0)
(0,0,0)
(0,0,0)
(-1610198.991839,-3238890.45970282,799.526289756648)
(-1611458.84428885,-3239719.61168364,1330.14581956531)
(-1614650.76982576,-3241101.9136394,1446.25360483194)
(-1621619.74396082,-3242574.84587743,1689.3399065461)
(-1636491.69430213,-3244096.76934973,5205.33550826083)
(-1667640.31290965,-3249075.71738577,21504.9020795391)
(-1725306.33778063,-3270366.1129959,56150.5407723477)
(-1789778.93101486,-3326318.61276281,-10621.3622675819)
(-1884267.01357416,-3315427.96713711,-471457.611539302)
(-1818488.47981237,-2843676.76362636,-2843437.1251696)
(0,0,0)
(0,0,0)
(0,0,0)
(0,0,0)
(0,0,0)
(0,0,0)
(0,0,0)
(0,0,0)
(0,0,0)
(0,0,0)
(0,0,0)
(0,0,0)
(0,0,0)
(0,0,0)
(0,0,0)
(0,0,0)
(0,0,0)
(0,0,0)
(0,0,0)
(0,0,0)
(0,0,0)
(0,0,0)
(0,0,0)
(0,0,0)
(0,0,0)
(0,0,0)
(0,0,0)
(0,0,0)
(0,0,0)
(0,0,0)
(0,0,0)
(0,0,0)
(0,0,0)
(0,0,0)
(0,0,0)
(0,0,0)
(0,0,0)
(0,0,0)
(0,0,0)
(0,0,0)
(0,0,0)
(0,0,0)
(0,0,0)
(0,0,0)
(0,0,0)
(0,0,0)
(0,0,0)
(0,0,0)
(0,0,0)
(0,0,0)
(0,0,0)
(0,0,0)
(0,0,0)
(0,0,0)
(0,0,0)
(0,0,0)
(0,0,0)
(0,0,0)
(0,0,0)
(0,0,0)
(0,0,0)
(0,0,0)
(0,0,0)
(0,0,0)
(0,0,0)
(0,0,0)
(0,0,0)
(0,0,0)
(0,0,0)
(0,0,0)
(0,0,0)
(0,0,0)
(0,0,0)
(0,0,0)
(0,0,0)
(0,0,0)
(0,0,0)
(0,0,0)
(0,0,0)
(0,0,0)
(0,0,0)
(0,0,0)
(0,0,0)
(0,0,0)
(0,0,0)
(0,0,0)
(0,0,0)
(0,0,0)
(0,0,0)
(0,0,0)
(0,0,0)
(0,0,0)
(0,0,0)
(0,0,0)
(0,0,0)
(0,0,0)
(0,0,0)
(0,0,0)
(0,0,0)
(0,0,0)
(0,0,0)
(0,0,0)
(-260394.822375688,22205.7784338046,18020.4300394943)
(-268094.175984517,20475.9839862321,36427.9478044626)
(-285158.306762514,16479.9706870491,55262.0101581251)
(-314985.566807046,9175.57118251264,73605.4967330559)
(-363117.589205427,-2878.0694489212,87776.8851175886)
(-437159.469978189,-20131.1500103496,85836.5557012322)
(-543528.078258372,-37437.0304162269,31997.4888449529)
(-675405.946132671,-37528.3841280585,-167709.175940797)
(-780924.627187279,-23104.5538417745,-674699.105632451)
(-678759.295850446,-9822.55618723375,-1593539.18550457)
(0,0,0)
(0,0,0)
(0,0,0)
(0,0,0)
(0,0,0)
(0,0,0)
(-269234.975714714,45351.0801730236,16220.3795243003)
(-276519.106372413,42073.143817827,32353.5985279516)
(-292634.540342792,34367.6573266544,47893.0134765942)
(-320868.869368221,19568.9116877427,61523.6804593938)
(-366839.581074263,-7195.40513030604,70486.4226260914)
(-438737.628702992,-51893.146497349,68492.6451198709)
(-544396.980309182,-108659.836283701,31935.7590135488)
(-672307.453970785,-107383.557777176,-153264.628220368)
(-775838.12711795,-57495.5113528633,-661466.010059415)
(-675598.779423571,-21905.9416780047,-1583808.03204972)
(0,0,0)
(0,0,0)
(0,0,0)
(0,0,0)
(0,0,0)
(0,0,0)
(-288572.872071192,69507.5323842816,12883.8362384637)
(-295018.937480796,65245.294545094,24560.0309336687)
(-309245.712235559,54935.8497383644,33026.7160418605)
(-334210.020050137,33890.8693021661,34739.4796284395)
(-375611.67344878,-9477.45878748612,25740.4160204075)
(-444549.651584973,-101793.192431599,11687.5188075455)
(-560950.440506861,-279357.036743969,33208.8917009359)
(-672675.604156082,-276209.585861869,-103419.09801152)
(-763396.423091087,-112265.67088189,-626002.291902855)
(-667881.02829424,-35122.8705780473,-1562096.89296666)
(0,0,0)
(0,0,0)
(0,0,0)
(0,0,0)
(0,0,0)
(0,0,0)
(-321834.393442624,92689.3845810817,8504.75881210218)
(-327069.244179283,88407.7741885249,14108.663498504)
(-338510.762899805,78033.5409114191,11769.827785022)
(-358207.692352633,56203.5221675509,-8819.23762260495)
(-390670.067438575,6285.496421703,-66727.4698218554)
(-454644.23399131,-135584.564490894,-165973.568958007)
(-685974.545451097,-685689.195022899,36306.6233730705)
(-722571.235490139,-721837.114242485,60425.2658087732)
(-734300.85896399,-164940.465862493,-549068.390698118)
(-652256.080961278,-37200.5379966917,-1527210.45722137)
(0,0,0)
(0,0,0)
(0,0,0)
(0,0,0)
(0,0,0)
(0,0,0)
(-374347.368664235,108057.57206131,4062.41238876792)
(-378194.378952114,104775.830840726,3509.73169704358)
(-386168.983206844,97307.163385972,-10321.2445395209)
(-397797.996054555,83175.9839763528,-58977.7680130308)
(-406072.076086599,57345.2482449477,-208762.132366825)
(-365941.778256893,14639.6797256406,-716168.307421079)
(8.46622066250561e-05,2.32830583016388e-05,-5.55113025853505e-05)