/*--------------------------------*- C++ -*----------------------------------*\
| =========                 |                                                 |
| \\      /  F ield         | foam-extend: Open Source CFD                    |
|  \\    /   O peration     | Version:     4.0                                |
|   \\  /    A nd           | Web:         http://www.foam-extend.org         |
|    \\/     M anipulation  |                                                 |
\*---------------------------------------------------------------------------*/
FoamFile
{
    version 2.0;
    format ascii;
    class volVectorField;
    location "3345";
    object      H;
}
// * * * * * * * * * * * * * * * * * * * * * * * * * * * * * * * * * * * * * //

dimensions      [0 1 -1 0 0 0 0];

internalField   nonuniform List<vector>
4096
(
(0,0,0)
(0,0,0)
(0,0,0)
(0,0,0)
(0,0,0)
(0,0,0)
(0,0,0)
(0,0,0)
(0,0,0)
(0,0,0)
(0,0,0)
(0,0,0)
(0,0,0)
(0,0,0)
(0,0,0)
(0,0,0)
(0,0,0)
(0,0,0)
(0,0,0)
(0,0,0)
(0,0,0)
(0,0,0)
(0,0,0)
(0,0,0)
(0,0,0)
(0,0,0)
(0,0,0)
(0,0,0)
(0,0,0)
(0,0,0)
(0,0,0)
(0,0,0)
(0,0,0)
(0,0,0)
(0,0,0)
(0,0,0)
(0,0,0)
(0,0,0)
(0,0,0)
(0,0,0)
(0,0,0)
(0,0,0)
(0,0,0)
(0,0,0)
(0,0,0)
(0,0,0)
(0,0,0)
(0,0,0)
(0,0,0)
(0,0,0)
(0,0,0)
(0,0,0)
(0,0,0)
(0,0,0)
(0,0,0)
(0,0,0)
(0,0,0)
(0,0,0)
(0,0,0)
(0,0,0)
(0,0,0)
(0,0,0)
(0,0,0)
(0,0,0)
(0,0,0)
(0,0,0)
(0,0,0)
(0,0,0)
(0,0,0)
(0,0,0)
(0,0,0)
(0,0,0)
(0,0,0)
(0,0,0)
(0,0,0)
(0,0,0)
(0,0,0)
(0,0,0)
(0,0,0)
(0,0,0)
(0,0,0)
(0,0,0)
(0,0,0)
(0,0,0)
(0,0,0)
(0,0,0)
(0,0,0)
(0,0,0)
(0,0,0)
(0,0,0)
(0,0,0)
(0,0,0)
(0,0,0)
(0,0,0)
(0,0,0)
(0,0,0)
(0,0,0)
(0,0,0)
(0,0,0)
(0,0,0)
(0,0,0)
(0,0,0)
(0,0,0)
(0,0,0)
(0,0,0)
(0,0,0)
(0,0,0)
(0,0,0)
(0,0,0)
(0,0,0)
(0,0,0)
(0,0,0)
(0,0,0)
(0,0,0)
(0,0,0)
(0,0,0)
(0,0,0)
(0,0,0)
(0,0,0)
(0,0,0)
(0,0,0)
(0,0,0)
(0,0,0)
(0,0,0)
(0,0,0)
(0,0,0)
(0,0,0)
(0,0,0)
(0,0,0)
(0,0,0)
(0,0,0)
(0,0,0)
(0,0,0)
(0,0,0)
(0,0,0)
(0,0,0)
(0,0,0)
(0,0,0)
(0,0,0)
(0,0,0)
(0,0,0)
(0,0,0)
(0,0,0)
(0,0,0)
(0,0,0)
(0,0,0)
(0,0,0)
(0,0,0)
(0,0,0)
(0,0,0)
(0,0,0)
(0,0,0)
(0,0,0)
(0,0,0)
(0,0,0)
(0,0,0)
(0,0,0)
(0,0,0)
(0,0,0)
(0,0,0)
(0,0,0)
(0,0,0)
(0,0,0)
(0,0,0)
(0,0,0)
(0,0,0)
(0,0,0)
(0,0,0)
(0,0,0)
(0,0,0)
(0,0,0)
(0,0,0)
(0,0,0)
(0,0,0)
(0,0,0)
(0,0,0)
(0,0,0)
(0,0,0)
(0,0,0)
(0,0,0)
(0,0,0)
(0,0,0)
(0,0,0)
(0,0,0)
(0,0,0)
(0,0,0)
(0,0,0)
(0,0,0)
(0,0,0)
(0,0,0)
(0,0,0)
(0,0,0)
(0,0,0)
(0,0,0)
(0,0,0)
(0,0,0)
(0,0,0)
(0,0,0)
(0,0,0)
(0,0,0)
(0,0,0)
(0,0,0)
(0,0,0)
(0,0,0)
(0,0,0)
(0,0,0)
(0,0,0)
(0,0,0)
(0,0,0)
(0,0,0)
(0,0,0)
(0,0,0)
(0,0,0)
(0,0,0)
(0,0,0)
(0,0,0)
(0,0,0)
(0,0,0)
(0,0,0)
(0,0,0)
(0,0,0)
(0,0,0)
(0,0,0)
(0,0,0)
(0,0,0)
(0,0,0)
(0,0,0)
(0,0,0)
(0,0,0)
(0,0,0)
(0,0,0)
(0,0,0)
(0,0,0)
(0,0,0)
(0,0,0)
(0,0,0)
(0,0,0)
(0,0,0)
(0,0,0)
(0,0,0)
(0,0,0)
(0,0,0)
(0,0,0)
(0,0,0)
(0,0,0)
(0,0,0)
(0,0,0)
(0,0,0)
(0,0,0)
(0,0,0)
(0,0,0)
(0,0,0)
(0,0,0)
(0,0,0)
(0,0,0)
(0,0,0)
(0,0,0)
(0,0,0)
(0,0,0)
(0,0,0)
(0,0,0)
(0,0,0)
(0,0,0)
(0,0,0)
(0,0,0)
(0,0,0)
(0,0,0)
(0,0,0)
(0,0,0)
(0,0,0)
(0,0,0)
(0,0,0)
(0,0,0)
(0,0,0)
(0,0,0)
(0,0,0)
(0,0,0)
(0,0,0)
(0,0,0)
(0,0,0)
(0,0,0)
(0,0,0)
(0,0,0)
(0,0,0)
(0,0,0)
(0,0,0)
(0,0,0)
(0,0,0)
(0,0,0)
(0,0,0)
(0,0,0)
(0,0,0)
(0,0,0)
(0,0,0)
(0,0,0)
(0,0,0)
(0,0,0)
(0,0,0)
(0,0,0)
(0,0,0)
(0,0,0)
(0,0,0)
(0,0,0)
(0,0,0)
(0,0,0)
(0,0,0)
(0,0,0)
(0,0,0)
(0,0,0)
(0,0,0)
(0,0,0)
(0,0,0)
(0,0,0)
(0,0,0)
(0,0,0)
(0,0,0)
(0,0,0)
(0,0,0)
(0,0,0)
(0,0,0)
(0,0,0)
(0,0,0)
(0,0,0)
(0,0,0)
(0,0,0)
(0,0,0)
(0,0,0)
(0,0,0)
(0,0,0)
(0,0,0)
(0,0,0)
(0,0,0)
(0,0,0)
(0,0,0)
(0,0,0)
(0,0,0)
(0,0,0)
(0,0,0)
(0,0,0)
(0,0,0)
(0,0,0)
(0,0,0)
(0,0,0)
(0,0,0)
(0,0,0)
(0,0,0)
(0,0,0)
(0,0,0)
(0,0,0)
(0,0,0)
(0,0,0)
(0,0,0)
(0,0,0)
(0,0,0)
(0,0,0)
(0,0,0)
(0,0,0)
(0,0,0)
(0,0,0)
(0,0,0)
(0,0,0)
(0,0,0)
(0,0,0)
(0,0,0)
(0,0,0)
(0,0,0)
(0,0,0)
(0,0,0)
(0,0,0)
(0,0,0)
(0,0,0)
(0,0,0)
(0,0,0)
(0,0,0)
(0,0,0)
(0,0,0)
(0,0,0)
(0,0,0)
(0,0,0)
(0,0,0)
(0,0,0)
(0,0,0)
(0,0,0)
(0,0,0)
(0,0,0)
(0,0,0)
(0,0,0)
(0,0,0)
(0,0,0)
(0,0,0)
(0,0,0)
(0,0,0)
(0,0,0)
(0,0,0)
(0,0,0)
(0,0,0)
(0,0,0)
(0,0,0)
(0,0,0)
(0,0,0)
(0,0,0)
(0,0,0)
(0,0,0)
(0,0,0)
(0,0,0)
(0,0,0)
(0,0,0)
(0,0,0)
(0,0,0)
(0,0,0)
(0,0,0)
(0,0,0)
(0,0,0)
(0,0,0)
(0,0,0)
(0,0,0)
(0,0,0)
(0,0,0)
(0,0,0)
(0,0,0)
(0,0,0)
(0,0,0)
(0,0,0)
(0,0,0)
(0,0,0)
(0,0,0)
(0,0,0)
(0,0,0)
(0,0,0)
(0,0,0)
(0,0,0)
(0,0,0)
(0,0,0)
(0,0,0)
(0,0,0)
(0,0,0)
(0,0,0)
(0,0,0)
(0,0,0)
(0,0,0)
(0,0,0)
(0,0,0)
(0,0,0)
(0,0,0)
(0,0,0)
(0,0,0)
(0,0,0)
(0,0,0)
(0,0,0)
(0,0,0)
(0,0,0)
(0,0,0)
(0,0,0)
(0,0,0)
(0,0,0)
(0,0,0)
(0,0,0)
(0,0,0)
(0,0,0)
(0,0,0)
(0,0,0)
(0,0,0)
(0,0,0)
(0,0,0)
(0,0,0)
(0,0,0)
(0,0,0)
(0,0,0)
(0,0,0)
(0,0,0)
(0,0,0)
(0,0,0)
(0,0,0)
(0,0,0)
(0,0,0)
(0,0,0)
(0,0,0)
(0,0,0)
(0,0,0)
(0,0,0)
(0,0,0)
(0,0,0)
(0,0,0)
(0,0,0)
(0,0,0)
(0,0,0)
(0,0,0)
(0,0,0)
(0,0,0)
(0,0,0)
(0,0,0)
(0,0,0)
(0,0,0)
(0,0,0)
(0,0,0)
(0,0,0)
(0,0,0)
(0,0,0)
(0,0,0)
(0,0,0)
(0,0,0)
(0,0,0)
(0,0,0)
(0,0,0)
(0,0,0)
(0,0,0)
(0,0,0)
(0,0,0)
(0,0,0)
(0,0,0)
(0,0,0)
(0,0,0)
(0,0,0)
(0,0,0)
(0,0,0)
(0,0,0)
(0,0,0)
(0,0,0)
(0,0,0)
(0,0,0)
(0,0,0)
(0,0,0)
(0,0,0)
(0,0,0)
(0,0,0)
(0,0,0)
(0,0,0)
(0,0,0)
(0,0,0)
(0,0,0)
(0,0,0)
(0,0,0)
(0,0,0)
(0,0,0)
(0,0,0)
(0,0,0)
(0,0,0)
(0,0,0)
(0,0,0)
(0,0,0)
(0,0,0)
(0,0,0)
(0,0,0)
(0,0,0)
(0,0,0)
(0,0,0)
(0,0,0)
(0,0,0)
(0,0,0)
(0,0,0)
(0,0,0)
(0,0,0)
(0,0,0)
(0,0,0)
(0,0,0)
(0,0,0)
(0,0,0)
(0,0,0)
(0,0,0)
(0,0,0)
(0,0,0)
(0,0,0)
(0,0,0)
(0,0,0)
(0,0,0)
(0,0,0)
(0,0,0)
(0,0,0)
(0,0,0)
(0,0,0)
(0,0,0)
(0,0,0)
(0,0,0)
(0,0,0)
(0,0,0)
(0,0,0)
(0,0,0)
(0,0,0)
(0,0,0)
(0,0,0)
(0,0,0)
(0,0,0)
(0,0,0)
(0,0,0)
(0,0,0)
(0,0,0)
(0,0,0)
(0,0,0)
(0,0,0)
(0,0,0)
(0,0,0)
(0,0,0)
(0,0,0)
(0,0,0)
(0,0,0)
(0,0,0)
(0,0,0)
(0,0,0)
(0,0,0)
(0,0,0)
(0,0,0)
(0,0,0)
(0,0,0)
(0,0,0)
(0,0,0)
(0,0,0)
(0,0,0)
(0,0,0)
(0,0,0)
(0,0,0)
(0,0,0)
(0,0,0)
(0,0,0)
(0,0,0)
(0,0,0)
(0,0,0)
(0,0,0)
(0,0,0)
(0,0,0)
(0,0,0)
(0,0,0)
(0,0,0)
(0,0,0)
(0,0,0)
(0,0,0)
(0,0,0)
(0,0,0)
(0,0,0)
(0,0,0)
(0,0,0)
(0,0,0)
(0,0,0)
(0,0,0)
(0,0,0)
(0,0,0)
(0,0,0)
(0,0,0)
(0,0,0)
(0,0,0)
(0,0,0)
(0,0,0)
(0,0,0)
(0,0,0)
(0,0,0)
(0,0,0)
(0,0,0)
(0,0,0)
(0,0,0)
(0,0,0)
(0,0,0)
(0,0,0)
(0,0,0)
(0,0,0)
(0,0,0)
(0,0,0)
(0,0,0)
(0,0,0)
(0,0,0)
(0,0,0)
(0,0,0)
(0,0,0)
(0,0,0)
(0,0,0)
(0,0,0)
(0,0,0)
(0,0,0)
(0,0,0)
(0,0,0)
(0,0,0)
(0,0,0)
(0,0,0)
(0,0,0)
(0,0,0)
(0,0,0)
(0,0,0)
(0,0,0)
(0,0,0)
(0,0,0)
(0,0,0)
(0,0,0)
(0,0,0)
(0,0,0)
(0,0,0)
(0,0,0)
(0,0,0)
(0,0,0)
(0,0,0)
(0,0,0)
(0,0,0)
(0,0,0)
(0,0,0)
(0,0,0)
(0,0,0)
(0,0,0)
(0,0,0)
(0,0,0)
(0,0,0)
(0,0,0)
(0,0,0)
(0,0,0)
(0,0,0)
(0,0,0)
(0,0,0)
(0,0,0)
(0,0,0)
(0,0,0)
(0,0,0)
(0,0,0)
(0,0,0)
(0,0,0)
(0,0,0)
(0,0,0)
(0,0,0)
(0,0,0)
(0,0,0)
(0,0,0)
(0,0,0)
(0,0,0)
(0,0,0)
(0,0,0)
(0,0,0)
(0,0,0)
(0,0,0)
(0,0,0)
(0,0,0)
(0,0,0)
(0,0,0)
(0,0,0)
(0,0,0)
(0,0,0)
(0,0,0)
(0,0,0)
(0,0,0)
(0,0,0)
(0,0,0)
(0,0,0)
(0,0,0)
(0,0,0)
(0,0,0)
(0,0,0)
(0,0,0)
(0,0,0)
(0,0,0)
(0,0,0)
(0,0,0)
(0,0,0)
(0,0,0)
(0,0,0)
(0,0,0)
(0,0,0)
(0,0,0)
(0,0,0)
(0,0,0)
(0,0,0)
(0,0,0)
(0,0,0)
(0,0,0)
(0,0,0)
(0,0,0)
(0,0,0)
(0,0,0)
(0,0,0)
(0,0,0)
(0,0,0)
(0,0,0)
(0,0,0)
(0,0,0)
(0,0,0)
(0,0,0)
(0,0,0)
(0,0,0)
(0,0,0)
(0,0,0)
(0,0,0)
(0,0,0)
(0,0,0)
(0,0,0)
(0,0,0)
(0,0,0)
(0,0,0)
(0,0,0)
(0,0,0)
(0,0,0)
(0,0,0)
(0,0,0)
(0,0,0)
(0,0,0)
(0,0,0)
(0,0,0)
(0,0,0)
(0,0,0)
(0,0,0)
(0,0,0)
(0,0,0)
(0,0,0)
(0,0,0)
(0,0,0)
(0,0,0)
(0,0,0)
(0,0,0)
(0,0,0)
(0,0,0)
(0,0,0)
(0,0,0)
(0,0,0)
(0,0,0)
(0,0,0)
(0,0,0)
(0,0,0)
(0,0,0)
(0,0,0)
(0,0,0)
(0,0,0)
(0,0,0)
(0,0,0)
(0,0,0)
(0,0,0)
(0,0,0)
(0,0,0)
(-8.03689474595322e-13,1.27672212135183e-11,-1.6724678175365e-11)
(-2.12877354782369e-12,2.76398968728018e-11,-1.57069431511151e-11)
(-3.03161515378865e-12,4.85332371651494e-11,-1.41332451483326e-11)
(-4.29818199222185e-12,7.83331473922937e-11,-1.21384862653375e-11)
(-4.0345776303719e-12,1.21787682727288e-10,-9.72961945720616e-12)
(-3.2557350845567e-12,1.89089284538428e-10,-6.92087394681931e-12)
(-3.28692203327187e-12,2.9823178685593e-10,-4.43831817597799e-12)
(-2.36599797679981e-12,4.79857649294953e-10,-2.80943087749139e-12)
(-2.65531441876327e-12,7.81336230596322e-10,-1.85693656316104e-12)
(-3.39555768435038e-12,1.20105382750004e-09,-9.22559484923284e-13)
(0,0,0)
(0,0,0)
(0,0,0)
(0,0,0)
(0,0,0)
(0,0,0)
(-1.49468702466684e-12,1.23824820991249e-11,-3.22472651754945e-11)
(-3.85207476737755e-12,2.63968588747378e-11,-3.09672745199605e-11)
(-5.72806180476071e-12,4.67705109440535e-11,-2.89294549160247e-11)
(-6.74066872050938e-12,7.58850284833874e-11,-2.56116451729525e-11)
(-6.12324879920754e-12,1.18891243148988e-10,-2.08613414451715e-11)
(-5.11420203032238e-12,1.86392500108399e-10,-1.51834168895315e-11)
(-4.89486913148927e-12,2.96477285537778e-10,-9.95641333375307e-12)
(-4.29880469365658e-12,4.79480342799904e-10,-6.50365860558997e-12)
(-5.34097220649582e-12,7.81537870696234e-10,-4.21836600265033e-12)
(-6.05339908940877e-12,1.2014269230828e-09,-2.12185985415177e-12)
(0,0,0)
(0,0,0)
(0,0,0)
(0,0,0)
(0,0,0)
(0,0,0)
(-1.66901389614454e-12,1.14770050716588e-11,-5.26465277171114e-11)
(-5.24255504383877e-12,2.46101399444556e-11,-5.13102572247512e-11)
(-8.03307713817407e-12,4.36818840730094e-11,-4.89871618324711e-11)
(-7.99003814415391e-12,7.0782476151525e-11,-4.4643563504527e-11)
(-5.68486746590284e-12,1.12514205066322e-10,-3.79207640323976e-11)
(-4.53161069052337e-12,1.804112823609e-10,-2.93761040587455e-11)
(-5.1088173172998e-12,2.93010521422573e-10,-2.08052381474538e-11)
(-6.17627291236845e-12,4.78710315433725e-10,-1.46090311537469e-11)
(-7.54287247684459e-12,7.81799459317088e-10,-9.79018739568259e-12)
(-8.42552038828654e-12,1.20181485474783e-09,-4.94248449082394e-12)
(0,0,0)
(0,0,0)
(0,0,0)
(0,0,0)
(0,0,0)
(0,0,0)
(-2.53353135226697e-12,1.00887939880552e-11,-8.15321094374552e-11)
(-6.26543019025754e-12,2.201183786178e-11,-8.0406451210449e-11)
(-8.25786243647154e-12,3.89743603139923e-11,-7.80505748609045e-11)
(-7.78878282302174e-12,6.35797158108823e-11,-7.31642132721836e-11)
(-4.59977035412437e-12,1.03294791892661e-10,-6.5186552258594e-11)
(-3.02495508424331e-12,1.70743945848924e-10,-5.48127382940477e-11)
(-4.17565465731931e-12,2.86241692692375e-10,-4.34184905086756e-11)
(-6.82501205933803e-12,4.75598396996512e-10,-3.31616897972435e-11)
(-9.13722213064486e-12,7.80093020949594e-10,-2.30350066034888e-11)
(-1.07819198156576e-11,1.20030073791269e-09,-1.19341355004e-11)
(0,0,0)
(0,0,0)
(0,0,0)
(0,0,0)
(0,0,0)
(0,0,0)
(-2.08884440311244e-12,8.18493004003538e-12,-1.24431694337492e-10)
(-4.57746107602565e-12,1.8522917777892e-11,-1.23392434056471e-10)
(-5.17648782076908e-12,3.27803117392814e-11,-1.21041042207812e-10)
(-4.85049355466604e-12,5.41840552838046e-11,-1.16106912558493e-10)
(-2.41693693872828e-12,9.11814673142361e-11,-1.0836231193033e-10)
(-1.29607763515998e-12,1.57252658195138e-10,-9.8218034941523e-11)
(-3.19207164667852e-12,2.75019192038372e-10,-8.59511480195272e-11)
(-6.32211103490632e-12,4.67991065107634e-10,-6.90589089196812e-11)
(-9.72551322854305e-12,7.7268535910129e-10,-4.88440693766488e-11)
(-1.07220934632746e-11,1.19190810277212e-09,-2.54853246793661e-11)
(0,0,0)
(0,0,0)
(0,0,0)
(0,0,0)
(0,0,0)
(0,0,0)
(-6.04639646606205e-13,6.30590866913354e-12,-1.91807405973976e-10)
(-1.58099242151085e-12,1.48822578977295e-11,-1.90672391061045e-10)
(-8.24887119327945e-13,2.63460110316628e-11,-1.88186649177927e-10)
(-5.34121875107371e-15,4.43693109717204e-11,-1.8335496872357e-10)
(2.04387429725929e-12,7.79702102563118e-11,-1.76040186158671e-10)
(2.10545081904857e-12,1.41961741264006e-10,-1.65338044335005e-10)
(-7.71017957664251e-13,2.60711107539021e-10,-1.4943522188967e-10)
(-4.11924664951785e-12,4.5170657726688e-10,-1.25116192519723e-10)
(-6.66021855356848e-12,7.5265688512146e-10,-9.10304899148478e-11)
(-6.93214060717386e-12,1.16920461431971e-09,-4.8195300586425e-11)
(0,0,0)
(0,0,0)
(0,0,0)
(0,0,0)
(0,0,0)
(0,0,0)
(5.90770729887991e-13,4.6259575222292e-12,-2.97860029641162e-10)
(7.37468169293522e-13,1.13170267362961e-11,-2.97106757841544e-10)
(2.35591120767581e-12,2.02347912815262e-11,-2.95284793074566e-10)
(4.32999740365951e-12,3.54686005744328e-11,-2.91468736246216e-10)
(5.94735142784153e-12,6.48501449952924e-11,-2.84534636611155e-10)
(5.09388557431234e-12,1.2377743183906e-10,-2.72289087581008e-10)
(2.81906478476543e-12,2.3782167618336e-10,-2.49917580061691e-10)
(1.11710336762255e-12,4.20001796057765e-10,-2.15660130368484e-10)
(2.201011702826e-13,7.11797454900506e-10,-1.615278105823e-10)
(5.24469604307424e-14,1.12249235052541e-09,-8.78614738774301e-11)
(0,0,0)
(0,0,0)
(0,0,0)
(0,0,0)
(0,0,0)
(0,0,0)
(1.23052984693768e-12,3.46142407736556e-12,-4.77216400927665e-10)
(2.58268205133146e-12,8.35131938405787e-12,-4.76728403359283e-10)
(5.51534444033408e-12,1.49994395538274e-11,-4.7503642970689e-10)
(8.80028296609805e-12,2.77219260162561e-11,-4.71327890053373e-10)
(1.0603945932283e-11,5.30255938194575e-11,-4.63340276920974e-10)
(1.07865327665343e-11,1.04723384598694e-10,-4.48556819020723e-10)
(9.45843021961351e-12,2.03686784279151e-10,-4.20527123296525e-10)
(8.99044588119782e-12,3.66135663210178e-10,-3.69901244322437e-10)
(8.68653791660203e-12,6.38997843189634e-10,-2.86421010661635e-10)
(8.84233253894005e-12,1.03558465231107e-09,-1.62432557108471e-10)
(0,0,0)
(0,0,0)
(0,0,0)
(0,0,0)
(0,0,0)
(0,0,0)
(1.10594801569528e-12,2.74409917961954e-12,-7.776275403838e-10)
(3.58648960848551e-12,6.02718104586102e-12,-7.77000561410414e-10)
(7.93739916584889e-12,1.05451738836575e-11,-7.74832867562514e-10)
(1.23561608169111e-11,1.98211624811993e-11,-7.70258360942778e-10)
(1.41759603579905e-11,3.91499610637493e-11,-7.60359758049597e-10)
(1.52795315430942e-11,7.844735703905e-11,-7.41854963136496e-10)
(1.53653354022297e-11,1.52687512923602e-10,-7.05628023402727e-10)
(1.53857301965288e-11,2.82072801520274e-10,-6.37133529252146e-10)
(1.55855951515152e-11,5.15100031005018e-10,-5.15470887989605e-10)
(1.53473884787997e-11,8.73986722552888e-10,-3.0967637427988e-10)
(0,0,0)
(0,0,0)
(0,0,0)
(0,0,0)
(0,0,0)
(0,0,0)
(1.53209275966629e-12,1.35811542723925e-12,-1.19738219135965e-09)
(4.43488765113123e-12,3.11205631115855e-12,-1.19670518658693e-09)
(8.63187900450196e-12,5.53201847870597e-12,-1.19384197234248e-09)
(1.35790796384255e-11,1.03295467485268e-11,-1.18827373922374e-09)
(1.5493922775422e-11,2.08716874133843e-11,-1.17718007003973e-09)
(1.69780620603157e-11,4.25946803199665e-11,-1.15641423128069e-09)
(1.73541486821209e-11,8.36227587478418e-11,-1.11396772014433e-09)
(1.71976437071281e-11,1.59520861736308e-10,-1.03101013204575e-09)
(1.87421265773853e-11,3.08994174051814e-10,-8.72481373698044e-10)
(1.9237068211883e-11,5.64556002924785e-10,-5.6396254927434e-10)
(0,0,0)
(0,0,0)
(0,0,0)
(0,0,0)
(0,0,0)
(0,0,0)
(0,0,0)
(0,0,0)
(0,0,0)
(0,0,0)
(0,0,0)
(0,0,0)
(0,0,0)
(0,0,0)
(0,0,0)
(0,0,0)
(0,0,0)
(0,0,0)
(0,0,0)
(0,0,0)
(0,0,0)
(0,0,0)
(0,0,0)
(0,0,0)
(0,0,0)
(0,0,0)
(0,0,0)
(0,0,0)
(0,0,0)
(0,0,0)
(0,0,0)
(0,0,0)
(0,0,0)
(0,0,0)
(0,0,0)
(0,0,0)
(0,0,0)
(0,0,0)
(0,0,0)
(0,0,0)
(0,0,0)
(0,0,0)
(0,0,0)
(0,0,0)
(0,0,0)
(0,0,0)
(0,0,0)
(0,0,0)
(0,0,0)
(0,0,0)
(0,0,0)
(0,0,0)
(0,0,0)
(0,0,0)
(0,0,0)
(0,0,0)
(0,0,0)
(0,0,0)
(0,0,0)
(0,0,0)
(0,0,0)
(0,0,0)
(0,0,0)
(0,0,0)
(0,0,0)
(0,0,0)
(0,0,0)
(0,0,0)
(0,0,0)
(0,0,0)
(0,0,0)
(0,0,0)
(0,0,0)
(0,0,0)
(0,0,0)
(0,0,0)
(0,0,0)
(0,0,0)
(0,0,0)
(0,0,0)
(0,0,0)
(0,0,0)
(0,0,0)
(0,0,0)
(0,0,0)
(0,0,0)
(0,0,0)
(0,0,0)
(0,0,0)
(0,0,0)
(0,0,0)
(0,0,0)
(0,0,0)
(0,0,0)
(0,0,0)
(0,0,0)
(0,0,0)
(0,0,0)
(0,0,0)
(0,0,0)
(0,0,0)
(0,0,0)
(-1.43668538445412e-12,2.47002595880105e-11,-2.86203988224346e-11)
(-2.4594335525448e-12,5.29454662953497e-11,-2.73232017065677e-11)
(-3.26364781568681e-12,9.03848506918075e-11,-2.50594773853117e-11)
(-4.25892989145888e-12,1.42942785988504e-10,-2.14099618641117e-11)
(-3.94688356250456e-12,2.19164939499481e-10,-1.61838413565193e-11)
(-3.04150642531598e-12,3.36620940586635e-10,-1.03955158843465e-11)
(-3.16130801349384e-12,5.23643731359462e-10,-5.21222026402837e-12)
(-2.94118579626443e-12,8.39707320044634e-10,-2.09068844398583e-12)
(-3.79133159733488e-12,1.44222064740651e-09,-9.92091882592214e-13)
(-4.69121275244406e-12,2.82285027612562e-09,-4.43475376251616e-13)
(0,0,0)
(0,0,0)
(0,0,0)
(0,0,0)
(0,0,0)
(0,0,0)
(-1.86920065273589e-12,2.35813655272868e-11,-5.86450436171637e-11)
(-4.10317544101633e-12,5.04477212333074e-11,-5.64239113817224e-11)
(-5.95724467680872e-12,8.67484356431313e-11,-5.26894942656719e-11)
(-6.38842011643131e-12,1.37685383152541e-10,-4.61804931495362e-11)
(-5.42413527216913e-12,2.13286957366775e-10,-3.61582878173667e-11)
(-4.35998783862675e-12,3.31500836855132e-10,-2.37185191612311e-11)
(-4.88085974460004e-12,5.21091805404934e-10,-1.1886053405795e-11)
(-5.81406993004081e-12,8.4016133504309e-10,-5.48653185332618e-12)
(-7.69906697540207e-12,1.44385601446638e-09,-3.16494988024287e-12)
(-8.56319060846895e-12,2.82483902829947e-09,-1.82415215688925e-12)
(0,0,0)
(0,0,0)
(0,0,0)
(0,0,0)
(0,0,0)
(0,0,0)
(-1.61707330490036e-12,2.15613207993939e-11,-9.77857684363216e-11)
(-4.96734835343974e-12,4.64477001385844e-11,-9.50149784340461e-11)
(-7.66915170707614e-12,8.00554126609968e-11,-8.98006141109883e-11)
(-7.51007727564768e-12,1.27161831120186e-10,-8.0660380082377e-11)
(-5.01011426594348e-12,2.00343411395157e-10,-6.65296501228178e-11)
(-3.43514008983286e-12,3.19573297858443e-10,-4.7239681494712e-11)
(-4.53619558077836e-12,5.15567259833261e-10,-2.72070259134455e-11)
(-7.88319823339364e-12,8.40743707878366e-10,-1.67514558970787e-11)
(-1.06841370142897e-11,1.4466374505156e-09,-1.14919555103408e-11)
(-1.18538880440615e-11,2.82787741890734e-09,-6.38574576287699e-12)
(0,0,0)
(0,0,0)
(0,0,0)
(0,0,0)
(0,0,0)
(0,0,0)
(-1.7553256312534e-12,1.84954831324234e-11,-1.50547370588816e-10)
(-5.13238645591561e-12,4.03034445762111e-11,-1.47967140550851e-10)
(-6.9501754504888e-12,6.9653297687669e-11,-1.42246338085092e-10)
(-6.37078330952817e-12,1.11702586612138e-10,-1.31618570460841e-10)
(-2.86025974025322e-12,1.80066867967299e-10,-1.14821612893971e-10)
(-9.27915215804296e-13,2.98092383193813e-10,-9.12618790848197e-11)
(-3.20995471475363e-12,5.03518633116711e-10,-6.48371920345129e-11)
(-9.34436336419169e-12,8.39533223414776e-10,-4.82999718434217e-11)
(-1.2830431384899e-11,1.44744517704111e-09,-3.44801780254476e-11)
(-1.43234201745979e-11,2.8278240659872e-09,-1.84875744076241e-11)
(0,0,0)
(0,0,0)
(0,0,0)
(0,0,0)
(0,0,0)
(0,0,0)
(-1.24908331323228e-12,1.47020204662114e-11,-2.26216344571975e-10)
(-3.28819304452326e-12,3.26419827250414e-11,-2.23803131459648e-10)
(-3.67631676247235e-12,5.66418936177165e-11,-2.1847366378994e-10)
(-2.78034987075557e-12,9.18976410119272e-11,-2.08454714955773e-10)
(6.50043130410211e-13,1.52522291449553e-10,-1.93158780492059e-10)
(1.72795237391723e-12,2.64741385931293e-10,-1.73403193571085e-10)
(-5.77622624711328e-12,4.7737678578684e-10,-1.54722024959588e-10)
(-1.02524627370166e-11,8.31227587121346e-10,-1.20370330317358e-10)
(-1.30557839462664e-11,1.43890934058036e-09,-8.3756553007434e-11)
(-1.35039296905821e-11,2.815739439292e-09,-4.34858545245568e-11)
(0,0,0)
(0,0,0)
(0,0,0)
(0,0,0)
(0,0,0)
(0,0,0)
(-5.97034126319181e-14,1.12197531597074e-11,-3.42205456791477e-10)
(-5.01503143199814e-13,2.53786942880992e-11,-3.39586655153474e-10)
(4.54652176447272e-13,4.38833122409584e-11,-3.3486799106844e-10)
(1.58058661364677e-12,7.19659145781871e-11,-3.26568325679242e-10)
(4.46179773462609e-12,1.24401762388002e-10,-3.14026099633943e-10)
(4.38693779861436e-12,2.32260095046366e-10,-2.95538219368777e-10)
(-2.20061597191257e-12,4.55306511711243e-10,-2.70796388480769e-10)
(-6.50016804535943e-12,8.06735384979707e-10,-2.25272683008326e-10)
(-8.63597766113134e-12,1.40651363981714e-09,-1.61825824682087e-10)
(-8.41517739868864e-12,2.77741439080771e-09,-8.49811039232296e-11)
(0,0,0)
(0,0,0)
(0,0,0)
(0,0,0)
(0,0,0)
(0,0,0)
(1.0020323751319e-12,7.93682180803176e-12,-5.22624621515905e-10)
(1.88121075455557e-12,1.87446069392727e-11,-5.20644109006695e-10)
(3.77520610702898e-12,3.27088260514713e-11,-5.17291144000995e-10)
(5.1425723267679e-12,5.4886844591422e-11,-5.11704147708507e-10)
(5.52635357355958e-12,9.80947458526506e-11,-5.02895577140052e-10)
(1.77642529538044e-12,1.95129265084465e-10,-4.85962888464131e-10)
(2.69650699576449e-12,4.16741927064662e-10,-4.43398881222377e-10)
(8.50916428871054e-13,7.51732642399439e-10,-3.88361076001438e-10)
(-6.46623823722495e-13,1.33487198841552e-09,-2.87190923712762e-10)
(-9.0132870228073e-13,2.69558299985354e-09,-1.54634797120433e-10)
(0,0,0)
(0,0,0)
(0,0,0)
(0,0,0)
(0,0,0)
(0,0,0)
(1.45985717630222e-12,5.51061070239846e-12,-8.33382607823633e-10)
(3.2148467371365e-12,1.34851073877906e-11,-8.32030294195289e-10)
(6.26107045699032e-12,2.41740461178887e-11,-8.28940481394589e-10)
(8.71343336874966e-12,4.34527653297894e-11,-8.23564110164841e-10)
(9.69612078771732e-12,8.31399843200841e-11,-8.13674936774825e-10)
(9.03286460200752e-12,1.73320136702185e-10,-7.9436606300547e-10)
(9.83182260111973e-12,3.61371296007419e-10,-7.49483401353823e-10)
(9.57307391016008e-12,6.51598133741e-10,-6.57979089055816e-10)
(8.59589654819865e-12,1.20379437850855e-09,-5.06750710467766e-10)
(8.00770518821748e-12,2.54202575338327e-09,-2.87963416691179e-10)
(0,0,0)
(0,0,0)
(0,0,0)
(0,0,0)
(0,0,0)
(0,0,0)
(1.86495279468999e-12,4.07163981197414e-12,-1.43416762584718e-09)
(4.33392049528876e-12,9.30564636638504e-12,-1.43247409528738e-09)
(8.37604795106728e-12,1.68044151150748e-11,-1.42860008987081e-09)
(1.1949173656411e-11,3.19258278991453e-11,-1.4214784803479e-09)
(1.39494390952634e-11,6.40092042460507e-11,-1.40744470615574e-09)
(1.49052685283934e-11,1.33373313792834e-10,-1.3794411663934e-09)
(1.59355954274206e-11,2.68605064212382e-10,-1.31929141297501e-09)
(1.62750287179426e-11,4.99129042939014e-10,-1.19843953284995e-09)
(1.58969383949905e-11,9.84578013422351e-10,-9.84288109703035e-10)
(1.51017338267362e-11,2.25387840134563e-09,-6.14726987479779e-10)
(0,0,0)
(0,0,0)
(0,0,0)
(0,0,0)
(0,0,0)
(0,0,0)
(2.21320341418834e-12,2.14612664957941e-12,-2.81376219751801e-09)
(4.68372971783445e-12,4.7259382437814e-12,-2.81176055975162e-09)
(8.59566436446551e-12,8.65561450173121e-12,-2.80732803540925e-09)
(1.28149572029426e-11,1.70015562229721e-11,-2.79915190945241e-09)
(1.55997714297647e-11,3.50181671614231e-11,-2.78240105965513e-09)
(1.71262312438989e-11,7.29774940476494e-11,-2.74840060030258e-09)
(1.80193193313573e-11,1.46018615798314e-10,-2.6764644338849e-09)
(1.81897470957686e-11,2.83352376637365e-10,-2.53220106199432e-09)
(1.92174762054906e-11,6.13992475189841e-10,-2.25041237899554e-09)
(1.98305218624333e-11,1.63812967470575e-09,-1.63722815825776e-09)
(0,0,0)
(0,0,0)
(0,0,0)
(0,0,0)
(0,0,0)
(0,0,0)
(0,0,0)
(0,0,0)
(0,0,0)
(0,0,0)
(0,0,0)
(0,0,0)
(0,0,0)
(0,0,0)
(0,0,0)
(0,0,0)
(0,0,0)
(0,0,0)
(0,0,0)
(0,0,0)
(0,0,0)
(0,0,0)
(0,0,0)
(0,0,0)
(0,0,0)
(0,0,0)
(0,0,0)
(0,0,0)
(0,0,0)
(0,0,0)
(0,0,0)
(0,0,0)
(0,0,0)
(0,0,0)
(0,0,0)
(0,0,0)
(0,0,0)
(0,0,0)
(0,0,0)
(0,0,0)
(0,0,0)
(0,0,0)
(0,0,0)
(0,0,0)
(0,0,0)
(0,0,0)
(0,0,0)
(0,0,0)
(0,0,0)
(0,0,0)
(0,0,0)
(0,0,0)
(0,0,0)
(0,0,0)
(0,0,0)
(0,0,0)
(0,0,0)
(0,0,0)
(0,0,0)
(0,0,0)
(0,0,0)
(0,0,0)
(0,0,0)
(0,0,0)
(0,0,0)
(0,0,0)
(0,0,0)
(0,0,0)
(0,0,0)
(0,0,0)
(0,0,0)
(0,0,0)
(0,0,0)
(0,0,0)
(0,0,0)
(0,0,0)
(0,0,0)
(0,0,0)
(0,0,0)
(0,0,0)
(0,0,0)
(0,0,0)
(0,0,0)
(0,0,0)
(0,0,0)
(0,0,0)
(0,0,0)
(0,0,0)
(0,0,0)
(0,0,0)
(0,0,0)
(0,0,0)
(0,0,0)
(0,0,0)
(0,0,0)
(0,0,0)
(0,0,0)
(0,0,0)
(0,0,0)
(0,0,0)
(0,0,0)
(0,0,0)
(-1.61498843994868e-12,3.419142555911e-11,-3.80367880665498e-11)
(-2.22541281198285e-12,7.24677553069533e-11,-3.59476889292455e-11)
(-3.27674828724359e-12,1.21220569632181e-10,-3.23029205996655e-11)
(-4.22764756359134e-12,1.87772340375623e-10,-2.69962975129523e-11)
(-3.85722690172152e-12,2.81315784029045e-10,-1.90131705825164e-11)
(-3.10469831392782e-12,4.18937198307241e-10,-9.41968477800469e-12)
(-3.73091387967376e-12,6.20642952502046e-10,-3.70870952531188e-13)
(-4.49379735641287e-12,9.11246475130683e-10,3.64158541370825e-12)
(-5.97531516299672e-12,1.32336801654121e-09,3.71574234928455e-12)
(-7.12344030355417e-12,1.82479049189803e-09,2.19703832624255e-12)
(0,0,0)
(0,0,0)
(0,0,0)
(0,0,0)
(0,0,0)
(0,0,0)
(-2.0702881604402e-12,3.1812457541085e-11,-7.92434376592101e-11)
(-3.83757146262377e-12,6.81842487760233e-11,-7.54101607921184e-11)
(-5.77322281235979e-12,1.15141511706422e-10,-6.87442218950807e-11)
(-5.88707341569806e-12,1.79282459702429e-10,-5.84118244138695e-11)
(-4.92035795616964e-12,2.71814090466444e-10,-4.20002376240743e-11)
(-4.26491459778178e-12,4.10994475868122e-10,-1.98034234511263e-11)
(-5.75583572567822e-12,6.18477761253881e-10,2.1546444548814e-12)
(-8.7180247378069e-12,9.14105447430311e-10,8.8732481874097e-12)
(-1.1821300747553e-11,1.32747814308864e-09,6.79179323114549e-12)
(-1.34257333730213e-11,1.82910280521639e-09,3.02669730997929e-12)
(0,0,0)
(0,0,0)
(0,0,0)
(0,0,0)
(0,0,0)
(0,0,0)
(-1.32202564177985e-12,2.81769888877244e-11,-1.3064290149618e-10)
(-4.03745711325497e-12,6.11969763459774e-11,-1.2585003770943e-10)
(-6.40727076190508e-12,1.03867056100572e-10,-1.16805607849932e-10)
(-6.18156272755067e-12,1.62185172997744e-10,-1.01315125536359e-10)
(-4.02353946659402e-12,2.50315306218282e-10,-7.66107898988774e-11)
(-1.98688100638226e-12,3.91431762261202e-10,-3.95730269397783e-11)
(-2.94313888064707e-12,6.15125177155677e-10,2.47468148008921e-12)
(-1.19322141564999e-11,9.22204068606018e-10,8.64782397538509e-12)
(-1.6598073286299e-11,1.33666380018788e-09,2.74243234666812e-12)
(-1.81862808874363e-11,1.83674640498015e-09,-6.72571933301258e-13)
(0,0,0)
(0,0,0)
(0,0,0)
(0,0,0)
(0,0,0)
(0,0,0)
(-5.42093003458446e-13,2.39357955027384e-11,-1.99332562680186e-10)
(-3.19172706968988e-12,5.19044712730764e-11,-1.94353474881978e-10)
(-4.56653900544327e-12,8.7264768718947e-11,-1.84218818075793e-10)
(-3.36279527733412e-12,1.36442576936789e-10,-1.6590107304892e-10)
(1.12458296862274e-12,2.13945373706882e-10,-1.36131968365945e-10)
(5.99839499744124e-12,3.50687732616774e-10,-8.82695247033725e-11)
(6.39467242408255e-12,6.06055343297794e-10,-2.24270180452879e-11)
(-1.48585208889909e-11,9.38279611365009e-10,-2.02746273421628e-11)
(-2.02871985410604e-11,1.34929585742009e-09,-2.28404406061881e-11)
(-2.07263678884424e-11,1.8433238726229e-09,-1.52039926195487e-11)
(0,0,0)
(0,0,0)
(0,0,0)
(0,0,0)
(0,0,0)
(0,0,0)
(-1.8002911966178e-13,1.89653569328226e-11,-2.92893993350732e-10)
(-1.35437227641708e-12,4.06857651684563e-11,-2.88431223209562e-10)
(-9.3668422128783e-13,6.70829500487094e-11,-2.79277421024968e-10)
(1.85544209933385e-12,1.03932815669532e-10,-2.6279314181221e-10)
(9.01498527261839e-12,1.62376670561969e-10,-2.37516677827482e-10)
(1.55280746462633e-11,2.72475297883496e-10,-2.05515963046143e-10)
(-1.80576468147771e-11,5.36629297148647e-10,-2.11267477307226e-10)
(-2.23740379055591e-11,9.55414313145608e-10,-1.3970585347752e-10)
(-2.0930781664204e-11,1.35498972688567e-09,-9.48235666946573e-11)
(-1.86647357312532e-11,1.83699748491028e-09,-4.97731573887629e-11)
(0,0,0)
(0,0,0)
(0,0,0)
(0,0,0)
(0,0,0)
(0,0,0)
(6.04426301254328e-13,1.41850798450636e-11,-4.26650702628069e-10)
(1.41392012033939e-12,2.99531327989686e-11,-4.22894138185402e-10)
(3.3294729769733e-12,4.77364572583026e-11,-4.15683639433919e-10)
(6.11743055613822e-12,7.20681713521012e-11,-4.03638904890245e-10)
(1.22809340042285e-11,1.12975616192698e-10,-3.86390246866137e-10)
(1.67759368720304e-11,2.12509655009192e-10,-3.62555274444612e-10)
(-9.1597367966467e-12,5.38390694836892e-10,-3.56748956475621e-10)
(-1.49442837922067e-11,9.43161627556804e-10,-2.85100290484058e-10)
(-1.38390470177132e-11,1.3247346753359e-09,-1.99097300573557e-10)
(-1.15648903682708e-11,1.79540550836262e-09,-1.02944177332354e-10)
(0,0,0)
(0,0,0)
(0,0,0)
(0,0,0)
(0,0,0)
(0,0,0)
(1.44773097326952e-12,9.81962106598515e-12,-6.17847785090216e-10)
(3.7877452983839e-12,2.06728611192845e-11,-6.152345784163e-10)
(6.72298974835334e-12,3.1882561468039e-11,-6.1090440510665e-10)
(7.76808102009216e-12,4.59101525697633e-11,-6.05915604559333e-10)
(3.54842643020867e-12,6.63601655368684e-11,-6.04130934845152e-10)
(-1.89784535637114e-11,1.27759440280779e-10,-6.06593299444083e-10)
(3.02933283183866e-12,4.97458676703033e-10,-5.18516788746086e-10)
(-1.84727202289398e-13,8.80992135883852e-10,-5.03074758161632e-10)
(-2.12514050844837e-12,1.23872572430529e-09,-3.50642807938242e-10)
(-1.97887935255117e-12,1.69759409821977e-09,-1.80487776220141e-10)
(0,0,0)
(0,0,0)
(0,0,0)
(0,0,0)
(0,0,0)
(0,0,0)
(1.54651443940388e-12,6.58944747117176e-12,-8.99140270870321e-10)
(4.30449495796272e-12,1.42676779667499e-11,-8.97485708543452e-10)
(8.25433022927542e-12,2.29178766554019e-11,-8.94399052679639e-10)
(1.03511974102142e-11,3.7279659224769e-11,-8.91035684782202e-10)
(9.51802709179173e-12,6.80574025139225e-11,-8.89667844488783e-10)
(4.09702585990612e-12,1.64498424936612e-10,-8.90537198510032e-10)
(1.10937420977036e-11,4.52913509847419e-10,-8.63545099739156e-10)
(1.08137861236061e-11,7.27715171717477e-10,-7.36561261826221e-10)
(9.02496785757848e-12,1.06978289577081e-09,-5.37122076248912e-10)
(8.19164053548628e-12,1.51755731428162e-09,-2.89442045450338e-10)
(0,0,0)
(0,0,0)
(0,0,0)
(0,0,0)
(0,0,0)
(0,0,0)
(2.09693539657075e-12,4.5393046529729e-12,-1.30690315534219e-09)
(5.03962320103845e-12,9.35659778172489e-12,-1.30490392935217e-09)
(9.40323904268212e-12,1.62299511888882e-11,-1.30123636185197e-09)
(1.28396711399511e-11,3.0554771870545e-11,-1.29554851223128e-09)
(1.49369364180574e-11,6.24472568556329e-11,-1.28592369224325e-09)
(1.51513348551445e-11,1.43848693893237e-10,-1.26562670282797e-09)
(1.76701637168381e-11,3.17630686011146e-10,-1.20745412000556e-09)
(1.79002718710308e-11,5.25250042644464e-10,-1.06001908549415e-09)
(1.69213544055837e-11,8.2057891760515e-10,-8.19992463196101e-10)
(1.612347298642e-11,1.22635989233751e-09,-4.70527405925567e-10)
(0,0,0)
(0,0,0)
(0,0,0)
(0,0,0)
(0,0,0)
(0,0,0)
(2.35769229614442e-12,2.32841451118256e-12,-1.80548712427898e-09)
(4.97714361931211e-12,4.40366445900276e-12,-1.80323443092622e-09)
(9.07515290947601e-12,8.44505910149787e-12,-1.79955861833709e-09)
(1.30656636289156e-11,1.76186219360127e-11,-1.79240552289598e-09)
(1.6617479238775e-11,3.71435230928688e-11,-1.77674009920905e-09)
(1.81675588729656e-11,8.16722278426344e-11,-1.74279373035838e-09)
(1.97745632397679e-11,1.65923259029684e-10,-1.66458285159346e-09)