/*--------------------------------*- C++ -*----------------------------------*\
| =========                 |                                                 |
| \\      /  F ield         | foam-extend: Open Source CFD                    |
|  \\    /   O peration     | Version:     4.0                                |
|   \\  /    A nd           | Web:         http://www.foam-extend.org         |
|    \\/     M anipulation  |                                                 |
\*---------------------------------------------------------------------------*/
FoamFile
{
    version 2.0;
    format ascii;
    class volVectorField;
    location "3555";
    object      E;
}
// * * * * * * * * * * * * * * * * * * * * * * * * * * * * * * * * * * * * * //

dimensions      [0 1 -1 0 0 0 0];

internalField   nonuniform List<vector>
4096
(
(0,0,0)
(0,0,0)
(0,0,0)
(0,0,0)
(0,0,0)
(0,0,0)
(0,0,0)
(0,0,0)
(0,0,0)
(0,0,0)
(0,0,0)
(0,0,0)
(0,0,0)
(0,0,0)
(0,0,0)
(0,0,0)
(0,0,0)
(0,0,0)
(0,0,0)
(0,0,0)
(0,0,0)
(0,0,0)
(0,0,0)
(0,0,0)
(0,0,0)
(0,0,0)
(0,0,0)
(0,0,0)
(0,0,0)
(0,0,0)
(0,0,0)
(0,0,0)
(0,0,0)
(0,0,0)
(0,0,0)
(0,0,0)
(0,0,0)
(0,0,0)
(0,0,0)
(0,0,0)
(0,0,0)
(0,0,0)
(0,0,0)
(0,0,0)
(0,0,0)
(0,0,0)
(0,0,0)
(0,0,0)
(0,0,0)
(0,0,0)
(0,0,0)
(0,0,0)
(0,0,0)
(0,0,0)
(0,0,0)
(0,0,0)
(0,0,0)
(0,0,0)
(0,0,0)
(0,0,0)
(0,0,0)
(0,0,0)
(0,0,0)
(0,0,0)
(0,0,0)
(0,0,0)
(0,0,0)
(0,0,0)
(0,0,0)
(0,0,0)
(0,0,0)
(0,0,0)
(0,0,0)
(0,0,0)
(0,0,0)
(0,0,0)
(0,0,0)
(0,0,0)
(0,0,0)
(0,0,0)
(0,0,0)
(0,0,0)
(0,0,0)
(0,0,0)
(0,0,0)
(0,0,0)
(0,0,0)
(0,0,0)
(0,0,0)
(0,0,0)
(0,0,0)
(0,0,0)
(0,0,0)
(0,0,0)
(0,0,0)
(0,0,0)
(0,0,0)
(0,0,0)
(0,0,0)
(0,0,0)
(0,0,0)
(0,0,0)
(0,0,0)
(0,0,0)
(0,0,0)
(0,0,0)
(0,0,0)
(0,0,0)
(0,0,0)
(0,0,0)
(0,0,0)
(0,0,0)
(0,0,0)
(0,0,0)
(0,0,0)
(0,0,0)
(0,0,0)
(0,0,0)
(0,0,0)
(0,0,0)
(0,0,0)
(0,0,0)
(0,0,0)
(0,0,0)
(0,0,0)
(0,0,0)
(0,0,0)
(0,0,0)
(0,0,0)
(0,0,0)
(0,0,0)
(0,0,0)
(0,0,0)
(0,0,0)
(0,0,0)
(0,0,0)
(0,0,0)
(0,0,0)
(0,0,0)
(0,0,0)
(0,0,0)
(0,0,0)
(0,0,0)
(0,0,0)
(0,0,0)
(0,0,0)
(0,0,0)
(0,0,0)
(0,0,0)
(0,0,0)
(0,0,0)
(0,0,0)
(0,0,0)
(0,0,0)
(0,0,0)
(0,0,0)
(0,0,0)
(0,0,0)
(0,0,0)
(0,0,0)
(0,0,0)
(0,0,0)
(0,0,0)
(0,0,0)
(0,0,0)
(0,0,0)
(0,0,0)
(0,0,0)
(0,0,0)
(0,0,0)
(0,0,0)
(0,0,0)
(0,0,0)
(0,0,0)
(0,0,0)
(0,0,0)
(0,0,0)
(0,0,0)
(0,0,0)
(0,0,0)
(0,0,0)
(0,0,0)
(0,0,0)
(0,0,0)
(0,0,0)
(0,0,0)
(0,0,0)
(0,0,0)
(0,0,0)
(0,0,0)
(0,0,0)
(0,0,0)
(0,0,0)
(0,0,0)
(0,0,0)
(0,0,0)
(0,0,0)
(0,0,0)
(0,0,0)
(0,0,0)
(0,0,0)
(0,0,0)
(0,0,0)
(0,0,0)
(0,0,0)
(0,0,0)
(0,0,0)
(0,0,0)
(0,0,0)
(0,0,0)
(0,0,0)
(0,0,0)
(0,0,0)
(0,0,0)
(0,0,0)
(0,0,0)
(0,0,0)
(0,0,0)
(0,0,0)
(0,0,0)
(0,0,0)
(0,0,0)
(0,0,0)
(0,0,0)
(0,0,0)
(0,0,0)
(0,0,0)
(0,0,0)
(0,0,0)
(0,0,0)
(0,0,0)
(0,0,0)
(0,0,0)
(0,0,0)
(0,0,0)
(0,0,0)
(0,0,0)
(0,0,0)
(0,0,0)
(0,0,0)
(0,0,0)
(0,0,0)
(0,0,0)
(0,0,0)
(0,0,0)
(0,0,0)
(0,0,0)
(0,0,0)
(0,0,0)
(0,0,0)
(0,0,0)
(0,0,0)
(0,0,0)
(0,0,0)
(0,0,0)
(0,0,0)
(0,0,0)
(0,0,0)
(0,0,0)
(0,0,0)
(0,0,0)
(0,0,0)
(0,0,0)
(0,0,0)
(0,0,0)
(0,0,0)
(0,0,0)
(0,0,0)
(0,0,0)
(0,0,0)
(0,0,0)
(0,0,0)
(0,0,0)
(0,0,0)
(0,0,0)
(0,0,0)
(0,0,0)
(0,0,0)
(0,0,0)
(0,0,0)
(0,0,0)
(0,0,0)
(0,0,0)
(0,0,0)
(0,0,0)
(0,0,0)
(0,0,0)
(0,0,0)
(0,0,0)
(0,0,0)
(0,0,0)
(0,0,0)
(0,0,0)
(0,0,0)
(0,0,0)
(0,0,0)
(0,0,0)
(0,0,0)
(0,0,0)
(0,0,0)
(0,0,0)
(0,0,0)
(0,0,0)
(0,0,0)
(0,0,0)
(0,0,0)
(0,0,0)
(0,0,0)
(0,0,0)
(0,0,0)
(0,0,0)
(0,0,0)
(0,0,0)
(0,0,0)
(0,0,0)
(0,0,0)
(0,0,0)
(0,0,0)
(0,0,0)
(0,0,0)
(0,0,0)
(0,0,0)
(0,0,0)
(0,0,0)
(0,0,0)
(0,0,0)
(0,0,0)
(0,0,0)
(0,0,0)
(0,0,0)
(0,0,0)
(0,0,0)
(0,0,0)
(0,0,0)
(0,0,0)
(0,0,0)
(0,0,0)
(0,0,0)
(0,0,0)
(0,0,0)
(0,0,0)
(0,0,0)
(0,0,0)
(0,0,0)
(0,0,0)
(0,0,0)
(0,0,0)
(0,0,0)
(0,0,0)
(0,0,0)
(0,0,0)
(0,0,0)
(0,0,0)
(0,0,0)
(0,0,0)
(0,0,0)
(0,0,0)
(0,0,0)
(0,0,0)
(0,0,0)
(0,0,0)
(0,0,0)
(0,0,0)
(0,0,0)
(0,0,0)
(0,0,0)
(0,0,0)
(0,0,0)
(0,0,0)
(0,0,0)
(0,0,0)
(0,0,0)
(0,0,0)
(0,0,0)
(0,0,0)
(0,0,0)
(0,0,0)
(0,0,0)
(0,0,0)
(0,0,0)
(0,0,0)
(0,0,0)
(0,0,0)
(0,0,0)
(0,0,0)
(0,0,0)
(0,0,0)
(0,0,0)
(0,0,0)
(0,0,0)
(0,0,0)
(0,0,0)
(0,0,0)
(0,0,0)
(0,0,0)
(0,0,0)
(0,0,0)
(0,0,0)
(0,0,0)
(0,0,0)
(0,0,0)
(0,0,0)
(0,0,0)
(0,0,0)
(0,0,0)
(0,0,0)
(0,0,0)
(0,0,0)
(0,0,0)
(0,0,0)
(0,0,0)
(0,0,0)
(0,0,0)
(0,0,0)
(0,0,0)
(0,0,0)
(0,0,0)
(0,0,0)
(0,0,0)
(0,0,0)
(0,0,0)
(0,0,0)
(0,0,0)
(0,0,0)
(0,0,0)
(0,0,0)
(0,0,0)
(0,0,0)
(0,0,0)
(0,0,0)
(0,0,0)
(0,0,0)
(0,0,0)
(0,0,0)
(0,0,0)
(0,0,0)
(0,0,0)
(0,0,0)
(0,0,0)
(0,0,0)
(0,0,0)
(0,0,0)
(0,0,0)
(0,0,0)
(0,0,0)
(0,0,0)
(0,0,0)
(0,0,0)
(0,0,0)
(0,0,0)
(0,0,0)
(0,0,0)
(0,0,0)
(0,0,0)
(0,0,0)
(0,0,0)
(0,0,0)
(0,0,0)
(0,0,0)
(0,0,0)
(0,0,0)
(0,0,0)
(0,0,0)
(0,0,0)
(0,0,0)
(0,0,0)
(0,0,0)
(0,0,0)
(0,0,0)
(0,0,0)
(0,0,0)
(0,0,0)
(0,0,0)
(0,0,0)
(0,0,0)
(0,0,0)
(0,0,0)
(0,0,0)
(0,0,0)
(0,0,0)
(0,0,0)
(0,0,0)
(0,0,0)
(0,0,0)
(0,0,0)
(0,0,0)
(0,0,0)
(0,0,0)
(0,0,0)
(0,0,0)
(0,0,0)
(0,0,0)
(0,0,0)
(0,0,0)
(0,0,0)
(0,0,0)
(0,0,0)
(0,0,0)
(0,0,0)
(0,0,0)
(0,0,0)
(0,0,0)
(0,0,0)
(0,0,0)
(0,0,0)
(0,0,0)
(0,0,0)
(0,0,0)
(0,0,0)
(0,0,0)
(0,0,0)
(0,0,0)
(0,0,0)
(0,0,0)
(0,0,0)
(0,0,0)
(0,0,0)
(0,0,0)
(0,0,0)
(0,0,0)
(0,0,0)
(0,0,0)
(0,0,0)
(0,0,0)
(0,0,0)
(0,0,0)
(0,0,0)
(0,0,0)
(0,0,0)
(0,0,0)
(0,0,0)
(0,0,0)
(0,0,0)
(0,0,0)
(0,0,0)
(0,0,0)
(0,0,0)
(0,0,0)
(0,0,0)
(0,0,0)
(0,0,0)
(0,0,0)
(0,0,0)
(0,0,0)
(0,0,0)
(0,0,0)
(0,0,0)
(0,0,0)
(0,0,0)
(0,0,0)
(0,0,0)
(0,0,0)
(0,0,0)
(0,0,0)
(0,0,0)
(0,0,0)
(0,0,0)
(0,0,0)
(0,0,0)
(0,0,0)
(0,0,0)
(0,0,0)
(0,0,0)
(0,0,0)
(0,0,0)
(0,0,0)
(0,0,0)
(0,0,0)
(0,0,0)
(0,0,0)
(0,0,0)
(0,0,0)
(0,0,0)
(0,0,0)
(0,0,0)
(0,0,0)
(0,0,0)
(0,0,0)
(0,0,0)
(0,0,0)
(0,0,0)
(0,0,0)
(0,0,0)
(0,0,0)
(0,0,0)
(0,0,0)
(0,0,0)
(0,0,0)
(0,0,0)
(0,0,0)
(0,0,0)
(0,0,0)
(0,0,0)
(0,0,0)
(0,0,0)
(0,0,0)
(0,0,0)
(0,0,0)
(0,0,0)
(0,0,0)
(0,0,0)
(0,0,0)
(0,0,0)
(0,0,0)
(0,0,0)
(0,0,0)
(0,0,0)
(0,0,0)
(0,0,0)
(0,0,0)
(0,0,0)
(0,0,0)
(0,0,0)
(0,0,0)
(0,0,0)
(0,0,0)
(0,0,0)
(0,0,0)
(0,0,0)
(0,0,0)
(0,0,0)
(0,0,0)
(0,0,0)
(0,0,0)
(0,0,0)
(0,0,0)
(0,0,0)
(0,0,0)
(0,0,0)
(0,0,0)
(0,0,0)
(0,0,0)
(0,0,0)
(0,0,0)
(0,0,0)
(0,0,0)
(0,0,0)
(0,0,0)
(0,0,0)
(0,0,0)
(0,0,0)
(0,0,0)
(0,0,0)
(0,0,0)
(0,0,0)
(0,0,0)
(0,0,0)
(0,0,0)
(0,0,0)
(0,0,0)
(0,0,0)
(0,0,0)
(0,0,0)
(0,0,0)
(0,0,0)
(0,0,0)
(0,0,0)
(0,0,0)
(0,0,0)
(0,0,0)
(0,0,0)
(0,0,0)
(0,0,0)
(0,0,0)
(0,0,0)
(0,0,0)
(0,0,0)
(0,0,0)
(0,0,0)
(0,0,0)
(0,0,0)
(0,0,0)
(0,0,0)
(0,0,0)
(0,0,0)
(0,0,0)
(0,0,0)
(0,0,0)
(0,0,0)
(0,0,0)
(0,0,0)
(0,0,0)
(0,0,0)
(0,0,0)
(0,0,0)
(0,0,0)
(0,0,0)
(0,0,0)
(0,0,0)
(0,0,0)
(0,0,0)
(0,0,0)
(0,0,0)
(0,0,0)
(0,0,0)
(0,0,0)
(0,0,0)
(0,0,0)
(0,0,0)
(0,0,0)
(0,0,0)
(0,0,0)
(0,0,0)
(0,0,0)
(0,0,0)
(0,0,0)
(0,0,0)
(0,0,0)
(0,0,0)
(0,0,0)
(0,0,0)
(0,0,0)
(0,0,0)
(0,0,0)
(0,0,0)
(0,0,0)
(0,0,0)
(0,0,0)
(0,0,0)
(0,0,0)
(0,0,0)
(0,0,0)
(0,0,0)
(0,0,0)
(0,0,0)
(0,0,0)
(0,0,0)
(0,0,0)
(0,0,0)
(0,0,0)
(0,0,0)
(0,0,0)
(0,0,0)
(0,0,0)
(0,0,0)
(0,0,0)
(0,0,0)
(0,0,0)
(0,0,0)
(0,0,0)
(0,0,0)
(0,0,0)
(0,0,0)
(0,0,0)
(0,0,0)
(0,0,0)
(0,0,0)
(0,0,0)
(0,0,0)
(0,0,0)
(0,0,0)
(0,0,0)
(0,0,0)
(0,0,0)
(0,0,0)
(0,0,0)
(0,0,0)
(0,0,0)
(0,0,0)
(0,0,0)
(0,0,0)
(0,0,0)
(0,0,0)
(0,0,0)
(0,0,0)
(0,0,0)
(0,0,0)
(0,0,0)
(0,0,0)
(0,0,0)
(0,0,0)
(0,0,0)
(0,0,0)
(0,0,0)
(0,0,0)
(0,0,0)
(0,0,0)
(0,0,0)
(0,0,0)
(0,0,0)
(0,0,0)
(0,0,0)
(0,0,0)
(0,0,0)
(0,0,0)
(0,0,0)
(0,0,0)
(0,0,0)
(0,0,0)
(0,0,0)
(0,0,0)
(0,0,0)
(0,0,0)
(0,0,0)
(0,0,0)
(0,0,0)
(0,0,0)
(0,0,0)
(0,0,0)
(0,0,0)
(0,0,0)
(0,0,0)
(0,0,0)
(0,0,0)
(0,0,0)
(0,0,0)
(0,0,0)
(0,0,0)
(0,0,0)
(0,0,0)
(0,0,0)
(0,0,0)
(0,0,0)
(0,0,0)
(0,0,0)
(0,0,0)
(0,0,0)
(0,0,0)
(0,0,0)
(-208086.394247594,110464.853400607,97621.5408469859)
(-220135.566385357,105943.984677228,211813.122555113)
(-247921.794078506,96456.2858547848,363278.630778831)
(-300410.157972675,81522.4234067673,582166.36534475)
(-395130.97867256,61414.7046150541,915882.639402255)
(-565100.868208994,38281.7731695446,1442701.73444171)
(-872856.862668059,17251.8908670178,2298306.70624277)
(-1429005.85080403,4385.95422237542,3722926.60282444)
(-2357008.58638182,82.1475240924991,6079853.04168212)
(-3284057.59543147,-308.448018839199,9364219.08513251)
(0,0,0)
(0,0,0)
(0,0,0)
(0,0,0)
(0,0,0)
(0,0,0)
(-220144.697793793,237554.602292126,93054.9489022736)
(-232266.003564151,229018.291386553,202246.645757101)
(-260491.432862248,210932.023416021,348262.341058109)
(-314227.499737038,182101.954133823,561910.310068091)
(-411573.926531771,142288.291229266,892610.649985649)
(-585624.446348825,94959.9427904405,1421556.92671357)
(-896767.875371893,50201.2315386295,2285375.46141385)
(-1450813.1704596,21903.7353819187,3718670.85071385)
(-2371549.64680064,10766.4412384145,6079536.20380023)
(-3290856.76131265,5500.18755155106,9364584.32954239)
(0,0,0)
(0,0,0)
(0,0,0)
(0,0,0)
(0,0,0)
(0,0,0)
(-247654.282902449,400833.983704903,84374.9014896712)
(-259976.165674379,389327.812193096,184041.546357512)
(-289122.102343552,364811.891063585,319283.781053506)
(-345551.711668859,325022.900866231,521914.545989956)
(-449112.088865292,268262.101860282,845052.824224219)
(-633948.037654255,197393.706417933,1376567.09825099)
(-955782.644891343,125658.761761064,2256892.21291991)
(-1505156.70822367,76438.6022375372,3707514.05428791)
(-2406539.42572958,50455.5775464166,6074364.34370955)
(-3306717.97646542,27378.3883728481,9359204.11935371)
(0,0,0)
(0,0,0)
(0,0,0)
(0,0,0)
(0,0,0)
(0,0,0)
(-298915.663560593,626969.342092823,72780.3051726741)
(-311457.663790892,614100.492145462,159465.289011202)
(-341739.347919636,586627.888223339,279388.639771077)
(-402046.202856561,541437.586644627,465020.156849232)
(-515844.125209958,475211.811272881,773914.572646604)
(-721394.018719055,388189.48058489,1304512.81719869)
(-1068755.35159123,291539.771303286,2207387.15924769)
(-1610218.72523513,212680.834442673,3681363.65227766)
(-2470615.60281193,151208.957402887,6051225.87523305)
(-3334660.88668339,81390.7966966131,9331874.35359288)
(0,0,0)
(0,0,0)
(0,0,0)
(0,0,0)
(0,0,0)
(0,0,0)
(-390760.728312039,957846.594521952,59883.4758829041)
(-403274.533661296,945340.774985332,131917.726704326)
(-434152.200780192,918632.684951425,234065.130756431)
(-497711.654128435,874573.844035385,398640.52749411)
(-622075.69381974,809269.233468557,686658.799118173)
(-853273.674778279,720512.123900311,1207609.83058101)
(-1240789.4334613,611694.73136063,2128244.30398497)
(-1770138.25092512,491421.611086732,3619641.77826606)
(-2563693.68590047,353310.465230362,5981233.95633915)
(-3375024.79597507,187264.132486161,9250385.41652468)
(0,0,0)
(0,0,0)
(0,0,0)
(0,0,0)
(0,0,0)
(0,0,0)
(-556574.078922544,1467082.59224794,47338.0811965671)
(-568455.446971201,1455965.16509337,105169.138059727)
(-598314.185150613,1432170.37587037,189945.632291393)
(-661241.597985896,1392482.07999987,333278.994312798)
(-786886.972691702,1331657.24706949,597777.953403583)
(-1022443.4381273,1242083.99125053,1098649.52418068)
(-1411104.42473363,1113746.77730441,2007701.90297053)
(-1916410.5330364,934279.461584081,3481254.5855096)
(-2664520.00790781,684109.723987423,5814975.33466038)
(-3425814.51619484,365191.554086296,9062862.42925505)
(0,0,0)
(0,0,0)
(0,0,0)
(0,0,0)
(0,0,0)
(0,0,0)
(-860881.780792776,2291798.27894351,36166.0940971991)
(-871401.978600554,2282183.43019636,81349.8075947751)
(-898187.282461477,2261447.42046329,150260.045463337)
(-955652.458946296,2225960.46642873,272434.117980763)
(-1072344.06031792,2168296.21659693,508139.208771233)
(-1293642.68929133,2073616.32470385,970249.564609252)
(-1658356.34100096,1914304.96242108,1828047.72049355)
(-2117849.29174434,1649323.58608202,3230852.88773994)
(-2814868.9553546,1234028.40170705,5495803.16537488)
(-3508747.18655171,672363.856690489,8697378.04932248)
(0,0,0)
(0,0,0)
(0,0,0)
(0,0,0)
(0,0,0)
(0,0,0)
(-1417354.1358399,3682604.66767624,26547.7471071581)
(-1425770.81707417,3673882.43630586,60619.5580718283)
(-1447367.08677685,3654597.79016441,114836.275147585)
(-1494103.37396002,3620076.63982036,214823.475715959)
(-1589973.87083809,3559664.92151498,413428.641636007)
(-1773901.16182329,3449975.69185692,810970.436306198)
(-2079313.11139471,3241555.31405456,1563033.19606737)
(-2451342.37551812,2848144.0638638,2815555.09380374)
(-3087894.69165214,2203432.48695925,4934045.70020366)
(-3667387.5129305,1248949.37820359,8024847.69162103)
(0,0,0)
(0,0,0)
(0,0,0)
(0,0,0)
(0,0,0)
(0,0,0)
(-2349089.56585294,6013880.78101819,17813.4525109891)
(-2354830.41024909,6005178.93430953,41347.3647563922)
(-2369508.87072102,5985066.42118484,80387.6044569301)
(-2400943.53299111,5946817.13529305,154590.641975335)
(-2464244.724466,5874596.4920083,303903.795948037)
(-2583253.40538722,5734358.65378475,602774.239407447)
(-2783177.35415698,5457780.78540631,1169726.12221269)
(-3080325.89946973,4927276.71225951,2170919.37328674)
(-3591401.32426074,3986250.97366699,3979502.21083962)
(-3944056.06651007,2396765.8031973,6775741.85235599)
(0,0,0)
(0,0,0)
(0,0,0)
(0,0,0)
(0,0,0)
(0,0,0)
(-3280396.95252259,9285239.33091024,9038.40263053737)
(-3283284.88831022,9276212.90710784,21289.3181424318)
(-3290587.95012102,9254775.69228367,42167.9971646337)
(-3306045.68709771,9212556.55211803,82474.267437439)
(-3336684.66852127,9129901.95650404,163853.471462973)
(-3393995.31404188,8965734.57905032,326472.860239222)
(-3494049.40407126,8638937.10515979,639365.944556973)
(-3662688.49914826,7999364.6346505,1229966.52131421)
(-3943132.92619799,6769261.53617135,2390088.88500778)
(-3971143.83079421,4379029.1152526,4378969.40374674)
(0,0,0)
(0,0,0)
(0,0,0)
(0,0,0)
(0,0,0)
(0,0,0)
(0,0,0)
(0,0,0)
(0,0,0)
(0,0,0)
(0,0,0)
(0,0,0)
(0,0,0)
(0,0,0)
(0,0,0)
(0,0,0)
(0,0,0)
(0,0,0)
(0,0,0)
(0,0,0)
(0,0,0)
(0,0,0)
(0,0,0)
(0,0,0)
(0,0,0)
(0,0,0)
(0,0,0)
(0,0,0)
(0,0,0)
(0,0,0)
(0,0,0)
(0,0,0)
(0,0,0)
(0,0,0)
(0,0,0)
(0,0,0)
(0,0,0)
(0,0,0)
(0,0,0)
(0,0,0)
(0,0,0)
(0,0,0)
(0,0,0)
(0,0,0)
(0,0,0)
(0,0,0)
(0,0,0)
(0,0,0)
(0,0,0)
(0,0,0)
(0,0,0)
(0,0,0)
(0,0,0)
(0,0,0)
(0,0,0)
(0,0,0)
(0,0,0)
(0,0,0)
(0,0,0)
(0,0,0)
(0,0,0)
(0,0,0)
(0,0,0)
(0,0,0)
(0,0,0)
(0,0,0)
(0,0,0)
(0,0,0)
(0,0,0)
(0,0,0)
(0,0,0)
(0,0,0)
(0,0,0)
(0,0,0)
(0,0,0)
(0,0,0)
(0,0,0)
(0,0,0)
(0,0,0)
(0,0,0)
(0,0,0)
(0,0,0)
(0,0,0)
(0,0,0)
(0,0,0)
(0,0,0)
(0,0,0)
(0,0,0)
(0,0,0)
(0,0,0)
(0,0,0)
(0,0,0)
(0,0,0)
(0,0,0)
(0,0,0)
(0,0,0)
(0,0,0)
(0,0,0)
(0,0,0)
(0,0,0)
(0,0,0)
(0,0,0)
(30799034.4980408,98434.8092575301,85595.4410806333)
(30778858.9270499,93763.6711942018,183988.419077831)
(30732662.7348374,83830.1606359986,310724.872152359)
(30646357.9124688,67694.8562911875,487413.088046171)
(30492600.4247128,44987.1415429414,745845.685744346)
(30219227.382069,17769.6240200918,1134898.95407267)
(29717729.9400209,-6654.0757667249,1742117.36977674)
(28726765.8694737,-17390.3119670339,2794887.10409247)
(26490830.6847162,-14401.8514663123,5152600.82708735)
(20418859.7755672,-7055.58168588837,12647890.1804012)
(0,0,0)
(0,0,0)
(0,0,0)
(0,0,0)
(0,0,0)
(0,0,0)
(30778463.4942699,210050.700743424,80927.0590769243)
(30758321.7388698,201260.592989614,173993.537474056)
(30711712.0434074,182301.876456967,294469.488010002)
(30623743.3051038,150825.091758239,464519.590328624)
(30465771.5431618,104822.125446637,718490.279357931)
(30184721.4186764,46698.3624850063,1110366.81849431)
(29675563.0707444,-8763.79609503095,1731296.73533299)
(28688729.8105294,-32362.8518654285,2797877.43686881)
(26467210.5557453,-24147.5389646244,5160014.06444753)
(20408525.1364888,-10301.2088885314,12655028.9364751)
(0,0,0)
(0,0,0)
(0,0,0)
(0,0,0)
(0,0,0)
(0,0,0)
(30731900.6379005,349584.615158576,72062.3074082609)
(30711732.419294,337838.114242258,154927.343813688)
(30664210.0203388,312216.835695165,262831.404519741)
(30572386.2604497,268545.353587808,418324.313198294)
(30403471.191836,201555.976780836,660158.323789338)
(30099389.3749302,109982.728017065,1054687.68829945)
(29561093.8732298,12714.9477480161,1707483.56896179)
(28583668.6844519,-28578.2639477637,2806024.73099515)
(26406130.56816,-13582.753843429,5173941.09461077)
(20383177.3637717,-553.502203050316,12665449.1903147)
(0,0,0)
(0,0,0)
(0,0,0)
(0,0,0)
(0,0,0)
(0,0,0)
(30646433.0159687,535121.511706121,60265.5665495998)
(30626272.5025608,522289.789146169,129234.867920532)
(30577584.4170954,494223.809350218,219055.271876914)
(30479766.4430912,445759.922513946,351179.199629529)
(30290745.304176,368975.698392707,568321.191258222)
(29934615.5151804,256328.817696434,957116.71030588)
(29306812.9513394,119520.499070078,1665893.99867982)
(28344644.0949812,52772.5126222533,2820831.5445201)
(26282748.8643247,58127.8981592661,5186907.56800715)
(20335804.9668875,41005.0127838374,12666034.342076)
(0,0,0)
(0,0,0)
(0,0,0)
(0,0,0)
(0,0,0)
(0,0,0)
(30496034.2360335,792063.864719123,47413.8252679048)
(30476299.3814731,780170.852444116,101109.98946201)
(30427356.2929068,754467.005032699,170509.442719171)
(30324436.558426,711033.948579642,274238.346725448)
(30112413.4955504,644446.708943648,455429.289430968)
(29678252.5414339,551336.499066283,820046.534475538)
(28849750.3112408,441356.262894631,1598822.16857546)
(27901581.2322271,345111.690915682,2825914.64975642)
(26089426.099176,252451.113650489,5169622.79181513)
(20265370.7396477,136438.2027778,12624945.2088247)
(0,0,0)
(0,0,0)
(0,0,0)
(0,0,0)
(0,0,0)
(0,0,0)
(30228375.1294179,1162770.46464414,35495.3343609212)
(30209989.0678615,1152989.10438075,75383.7102179973)
(30163384.1779269,1132243.18098408,127060.313815641)
(30062376.3658754,1098019.78860846,207607.652552178)
(29847971.8878359,1046162.11754482,362184.52604986)
(29401455.340872,970847.979547363,709925.409195932)
(28562575.59025,866455.261460233,1502297.53827336)
(27656349.4869218,732823.928806286,2732976.42305104)
(25924876.2549178,533768.866947086,5053413.54955543)
(20184649.0746034,282252.872830372,12488286.431331)
(0,0,0)
(0,0,0)
(0,0,0)
(0,0,0)
(0,0,0)
(0,0,0)
(29732075.3168734,1735263.19518648,25701.3144179996)
(29716065.7205422,1727742.04837432,54631.8139081888)
(29674788.9887971,1712206.82638523,92843.0398750923)
(29583134.9245472,1687476.65976894,155749.927847609)
(29383264.2300451,1650629.36371919,286825.533936748)
(28956390.8619603,1593305.20589639,605485.898962489)
(28142913.9501693,1493328.67966695,1368493.33221191)
(27325061.6396479,1315833.93936549,2533723.53288701)
(25681054.4694577,961028.36390995,4801691.75373821)
(20046824.9876699,513747.10097129,12205776.4940022)
(0,0,0)
(0,0,0)
(0,0,0)
(0,0,0)
(0,0,0)
(0,0,0)
(28740212.5196529,2750678.26967552,18169.4126447513)
(28727585.0387286,2744624.99883746,39081.74900536)
(28694690.4375321,2732248.66043428,68133.5332739087)
(28620659.8161148,2713052.7315829,118945.41401159)
(28456019.4807448,2685235.85179595,229496.716978327)
(28094006.2305493,2640499.36885983,505546.30426887)
(27382108.0648716,2537625.27142281,1190979.67887325)
(26848645.0169857,2219080.27506745,2178897.09329385)
(25189018.8480325,1699856.91672272,4354306.1434229)
(19727708.8580398,972267.444854992,11691840.5711954)
(0,0,0)
(0,0,0)
(0,0,0)
(0,0,0)
(0,0,0)
(0,0,0)
(26498556.5203934,5082109.59825438,12073.727801402)
(26490054.1169742,5076265.26612903,26700.0759130695)
(26468077.2439195,5063547.03695104,48966.7273822947)
(26419673.509264,5041320.0425311,91233.5168053655)
(26316667.0772432,5001840.86494223,184867.844576317)
(26107063.1292034,4923369.83013068,402831.991341542)
(25729144.7904262,4746737.15717075,872549.103637024)
(25197976.5531817,4344724.89088019,1659753.17779943)
(23698374.6146532,3634332.63767697,3626652.66055775)
(18757011.6385253,2369571.9447395,10719431.5982644)
(0,0,0)
(0,0,0)
(0,0,0)
(0,0,0)
(0,0,0)
(0,0,0)
(20421654.3946538,12565033.8892631,6175.50444132996)
(20417428.9206932,12558863.9782134,14014.1259798514)
(20406639.031424,12544751.5706221,26733.7533902652)
(20383382.0581381,12517988.4684706,51788.724841708)
(20335515.8927383,12466066.3332045,106513.837946477)
(20241336.6405656,12359303.119206,226399.736890255)
(20066906.7237814,12132638.3964991,470693.512335794)
(19732681.6335472,11661736.532596,949462.880551273)
(18757765.7161252,10712090.730391,2361957.28814058)
(15251716.3202395,8349951.20735763,8349869.0171152)
(0,0,0)
(0,0,0)
(0,0,0)
(0,0,0)
(0,0,0)
(0,0,0)
(0,0,0)
(0,0,0)
(0,0,0)
(0,0,0)
(0,0,0)
(0,0,0)
(0,0,0)
(0,0,0)
(0,0,0)
(0,0,0)
(0,0,0)
(0,0,0)
(0,0,0)
(0,0,0)
(0,0,0)
(0,0,0)
(0,0,0)
(0,0,0)
(0,0,0)
(0,0,0)
(0,0,0)
(0,0,0)
(0,0,0)
(0,0,0)
(0,0,0)
(0,0,0)
(0,0,0)
(0,0,0)
(0,0,0)
(0,0,0)
(0,0,0)
(0,0,0)
(0,0,0)
(0,0,0)
(0,0,0)
(0,0,0)
(0,0,0)
(0,0,0)
(0,0,0)
(0,0,0)
(0,0,0)
(0,0,0)
(0,0,0)
(0,0,0)
(0,0,0)
(0,0,0)
(0,0,0)
(0,0,0)
(0,0,0)
(0,0,0)
(0,0,0)
(0,0,0)
(0,0,0)
(0,0,0)
(0,0,0)
(0,0,0)
(0,0,0)
(0,0,0)
(0,0,0)
(0,0,0)
(0,0,0)
(0,0,0)
(0,0,0)
(0,0,0)
(0,0,0)
(0,0,0)
(0,0,0)
(0,0,0)
(0,0,0)
(0,0,0)
(0,0,0)
(0,0,0)
(0,0,0)
(0,0,0)
(0,0,0)
(0,0,0)
(0,0,0)
(0,0,0)
(0,0,0)
(0,0,0)
(0,0,0)
(0,0,0)
(0,0,0)
(0,0,0)
(0,0,0)
(0,0,0)
(0,0,0)
(0,0,0)
(0,0,0)
(0,0,0)
(0,0,0)
(0,0,0)
(0,0,0)
(0,0,0)
(0,0,0)
(0,0,0)
(-535536.067985018,77931.7249536809,65487.6984455798)
(-557771.099925975,73218.3669587015,137748.215836094)
(-607947.390261119,62872.0384462433,224335.159861941)
(-699246.484814186,45113.3339309496,333675.080587496)
(-855519.580728234,18201.4865714785,472442.456830584)
(-1116126.63981194,-16696.6511613525,633341.987246463)
(-1542297.84263682,-48821.1412920955,751039.768569933)
(-2216706.23180587,-55434.9953258641,558795.722548933)
(-3183684.46917972,-38026.2611074368,-919814.005074281)
(-3902731.44161874,-17386.6729286904,-7771987.25758609)
(0,0,0)
(0,0,0)
(0,0,0)
(0,0,0)
(0,0,0)
(0,0,0)
(-559121.956322694,163591.30162662,60774.7312931412)
(-580908.016741281,154717.174292656,127354.536943769)
(-630560.334954032,134873.891131888,206473.919992995)
(-721965.054798704,99566.5938484393,306577.877351501)
(-880620.556487909,42621.1510248203,437399.169921313)
(-1148309.8933758,-38550.77209792,601133.460283555)
(-1584444.62794503,-123181.100971981,744349.97602623)
(-2252304.05369198,-137368.868542596,576166.570837875)
(-3201498.83705481,-85182.6395365826,-899118.800559181)
(-3909008.0125944,-35613.1126487806,-7754510.35438231)
(0,0,0)
(0,0,0)
(0,0,0)
(0,0,0)
(0,0,0)
(0,0,0)
(-611669.960875362,264151.928555884,51858.8292202372)
(-632671.478010161,252417.499786407,107411.258404193)
(-681384.22793938,225689.946469095,171038.308718561)
(-773648.355744163,176031.432609968,249456.943524225)
(-940518.047287726,88884.2755168722,356031.915529355)
(-1235807.32663548,-54776.9947861432,516303.697156632)
(-1725301.88795374,-241558.384486266,729925.599227922)
(-2375578.31874404,-267568.766948647,628221.358203323)
(-3255572.67439378,-136916.607273695,-849492.574132182)
(-3926364.10230956,-47905.205582363,-7718810.15774392)
(0,0,0)
(0,0,0)
(0,0,0)
(0,0,0)
(0,0,0)
(0,0,0)
(-705364.721043873,384704.458107203,40094.064834808)
(-725289.272908219,372345.281902438,80576.9155612609)
(-772622.071614409,344059.282573141,121262.925540547)
(-866748.063092416,290499.633704474,162158.088003142)
(-1052149.27301894,190656.339927397,212129.458161047)
(-1428351.10920902,-62.0732263442029,329230.018364213)
(-2162715.32091235,-337553.580955679,703602.344458742)
(-2778841.01491853,-390282.349186686,758649.893969895)
(-3390966.01008726,-135173.559112482,-760529.422405732)
(-3963503.29669971,-29421.8462094992,-7670855.66081799)
(0,0,0)
(0,0,0)
(0,0,0)
(0,0,0)
(0,0,0)
(0,0,0)
(-862598.447306497,524474.429803977,27711.5690167769)
(-880943.399880981,513918.724042318,52229.7656045283)
(-925674.106700224,490539.128316326,67629.1768417283)
(-1019808.02629297,449024.95490801,62197.2977307502)
(-1227110.47094038,380011.059415852,21215.4021064855)
(-1757738.06632142,274509.403595779,-8516.60958689846)
(-3492164.39310462,154146.816551665,650546.554624569)
(-4142649.5627311,99847.0735771776,1013496.78419234)
(-3656377.69525393,87875.9610255975,-654900.084142231)
(-4024339.85297756,55711.3943470115,-7641473.87469986)
(0,0,0)
(0,0,0)
(0,0,0)
(0,0,0)
(0,0,0)
(0,0,0)
(-1121861.54221743,666431.759908628,17128.1989042983)
(-1137945.34272569,659006.648268393,28823.5426390109)
(-1178037.75640086,643561.642231481,26071.820425077)
(-1265555.11702582,618723.814997787,-6846.69939012936)
(-1467043.07012609,581418.166445153,-84389.9910838838)
(-1996269.40788591,525720.024869202,-129027.006225841)
(-3646095.39345568,446710.800740771,595928.850664061)
(-4241794.1448617,401493.384740922,1001275.02865725)
(-3779814.55301982,289934.197221815,-687243.542228011)
(-4085112.68920242,144427.222239252,-7697348.74894087)
(0,0,0)
(0,0,0)
(0,0,0)
(0,0,0)
(0,0,0)
(0,0,0)
(-1545600.39962031,743249.700915063,9706.63286074049)
(-1558848.87793893,739093.642911246,13383.0940725107)
(-1592574.04210951,731954.991855661,1201.63272829148)
(-1668845.87485066,724903.553605839,-44148.4491083859)
(-1853807.9857611,723317.205250196,-140126.414733751)
(-2371953.89128611,730859.938031698,-208072.717276227)
(-4092603.36093232,732457.539837524,550546.712102255)
(-4642984.31564336,839375.579818826,889559.329689119)
(-3966665.08697824,468983.997917356,-832922.057196814)
(-4185504.94975482,194641.222018101,-7841957.26217749)
(0,0,0)
(0,0,0)
(0,0,0)
(0,0,0)
(0,0,0)
(0,0,0)
(-2221889.73057472,508650.158823394,5550.64969270681)
(-2231880.4161434,506718.973574683,6239.63127475278)
(-2257658.52554259,505262.653033639,-5870.20945509572)
(-2317470.11350797,511716.448528009,-45704.3173809667)
(-2470511.81466287,545584.083854763,-132591.043204251)
(-2945815.69699646,653364.683073549,-206425.003326896)
(-4825009.99453382,884535.545001728,657463.908287779)
(-3933071.44488828,568286.285976241,519118.521377875)
(-4115785.1463139,209123.145463245,-1107367.77444798)
(-4340979.08009251,1536.86093275379,-8036726.61785676)
(0,0,0)
(0,0,0)
(0,0,0)
(0,0,0)
(0,0,0)
(0,0,0)
(-3191932.46104342,-995600.827722064,3588.8253556752)
(-3198439.0186366,-997144.546805347,4794.33872000407)
(-3214973.99889106,-998634.563352108,591.655289817908)
(-3251716.12299429,-995669.72339914,-11783.6831511286)
(-3335985.080827,-979922.941374218,-24775.6424783919)
(-3537493.85944084,-942849.781506229,24844.6681189332)
(-3978059.52383751,-915886.930656191,341320.315414006)
(-4122645.89024502,-1120936.78625872,160014.688449107)
(-4502039.0645408,-1306593.58737554,-1315006.04214458)
(-4573352.47849492,-1135913.13163752,-8038343.07518058)
(0,0,0)
(0,0,0)
(0,0,0)
(0,0,0)
(0,0,0)
(0,0,0)
(-3909045.18486761,-7858033.22732045,1980.83649334024)
(-3912209.94121118,-7859968.33726801,3292.34623390467)
(-3920138.68233608,-7863247.66635205,3532.02036748525)
(-3937115.81317387,-7866728.40424583,3937.4298994653)
(-3973298.5257743,-7870654.47491007,12332.2393213669)
(-4049180.59920214,-7883087.56922106,51936.1241773693)
(-4189424.28013939,-7935206.87090117,136435.92571659)
(-4345629.57596682,-8071823.39372231,-25517.3999325134)
(-4574733.64186656,-8046478.89768478,-1144283.87425809)
(-4414829.6770772,-6902369.24334876,-6902432.9078567)
(0,0,0)
(0,0,0)
(0,0,0)
(0,0,0)
(0,0,0)
(0,0,0)
(0,0,0)
(0,0,0)
(0,0,0)
(0,0,0)
(0,0,0)
(0,0,0)
(0,0,0)
(0,0,0)
(0,0,0)
(0,0,0)
(0,0,0)
(0,0,0)
(0,0,0)
(0,0,0)
(0,0,0)
(0,0,0)
(0,0,0)
(0,0,0)
(0,0,0)
(0,0,0)
(0,0,0)
(0,0,0)
(0,0,0)
(0,0,0)
(0,0,0)
(0,0,0)
(0,0,0)
(0,0,0)
(0,0,0)
(0,0,0)
(0,0,0)
(0,0,0)
(0,0,0)
(0,0,0)
(0,0,0)
(0,0,0)
(0,0,0)
(0,0,0)
(0,0,0)
(0,0,0)
(0,0,0)
(0,0,0)
(0,0,0)
(0,0,0)
(0,0,0)
(0,0,0)
(0,0,0)
(0,0,0)
(0,0,0)
(0,0,0)
(0,0,0)
(0,0,0)
(0,0,0)
(0,0,0)
(0,0,0)
(0,0,0)
(0,0,0)
(0,0,0)
(0,0,0)
(0,0,0)
(0,0,0)
(0,0,0)
(0,0,0)
(0,0,0)
(0,0,0)
(0,0,0)
(0,0,0)
(0,0,0)
(0,0,0)
(0,0,0)
(0,0,0)
(0,0,0)
(0,0,0)
(0,0,0)
(0,0,0)
(0,0,0)
(0,0,0)
(0,0,0)
(0,0,0)
(0,0,0)
(0,0,0)
(0,0,0)
(0,0,0)
(0,0,0)
(0,0,0)
(0,0,0)
(0,0,0)
(0,0,0)
(0,0,0)
(0,0,0)
(0,0,0)
(0,0,0)
(0,0,0)
(0,0,0)
(0,0,0)
(0,0,0)
(-633332.04578319,54506.2234353961,43289.7543627768)
(-652216.875430929,50171.2954555521,87564.2344121808)
(-693717.563971226,40327.7955076276,133006.612614661)
(-766132.188260882,22454.6505956383,177437.665465717)
(-883024.987057137,-6852.22563835235,211795.297432975)
(-1062641.03560328,-48822.2095203299,207131.902744638)
(-1320793.65156272,-90936.6893847314,76564.4010552753)
(-1640845.9727381,-91025.4575918872,-408270.400420603)
(-1896869.48606824,-55873.3219787916,-1639212.06155326)
(-1648364.2392633,-23700.7116850647,-3869878.5522236)
(0,0,0)
(0,0,0)
(0,0,0)
(0,0,0)
(0,0,0)
(0,0,0)
(-654810.058579052,111252.378093654,38941.947598096)
(-672574.399978246,103091.204862606,77688.4214280117)
(-711755.794733506,84125.8202093982,115085.856505719)
(-780325.531224798,47906.1228668569,147994.860660588)
(-891904.496053152,-17263.4525941392,169690.027181611)
(-1066364.50357098,-126012.251304717,164934.67916118)
(-1322827.69951709,-263996.980829876,76378.0421783816)
(-1633148.25980606,-260612.73722078,-373190.472078646)
(-1884315.42121821,-139256.086742288,-1606991.12315173)
(-1640636.18193009,-52958.4868407839,-3846105.17866042)
(0,0,0)
(0,0,0)
(0,0,0)
(0,0,0)
(0,0,0)
(0,0,0)
(-701738.640078575,170555.770537156,30765.2867597146)
(-717397.392730575,159920.478788507,58661.9275542276)
(-751968.37544452,134563.396469285,78808.4987994779)
(-812620.937306522,82996.2715972619,82690.9316314305)
(-913087.769380008,-22749.4759958609,60746.6771254319)
(-1080451.23476169,-247350.900306004,26729.234252907)
(-1363070.03058581,-679003.561981972,79503.9580370669)
(-1633832.52982464,-670850.671610851,-252003.896492272)
(-1853867.97347383,-272310.863719216,-1520653.8204353)
(-1621818.39838865,-85062.2558143904,-3793095.75538263)
(0,0,0)
(0,0,0)
(0,0,0)
(0,0,0)
(0,0,0)
(0,0,0)
(-782394.397682319,227457.820367234,20127.6268083781)
(-795206.978723244,216732.645917114,33233.1654948014)
(-823061.450638582,191059.74933324,27176.1916550222)
(-870884.284690437,137470.04177067,-23161.3569203631)
(-949656.406551029,15663.2619276563,-164066.961311792)
(-1105061.08974659,-329512.105148744,-405195.775931488)
(-1667193.16967058,-1667077.76354298,87356.2743877473)
(-1754450.57344065,-1754154.38105671,146269.542355715)
(-1782928.42043296,-400610.581012253,-1333468.33000555)
(-1583736.3264734,-90290.2138950416,-3708007.3421513)
(0,0,0)
(0,0,0)
(0,0,0)
(0,0,0)
(0,0,0)
(0,0,0)
(-909770.294206913,265222.404239404,9407.26302824523)
(-919293.717229669,256937.951285483,7552.27500856731)
(-938817.836210937,238190.408521621,-26434.6546690912)
(-967017.885544856,203265.142044759,-145019.895691289)
(-987082.658689258,140007.543862591,-509391.989877354)
(-889529.829079463,35865.2276637301,-1742977.55993179)
(-3.93486567189001e-05,-1.02545156787707e-05,2.4261766078245e-05)