/*--------------------------------*- C++ -*----------------------------------*\
| =========                 |                                                 |
| \\      /  F ield         | foam-extend: Open Source Cstd::filesystem::create_directory();FD                    |
|  \\    /   O peration     | Version:     4.0                                |
|   \\  /    A nd           | Web:         http://www.foam-extend.org         |
|    \\/     M anipulation  |                                                 |
\*---------------------------------------------------------------------------*/
FoamFile
{
    version 2.0;
    format ascii;
    class volVectorField;
    location "Data/882";
    object      H;
}
// * * * * * * * * * * * * * * * * * * * * * * * * * * * * * * * * * * * * * //

dimensions      [0 1 -1 0 0 0 0];

internalField   nonuniform List<vector>
4096
(
(0,0,0)
(0,0,0)
(0,0,0)
(0,0,0)
(0,0,0)
(0,0,0)
(0,0,0)
(0,0,0)
(0,0,0)
(0,0,0)
(0,0,0)
(0,0,0)
(0,0,0)
(0,0,0)
(0,0,0)
(0,0,0)
(0,0,0)
(0,0,0)
(0,0,0)
(0,0,0)
(0,0,0)
(0,0,0)
(0,0,0)
(0,0,0)
(0,0,0)
(0,0,0)
(0,0,0)
(0,0,0)
(0,0,0)
(0,0,0)
(0,0,0)
(0,0,0)
(0,0,0)
(0,0,0)
(0,0,0)
(0,0,0)
(0,0,0)
(0,0,0)
(0,0,0)
(0,0,0)
(0,0,0)
(0,0,0)
(0,0,0)
(0,0,0)
(0,0,0)
(0,0,0)
(0,0,0)
(0,0,0)
(0,0,0)
(0,0,0)
(0,0,0)
(0,0,0)
(0,0,0)
(0,0,0)
(0,0,0)
(0,0,0)
(0,0,0)
(0,0,0)
(0,0,0)
(0,0,0)
(0,0,0)
(0,0,0)
(0,0,0)
(0,0,0)
(0,0,0)
(0,0,0)
(0,0,0)
(0,0,0)
(0,0,0)
(0,0,0)
(0,0,0)
(0,0,0)
(0,0,0)
(0,0,0)
(0,0,0)
(0,0,0)
(0,0,0)
(0,0,0)
(0,0,0)
(0,0,0)
(0,0,0)
(0,0,0)
(0,0,0)
(0,0,0)
(0,0,0)
(0,0,0)
(0,0,0)
(0,0,0)
(0,0,0)
(0,0,0)
(0,0,0)
(0,0,0)
(0,0,0)
(0,0,0)
(0,0,0)
(0,0,0)
(0,0,0)
(0,0,0)
(0,0,0)
(0,0,0)
(0,0,0)
(0,0,0)
(0,0,0)
(0,0,0)
(0,0,0)
(0,0,0)
(0,0,0)
(0,0,0)
(0,0,0)
(0,0,0)
(0,0,0)
(0,0,0)
(0,0,0)
(0,0,0)
(0,0,0)
(0,0,0)
(0,0,0)
(0,0,0)
(0,0,0)
(0,0,0)
(0,0,0)
(0,0,0)
(0,0,0)
(0,0,0)
(0,0,0)
(0,0,0)
(0,0,0)
(0,0,0)
(0,0,0)
(0,0,0)
(0,0,0)
(0,0,0)
(0,0,0)
(0,0,0)
(0,0,0)
(0,0,0)
(0,0,0)
(0,0,0)
(0,0,0)
(0,0,0)
(0,0,0)
(0,0,0)
(0,0,0)
(0,0,0)
(0,0,0)
(0,0,0)
(0,0,0)
(0,0,0)
(0,0,0)
(0,0,0)
(0,0,0)
(0,0,0)
(0,0,0)
(0,0,0)
(0,0,0)
(0,0,0)
(0,0,0)
(0,0,0)
(0,0,0)
(0,0,0)
(0,0,0)
(0,0,0)
(0,0,0)
(0,0,0)
(0,0,0)
(0,0,0)
(0,0,0)
(0,0,0)
(0,0,0)
(0,0,0)
(0,0,0)
(0,0,0)
(0,0,0)
(0,0,0)
(0,0,0)
(0,0,0)
(0,0,0)
(0,0,0)
(0,0,0)
(0,0,0)
(0,0,0)
(0,0,0)
(0,0,0)
(0,0,0)
(0,0,0)
(0,0,0)
(0,0,0)
(0,0,0)
(0,0,0)
(0,0,0)
(0,0,0)
(0,0,0)
(0,0,0)
(0,0,0)
(0,0,0)
(0,0,0)
(0,0,0)
(0,0,0)
(0,0,0)
(0,0,0)
(0,0,0)
(0,0,0)
(0,0,0)
(0,0,0)
(0,0,0)
(0,0,0)
(0,0,0)
(0,0,0)
(0,0,0)
(0,0,0)
(0,0,0)
(0,0,0)
(0,0,0)
(0,0,0)
(0,0,0)
(0,0,0)
(0,0,0)
(0,0,0)
(0,0,0)
(0,0,0)
(0,0,0)
(0,0,0)
(0,0,0)
(0,0,0)
(0,0,0)
(0,0,0)
(0,0,0)
(0,0,0)
(0,0,0)
(0,0,0)
(0,0,0)
(0,0,0)
(0,0,0)
(0,0,0)
(0,0,0)
(0,0,0)
(0,0,0)
(0,0,0)
(0,0,0)
(0,0,0)
(0,0,0)
(0,0,0)
(0,0,0)
(0,0,0)
(0,0,0)
(0,0,0)
(0,0,0)
(0,0,0)
(0,0,0)
(0,0,0)
(0,0,0)
(0,0,0)
(0,0,0)
(0,0,0)
(0,0,0)
(0,0,0)
(0,0,0)
(0,0,0)
(0,0,0)
(0,0,0)
(0,0,0)
(0,0,0)
(0,0,0)
(0,0,0)
(0,0,0)
(0,0,0)
(0,0,0)
(0,0,0)
(0,0,0)
(0,0,0)
(0,0,0)
(0,0,0)
(0,0,0)
(0,0,0)
(0,0,0)
(0,0,0)
(0,0,0)
(0,0,0)
(0,0,0)
(0,0,0)
(0,0,0)
(0,0,0)
(0,0,0)
(0,0,0)
(0,0,0)
(0,0,0)
(0,0,0)
(0,0,0)
(0,0,0)
(0,0,0)
(0,0,0)
(0,0,0)
(0,0,0)
(0,0,0)
(0,0,0)
(0,0,0)
(0,0,0)
(0,0,0)
(0,0,0)
(0,0,0)
(0,0,0)
(0,0,0)
(0,0,0)
(0,0,0)
(0,0,0)
(0,0,0)
(0,0,0)
(0,0,0)
(0,0,0)
(0,0,0)
(0,0,0)
(0,0,0)
(0,0,0)
(0,0,0)
(0,0,0)
(0,0,0)
(0,0,0)
(0,0,0)
(0,0,0)
(0,0,0)
(0,0,0)
(0,0,0)
(0,0,0)
(0,0,0)
(0,0,0)
(0,0,0)
(0,0,0)
(0,0,0)
(0,0,0)
(0,0,0)
(0,0,0)
(0,0,0)
(0,0,0)
(0,0,0)
(0,0,0)
(0,0,0)
(0,0,0)
(0,0,0)
(0,0,0)
(0,0,0)
(0,0,0)
(0,0,0)
(0,0,0)
(0,0,0)
(0,0,0)
(0,0,0)
(0,0,0)
(0,0,0)
(0,0,0)
(0,0,0)
(0,0,0)
(0,0,0)
(0,0,0)
(0,0,0)
(0,0,0)
(0,0,0)
(0,0,0)
(0,0,0)
(0,0,0)
(0,0,0)
(0,0,0)
(0,0,0)
(0,0,0)
(0,0,0)
(0,0,0)
(0,0,0)
(0,0,0)
(0,0,0)
(0,0,0)
(0,0,0)
(0,0,0)
(0,0,0)
(0,0,0)
(0,0,0)
(0,0,0)
(0,0,0)
(0,0,0)
(0,0,0)
(0,0,0)
(0,0,0)
(0,0,0)
(0,0,0)
(0,0,0)
(0,0,0)
(0,0,0)
(0,0,0)
(0,0,0)
(0,0,0)
(0,0,0)
(0,0,0)
(0,0,0)
(0,0,0)
(0,0,0)
(0,0,0)
(0,0,0)
(0,0,0)
(0,0,0)
(0,0,0)
(0,0,0)
(0,0,0)
(0,0,0)
(0,0,0)
(0,0,0)
(0,0,0)
(0,0,0)
(0,0,0)
(0,0,0)
(0,0,0)
(0,0,0)
(0,0,0)
(0,0,0)
(0,0,0)
(0,0,0)
(0,0,0)
(0,0,0)
(0,0,0)
(0,0,0)
(0,0,0)
(0,0,0)
(0,0,0)
(0,0,0)
(0,0,0)
(0,0,0)
(0,0,0)
(0,0,0)
(0,0,0)
(0,0,0)
(0,0,0)
(0,0,0)
(0,0,0)
(0,0,0)
(0,0,0)
(0,0,0)
(0,0,0)
(0,0,0)
(0,0,0)
(0,0,0)
(0,0,0)
(0,0,0)
(0,0,0)
(0,0,0)
(0,0,0)
(0,0,0)
(0,0,0)
(0,0,0)
(0,0,0)
(0,0,0)
(0,0,0)
(0,0,0)
(0,0,0)
(0,0,0)
(0,0,0)
(0,0,0)
(0,0,0)
(0,0,0)
(0,0,0)
(0,0,0)
(0,0,0)
(0,0,0)
(0,0,0)
(0,0,0)
(0,0,0)
(0,0,0)
(0,0,0)
(0,0,0)
(0,0,0)
(0,0,0)
(0,0,0)
(0,0,0)
(0,0,0)
(0,0,0)
(0,0,0)
(0,0,0)
(0,0,0)
(0,0,0)
(0,0,0)
(0,0,0)
(0,0,0)
(0,0,0)
(0,0,0)
(0,0,0)
(0,0,0)
(0,0,0)
(0,0,0)
(0,0,0)
(0,0,0)
(0,0,0)
(0,0,0)
(0,0,0)
(0,0,0)
(0,0,0)
(0,0,0)
(0,0,0)
(0,0,0)
(0,0,0)
(0,0,0)
(0,0,0)
(0,0,0)
(0,0,0)
(0,0,0)
(0,0,0)
(0,0,0)
(0,0,0)
(0,0,0)
(0,0,0)
(0,0,0)
(0,0,0)
(0,0,0)
(0,0,0)
(0,0,0)
(0,0,0)
(0,0,0)
(0,0,0)
(0,0,0)
(0,0,0)
(0,0,0)
(0,0,0)
(0,0,0)
(0,0,0)
(0,0,0)
(0,0,0)
(0,0,0)
(0,0,0)
(0,0,0)
(0,0,0)
(0,0,0)
(0,0,0)
(0,0,0)
(0,0,0)
(0,0,0)
(0,0,0)
(0,0,0)
(0,0,0)
(0,0,0)
(0,0,0)
(0,0,0)
(0,0,0)
(0,0,0)
(0,0,0)
(0,0,0)
(0,0,0)
(0,0,0)
(0,0,0)
(0,0,0)
(0,0,0)
(0,0,0)
(0,0,0)
(0,0,0)
(0,0,0)
(0,0,0)
(0,0,0)
(0,0,0)
(0,0,0)
(0,0,0)
(0,0,0)
(0,0,0)
(0,0,0)
(0,0,0)
(0,0,0)
(0,0,0)
(0,0,0)
(0,0,0)
(0,0,0)
(0,0,0)
(0,0,0)
(0,0,0)
(0,0,0)
(0,0,0)
(0,0,0)
(0,0,0)
(0,0,0)
(0,0,0)
(0,0,0)
(0,0,0)
(0,0,0)
(0,0,0)
(0,0,0)
(0,0,0)
(0,0,0)
(0,0,0)
(0,0,0)
(0,0,0)
(0,0,0)
(0,0,0)
(0,0,0)
(0,0,0)
(0,0,0)
(0,0,0)
(0,0,0)
(0,0,0)
(0,0,0)
(0,0,0)
(0,0,0)
(0,0,0)
(0,0,0)
(0,0,0)
(0,0,0)
(0,0,0)
(0,0,0)
(0,0,0)
(0,0,0)
(0,0,0)
(0,0,0)
(0,0,0)
(0,0,0)
(0,0,0)
(0,0,0)
(0,0,0)
(0,0,0)
(0,0,0)
(0,0,0)
(0,0,0)
(0,0,0)
(0,0,0)
(0,0,0)
(0,0,0)
(0,0,0)
(0,0,0)
(0,0,0)
(0,0,0)
(0,0,0)
(0,0,0)
(0,0,0)
(0,0,0)
(0,0,0)
(0,0,0)
(0,0,0)
(0,0,0)
(0,0,0)
(0,0,0)
(0,0,0)
(0,0,0)
(0,0,0)
(0,0,0)
(0,0,0)
(0,0,0)
(0,0,0)
(0,0,0)
(0,0,0)
(0,0,0)
(0,0,0)
(0,0,0)
(0,0,0)
(0,0,0)
(0,0,0)
(0,0,0)
(0,0,0)
(0,0,0)
(0,0,0)
(0,0,0)
(0,0,0)
(0,0,0)
(0,0,0)
(0,0,0)
(0,0,0)
(0,0,0)
(0,0,0)
(0,0,0)
(0,0,0)
(0,0,0)
(0,0,0)
(0,0,0)
(0,0,0)
(0,0,0)
(0,0,0)
(0,0,0)
(0,0,0)
(0,0,0)
(0,0,0)
(0,0,0)
(0,0,0)
(0,0,0)
(0,0,0)
(0,0,0)
(0,0,0)
(0,0,0)
(0,0,0)
(0,0,0)
(0,0,0)
(0,0,0)
(0,0,0)
(0,0,0)
(0,0,0)
(0,0,0)
(0,0,0)
(0,0,0)
(0,0,0)
(0,0,0)
(0,0,0)
(0,0,0)
(0,0,0)
(0,0,0)
(0,0,0)
(0,0,0)
(0,0,0)
(0,0,0)
(0,0,0)
(0,0,0)
(0,0,0)
(0,0,0)
(0,0,0)
(0,0,0)
(0,0,0)
(0,0,0)
(0,0,0)
(0,0,0)
(0,0,0)
(0,0,0)
(0,0,0)
(0,0,0)
(0,0,0)
(0,0,0)
(0,0,0)
(0,0,0)
(0,0,0)
(0,0,0)
(0,0,0)
(0,0,0)
(0,0,0)
(0,0,0)
(0,0,0)
(0,0,0)
(0,0,0)
(0,0,0)
(0,0,0)
(0,0,0)
(0,0,0)
(0,0,0)
(0,0,0)
(0,0,0)
(0,0,0)
(0,0,0)
(0,0,0)
(0,0,0)
(0,0,0)
(0,0,0)
(0,0,0)
(0,0,0)
(0,0,0)
(0,0,0)
(0,0,0)
(0,0,0)
(0,0,0)
(0,0,0)
(0,0,0)
(0,0,0)
(0,0,0)
(0,0,0)
(0,0,0)
(0,0,0)
(0,0,0)
(0,0,0)
(0,0,0)
(0,0,0)
(0,0,0)
(0,0,0)
(0,0,0)
(0,0,0)
(0,0,0)
(0,0,0)
(0,0,0)
(0,0,0)
(0,0,0)
(0,0,0)
(0,0,0)
(0,0,0)
(0,0,0)
(0,0,0)
(0,0,0)
(0,0,0)
(0,0,0)
(0,0,0)
(0,0,0)
(0,0,0)
(0,0,0)
(0,0,0)
(0,0,0)
(0,0,0)
(0,0,0)
(0,0,0)
(0,0,0)
(0,0,0)
(0,0,0)
(0,0,0)
(0,0,0)
(0,0,0)
(0,0,0)
(0,0,0)
(0,0,0)
(0,0,0)
(0,0,0)
(0,0,0)
(0,0,0)
(0,0,0)
(0,0,0)
(0,0,0)
(0,0,0)
(0,0,0)
(0,0,0)
(0,0,0)
(0,0,0)
(0,0,0)
(0,0,0)
(0,0,0)
(0,0,0)
(0,0,0)
(0,0,0)
(0,0,0)
(0,0,0)
(0,0,0)
(0,0,0)
(0,0,0)
(0,0,0)
(0,0,0)
(0,0,0)
(0,0,0)
(0,0,0)
(0,0,0)
(0,0,0)
(-7.46919024478355e-13,-9.08324745517937e-12,1.15969202663369e-11)
(-4.2076120364002e-14,-1.96210825094298e-11,1.08356257901657e-11)
(4.78666155657079e-13,-3.59844469226533e-11,1.00249622102234e-11)
(2.86664702296575e-13,-5.99958651290253e-11,8.42019433389144e-12)
(1.07682260054884e-12,-9.40726373813619e-11,6.236494227515e-12)
(1.24199733854374e-12,-1.47921265818304e-10,4.14157472405135e-12)
(1.10427732473858e-12,-2.35512282942367e-10,1.98573546554709e-12)
(1.46515883244306e-12,-3.82854370683975e-10,9.25181444916021e-13)
(1.84691104801374e-12,-6.29003255679644e-10,5.60167223873837e-13)
(1.85799008291945e-12,-9.75570099961527e-10,3.4494032024208e-13)
(0,0,0)
(0,0,0)
(0,0,0)
(0,0,0)
(0,0,0)
(0,0,0)
(-3.45568906427526e-13,-8.3168407910092e-12,2.52483479876344e-11)
(-3.54158251487916e-13,-1.8519189217653e-11,2.41892924373605e-11)
(-8.80200466466389e-13,-3.40213627986061e-11,2.22553611496928e-11)
(-6.87517847961672e-13,-5.77310157388458e-11,1.92784979699511e-11)
(1.25500228657892e-12,-9.19495817625129e-11,1.52461006314765e-11)
(1.79826548126847e-12,-1.46131820962722e-10,1.12903658851482e-11)
(1.89196754236444e-12,-2.34862415935547e-10,7.33656760764924e-12)
(3.25801477499266e-12,-3.83273414876798e-10,4.5671193487428e-12)
(5.18639383609776e-12,-6.29991585708958e-10,2.88140317167509e-12)
(5.71319853760613e-12,-9.76540757584981e-10,1.51755220356196e-12)
(0,0,0)
(0,0,0)
(0,0,0)
(0,0,0)
(0,0,0)
(0,0,0)
(-9.62873362515138e-13,-7.02719233210355e-12,4.21545997488987e-11)
(-1.92398478489892e-12,-1.62929473035283e-11,4.111507524087e-11)
(-3.5149389879306e-12,-3.06491653882171e-11,3.85886696837115e-11)
(-2.96774964900887e-12,-5.31864029802636e-11,3.43917636710989e-11)
(-9.58852709822717e-13,-8.71484901903444e-11,2.88955126978049e-11)
(5.27313963418258e-13,-1.42208385898231e-10,2.29587470391177e-11)
(2.7679346667076e-12,-2.32566863235467e-10,1.66156098931161e-11)
(6.47324551243362e-12,-3.8257133649497e-10,1.15726162292633e-11)
(1.0255407863645e-11,-6.30320888481351e-10,7.58099259890735e-12)
(1.18694056245032e-11,-9.76960111551064e-10,3.94316035696098e-12)
(0,0,0)
(0,0,0)
(0,0,0)
(0,0,0)
(0,0,0)
(0,0,0)
(-1.42559415765526e-12,-5.60573563604104e-12,6.52389228374318e-11)
(-3.9824537864535e-12,-1.35735709086654e-11,6.46115187213779e-11)
(-6.49266629055947e-12,-2.65016204123535e-11,6.21867965388068e-11)
(-5.93224012535731e-12,-4.72262142527621e-11,5.71793643455043e-11)
(-4.69629067344008e-12,-7.96170149336533e-11,5.07231485804762e-11)
(-2.06547612596995e-12,-1.34584574321913e-10,4.31926496650981e-11)
(2.86708765379467e-12,-2.27169882836837e-10,3.47671819144648e-11)
(9.78731438015225e-12,-3.79675087534706e-10,2.65615285628773e-11)
(1.56371337599242e-11,-6.2887807914642e-10,1.81793442783489e-11)
(1.80022459609146e-11,-9.75769851538976e-10,9.37245309834284e-12)
(0,0,0)
(0,0,0)
(0,0,0)
(0,0,0)
(0,0,0)
(0,0,0)
(-2.7573491429751e-12,-4.05085878334641e-12,9.97609888013631e-11)
(-6.47639419449446e-12,-1.05368526846293e-11,9.91579608475865e-11)
(-9.72512531066458e-12,-2.16918485051515e-11,9.70817775960045e-11)
(-1.00501998921099e-11,-4.01670337005051e-11,9.25019349964912e-11)
(-8.85490961574046e-12,-7.00184735199451e-11,8.62072133700224e-11)
(-4.62740317824254e-12,-1.23578402384275e-10,7.86694886362637e-11)
(2.98506731733958e-12,-2.17880688009994e-10,6.98886824125555e-11)
(1.14423762014617e-11,-3.73092210379429e-10,5.63683372903524e-11)
(1.85143472599316e-11,-6.2277059584954e-10,3.98077394436903e-11)
(2.1178445420984e-11,-9.69399287299445e-10,2.08380426728618e-11)
(0,0,0)
(0,0,0)
(0,0,0)
(0,0,0)
(0,0,0)
(0,0,0)
(-3.62930514306519e-12,-2.84340215982023e-12,1.52451195216115e-10)
(-7.67808504574428e-12,-7.86037423917702e-12,1.51659619575637e-10)
(-1.0982236147464e-11,-1.70277650429579e-11,1.50067439232879e-10)
(-1.19707131671206e-11,-3.26123499823186e-11,1.46719074760406e-10)
(-1.04457688303614e-11,-5.95781316012653e-11,1.4130269182566e-10)
(-5.7369315798746e-12,-1.11410787607581e-10,1.33775424573139e-10)
(1.8539356636434e-12,-2.06436697067099e-10,1.22329939846871e-10)
(9.92746284750051e-12,-3.60710647604572e-10,1.02309352731672e-10)
(1.6518727975577e-11,-6.07552770017213e-10,7.43400313476819e-11)
(2.03095828943061e-11,-9.51985803134219e-10,3.94038516491898e-11)
(0,0,0)
(0,0,0)
(0,0,0)
(0,0,0)
(0,0,0)
(0,0,0)
(-3.97113720565669e-12,-2.06609470761588e-12,2.3867144695183e-10)
(-7.23702432581186e-12,-5.68842694532166e-12,2.37599397309873e-10)
(-1.00160860349845e-11,-1.27768239016817e-11,2.36429032782122e-10)
(-1.2032024584619e-11,-2.53890586254812e-11,2.34335433826212e-10)
(-9.84128481500033e-12,-4.93052645805351e-11,2.29857992684698e-10)
(-4.5718249327726e-12,-9.7583078352886e-11,2.21485577754219e-10)
(9.83708290716925e-13,-1.88868334507071e-10,2.04668445284265e-10)
(7.45048496125264e-12,-3.37197978925056e-10,1.76561897141516e-10)
(1.37806961618123e-11,-5.76790690515689e-10,1.31931359326606e-10)
(1.83358445521744e-11,-9.16033262964838e-10,7.16349014685912e-11)
(0,0,0)
(0,0,0)
(0,0,0)
(0,0,0)
(0,0,0)
(0,0,0)
(-3.77404080134102e-12,-1.15442373509458e-12,3.83831552475948e-10)
(-7.55221862639706e-12,-3.59859192340611e-12,3.83592256562671e-10)
(-1.09654494548967e-11,-9.08650358136683e-12,3.83120170738851e-10)
(-1.32892088349508e-11,-1.93925761604871e-11,3.81071872564464e-10)
(-1.14288613995816e-11,-4.03411046505564e-11,3.76123489698109e-10)
(-6.58136848553337e-12,-8.2969504680924e-11,3.6578564781781e-10)
(-8.5609654771642e-13,-1.62606971539411e-10,3.4417971103275e-10)
(4.84635323677631e-12,-2.95294669875569e-10,3.03120023102786e-10)
(1.03757910946805e-11,-5.19508503416227e-10,2.34521519659498e-10)
(1.44842986593853e-11,-8.46891306001565e-10,1.32701876630156e-10)
(0,0,0)
(0,0,0)
(0,0,0)
(0,0,0)
(0,0,0)
(0,0,0)
(-3.53576367889986e-12,-4.68241332562505e-13,6.29170782184828e-10)
(-8.13556287428323e-12,-2.13738802418546e-12,6.29498222932778e-10)
(-1.21497039595497e-11,-6.05484380962605e-12,6.29135476171283e-10)
(-1.47345394590592e-11,-1.34770943674596e-11,6.26620418831733e-10)
(-1.35202121776381e-11,-2.94822692107961e-11,6.20616738921782e-10)
(-9.37928548637521e-12,-6.19579427604224e-11,6.07256377708784e-10)
(-4.15299128522492e-12,-1.22278080922507e-10,5.78897990114971e-10)
(1.59373856121516e-12,-2.28271443513898e-10,5.23033452895753e-10)
(6.8438968164749e-12,-4.20012496034981e-10,4.22896982643637e-10)
(1.04119828830861e-11,-7.16072872074837e-10,2.53851369271554e-10)
(0,0,0)
(0,0,0)
(0,0,0)
(0,0,0)
(0,0,0)
(0,0,0)
(-4.31339245585091e-12,-2.48896506869869e-14,9.75308578916272e-10)
(-8.84923603999971e-12,-1.13204332336063e-12,9.76159425384595e-10)
(-1.18813474680859e-11,-3.4025567187782e-12,9.75622921086459e-10)
(-1.43153308443395e-11,-7.39530951334167e-12,9.72384954556694e-10)
(-1.42136976092093e-11,-1.587838373561e-11,9.65019600055943e-10)
(-1.05787113140003e-11,-3.352398465611e-11,9.49489530034507e-10)
(-5.77604877405745e-12,-6.70629204418936e-11,9.16318091398697e-10)
(4.8729034660689e-14,-1.29543864491199e-10,8.48487458860938e-10)
(5.8346706559541e-12,-2.52762300660467e-10,7.17542511192537e-10)
(9.28980727519775e-12,-4.63374671966684e-10,4.63638931534363e-10)
(0,0,0)
(0,0,0)
(0,0,0)
(0,0,0)
(0,0,0)
(0,0,0)
(0,0,0)
(0,0,0)
(0,0,0)
(0,0,0)
(0,0,0)
(0,0,0)
(0,0,0)
(0,0,0)
(0,0,0)
(0,0,0)
(0,0,0)
(0,0,0)
(0,0,0)
(0,0,0)
(0,0,0)
(0,0,0)
(0,0,0)
(0,0,0)
(0,0,0)
(0,0,0)
(0,0,0)
(0,0,0)
(0,0,0)
(0,0,0)
(0,0,0)
(0,0,0)
(0,0,0)
(0,0,0)
(0,0,0)
(0,0,0)
(0,0,0)
(0,0,0)
(0,0,0)
(0,0,0)
(0,0,0)
(0,0,0)
(0,0,0)
(0,0,0)
(0,0,0)
(0,0,0)
(0,0,0)
(0,0,0)
(0,0,0)
(0,0,0)
(0,0,0)
(0,0,0)
(0,0,0)
(0,0,0)
(0,0,0)
(0,0,0)
(0,0,0)
(0,0,0)
(0,0,0)
(0,0,0)
(0,0,0)
(0,0,0)
(0,0,0)
(0,0,0)
(0,0,0)
(0,0,0)
(0,0,0)
(0,0,0)
(0,0,0)
(0,0,0)
(0,0,0)
(0,0,0)
(0,0,0)
(0,0,0)
(0,0,0)
(0,0,0)
(0,0,0)
(0,0,0)
(0,0,0)
(0,0,0)
(0,0,0)
(0,0,0)
(0,0,0)
(0,0,0)
(0,0,0)
(0,0,0)
(0,0,0)
(0,0,0)
(0,0,0)
(0,0,0)
(0,0,0)
(0,0,0)
(0,0,0)
(0,0,0)
(0,0,0)
(0,0,0)
(0,0,0)
(0,0,0)
(0,0,0)
(0,0,0)
(0,0,0)
(0,0,0)
(-7.52031212473586e-13,-1.73923532484553e-11,2.2545328124341e-11)
(-3.33305832202199e-13,-3.7686854022193e-11,2.10099755009609e-11)
(1.20349907941177e-13,-6.66051827995268e-11,1.89384508505714e-11)
(2.05515418480269e-13,-1.09016735742277e-10,1.5620895009724e-11)
(1.04868648516304e-12,-1.6963289807692e-10,1.11579126358001e-11)
(1.60839174152709e-12,-2.62310409545234e-10,6.21331328630708e-12)
(1.51496433864522e-12,-4.11445042314034e-10,1.92049757260792e-12)
(2.24921724607614e-12,-6.68250402941011e-10,-2.23529809131572e-13)
(3.05046798085415e-12,-1.16292104580457e-09,-8.94524790750529e-13)
(3.17358802605304e-12,-2.30354201194681e-09,-5.71614579650839e-13)
(0,0,0)
(0,0,0)
(0,0,0)
(0,0,0)
(0,0,0)
(0,0,0)
(-5.76161815059635e-13,-1.59462771661462e-11,4.75289838805335e-11)
(-6.46468877940572e-13,-3.52099129089046e-11,4.53519102839222e-11)
(-1.27553469710724e-12,-6.28934363158426e-11,4.14144877195967e-11)
(-1.19973326807416e-12,-1.04435578672996e-10,3.52258860148288e-11)
(4.09645460746697e-13,-1.64682504116103e-10,2.64128841638789e-11)
(1.82862869429427e-12,-2.58491927672628e-10,1.63533529536603e-11)
(2.36586310117908e-12,-4.10308905335012e-10,7.3583773667983e-12)
(4.24165257032355e-12,-6.69200901762622e-10,2.77040346744983e-12)
(6.87954757701679e-12,-1.164840602718e-09,1.20688601558497e-12)
(7.65010470746442e-12,-2.30554613062569e-09,7.13885755224459e-13)
(0,0,0)
(0,0,0)
(0,0,0)
(0,0,0)
(0,0,0)
(0,0,0)
(-1.34480555054774e-12,-1.37860081623231e-11,7.90677536934776e-11)
(-2.11695562260257e-12,-3.1010144139229e-11,7.64055900405695e-11)
(-3.46557795117393e-12,-5.65877272091341e-11,7.11423256637391e-11)
(-3.43168740321657e-12,-9.54932282718271e-11,6.25764461294052e-11)
(-2.55356230787776e-12,-1.54217657114115e-10,5.06550197723589e-11)
(-7.53360466949396e-13,-2.49743190355881e-10,3.5908458054234e-11)
(2.41394793187206e-12,-4.06784780439152e-10,2.07097088595946e-11)
(7.56862018252209e-12,-6.70344008135809e-10,1.26365960089014e-11)
(1.24504307705186e-11,-1.16739383283171e-09,8.49940343289677e-12)
(1.4622305969237e-11,-2.30759422950642e-09,4.81331594819064e-12)
(0,0,0)
(0,0,0)
(0,0,0)
(0,0,0)
(0,0,0)
(0,0,0)
(-2.35306689429683e-12,-1.11752243236339e-11,1.20683621837134e-10)
(-4.59444982791827e-12,-2.58122281365674e-11,1.18118128532009e-10)
(-6.2950060044654e-12,-4.81983892313172e-11,1.12900222102228e-10)
(-6.53520491258313e-12,-8.30112452508508e-11,1.03428794033722e-10)
(-6.76433317177862e-12,-1.3793045787014e-10,8.97811805768462e-11)
(-4.64618031294891e-12,-2.32961924967559e-10,7.20533635835151e-11)
(1.78354617848701e-12,-3.97737213445293e-10,5.24041942006326e-11)
(1.15866215093319e-11,-6.69672533943982e-10,3.88494310730488e-11)
(1.83365416432504e-11,-1.16800157945999e-09,2.71035058954193e-11)
(2.10041348197971e-11,-2.30683912949466e-09,1.43938976407527e-11)
(0,0,0)
(0,0,0)
(0,0,0)
(0,0,0)
(0,0,0)
(0,0,0)
(-3.36177781272504e-12,-8.3096920981412e-12,1.81933444800205e-10)
(-7.07668938836757e-12,-2.02423642157076e-11,1.79499705872795e-10)
(-9.80936617334925e-12,-3.83273422104222e-11,1.74517280110632e-10)
(-1.13101619838215e-11,-6.74141829944079e-11,1.65856073973398e-10)
(-1.17575268006382e-11,-1.16132141073759e-10,1.5358288347647e-10)
(-8.01421173127104e-12,-2.06760146839968e-10,1.39118919109577e-10)
(5.06142149669995e-12,-3.77359325292387e-10,1.26549927593108e-10)
(1.56214112733308e-11,-6.63089222504641e-10,9.80338147598621e-11)
(2.22662181985017e-11,-1.16127631920674e-09,6.76226318538001e-11)
(2.46030039283401e-11,-2.29772997607026e-09,3.51182993042515e-11)
(0,0,0)
(0,0,0)
(0,0,0)
(0,0,0)
(0,0,0)
(0,0,0)
(-3.61503695479124e-12,-5.58288777231359e-12,2.73074161883977e-10)
(-8.25785199684081e-12,-1.4607800620096e-11,2.71122048362911e-10)
(-1.1884812816268e-11,-2.85849672515862e-11,2.67280144321236e-10)
(-1.37776215892156e-11,-5.18145619326063e-11,2.60834251442755e-10)
(-1.31913685985659e-11,-9.40117440776393e-11,2.51363776767535e-10)
(-8.1191561082952e-12,-1.81223540153568e-10,2.3901411915776e-10)
(4.30616021879716e-12,-3.60091558020952e-10,2.22410549672196e-10)
(1.43841155519828e-11,-6.44804168243658e-10,1.84000620846508e-10)
(2.06928281725704e-11,-1.13702210077094e-09,1.31149653414272e-10)
(2.3760894374385e-11,-2.26885085294691e-09,6.87163255495735e-11)
(0,0,0)
(0,0,0)
(0,0,0)
(0,0,0)
(0,0,0)
(0,0,0)
(-3.81075853622056e-12,-3.58193453861402e-12,4.17817323753464e-10)
(-8.15649481997856e-12,-9.75989546119903e-12,4.16252787970866e-10)
(-1.16128073993886e-11,-2.01778774101229e-11,4.1425465496682e-10)
(-1.35510659081006e-11,-3.83030388336788e-11,4.10916043976146e-10)
(-1.04330298144937e-11,-7.36895717158009e-11,4.05020433213535e-10)
(-2.36826613476097e-12,-1.52363984829849e-10,3.9407902977067e-10)
(2.82889346576798e-12,-3.29864807383711e-10,3.63410383875087e-10)
(1.01777137267221e-11,-6.02973935632523e-10,3.17345032248796e-10)
(1.67949669200537e-11,-1.08243861881567e-09,2.33613233597297e-10)
(2.08287890578736e-11,-2.20564020521085e-09,1.25545957927588e-10)
(0,0,0)
(0,0,0)
(0,0,0)
(0,0,0)
(0,0,0)
(0,0,0)
(-4.22092729059671e-12,-1.76272311046214e-12,6.69361975499265e-10)
(-8.54133670179714e-12,-5.79792449833968e-12,6.68894315777187e-10)
(-1.19488110522489e-11,-1.41238418007202e-11,6.68451628100462e-10)
(-1.42563077616236e-11,-2.96505603565377e-11,6.65805734012527e-10)
(-1.19498549590606e-11,-6.23197921883142e-11,6.59704681666376e-10)
(-5.98699362096689e-12,-1.35560038032171e-10,6.4653264832925e-10)
(-1.25299234657386e-13,-2.86499098101943e-10,6.12504080409329e-10)
(6.42163031829335e-12,-5.2454262821084e-10,5.3803931076512e-10)
(1.26994267429008e-11,-9.79351752864174e-10,4.14113380663514e-10)
(1.63677413623849e-11,-2.08374083610467e-09,2.35319146727524e-10)
(0,0,0)
(0,0,0)
(0,0,0)
(0,0,0)
(0,0,0)
(0,0,0)
(-4.30655610872567e-12,-5.5205486879897e-13,1.16122355292423e-09)
(-8.7781608136124e-12,-3.36885911716916e-12,1.16121402151194e-09)
(-1.22869337108458e-11,-9.50657549482724e-12,1.160839564969e-09)
(-1.48126444032242e-11,-2.14679215168446e-11,1.15756241319015e-09)
(-1.37637364398168e-11,-4.77459796722275e-11,1.14901677877234e-09)
(-9.45485599689088e-12,-1.0433475370285e-10,1.12879213051079e-09)
(-3.50361454661538e-12,-2.13783001701944e-10,1.08165994913679e-09)
(3.00262979062858e-12,-4.03493114524692e-10,9.83496955714978e-10)
(8.63931481398551e-12,-8.03799609956726e-10,8.08255824397815e-10)
(1.15651520467389e-11,-1.85114286409774e-09,5.0526384413591e-10)
(0,0,0)
(0,0,0)
(0,0,0)
(0,0,0)
(0,0,0)
(0,0,0)
(-5.18912857486033e-12,1.90060433341195e-13,2.29884540327796e-09)
(-9.44477506522537e-12,-1.57109546792768e-12,2.29968047686162e-09)
(-1.20459376571e-11,-5.1277852002992e-12,2.29916855066358e-09)
(-1.43452858569291e-11,-1.17928349586761e-11,2.29509752434098e-09)
(-1.45620113233859e-11,-2.63262505393308e-11,2.2844346057132e-09)
(-1.0931257334305e-11,-5.72230186585885e-11,2.25927143477382e-09)
(-5.00833667819905e-12,-1.16788066476984e-10,2.20261653837211e-09)
(1.44981221187071e-12,-2.30150665263751e-10,2.08485073251382e-09)
(6.97594965365945e-12,-5.02934091491791e-10,1.85310142084679e-09)
(9.55406684292118e-12,-1.34777582195577e-09,1.34881795544007e-09)
(0,0,0)
(0,0,0)
(0,0,0)
(0,0,0)
(0,0,0)
(0,0,0)
(0,0,0)
(0,0,0)
(0,0,0)
(0,0,0)
(0,0,0)
(0,0,0)
(0,0,0)
(0,0,0)
(0,0,0)
(0,0,0)
(0,0,0)
(0,0,0)
(0,0,0)
(0,0,0)
(0,0,0)
(0,0,0)
(0,0,0)
(0,0,0)
(0,0,0)
(0,0,0)
(0,0,0)
(0,0,0)
(0,0,0)
(0,0,0)
(0,0,0)
(0,0,0)
(0,0,0)
(0,0,0)
(0,0,0)
(0,0,0)
(0,0,0)
(0,0,0)
(0,0,0)
(0,0,0)
(0,0,0)
(0,0,0)
(0,0,0)
(0,0,0)
(0,0,0)
(0,0,0)
(0,0,0)
(0,0,0)
(0,0,0)
(0,0,0)
(0,0,0)
(0,0,0)
(0,0,0)
(0,0,0)
(0,0,0)
(0,0,0)
(0,0,0)
(0,0,0)
(0,0,0)
(0,0,0)
(0,0,0)
(0,0,0)
(0,0,0)
(0,0,0)
(0,0,0)
(0,0,0)
(0,0,0)
(0,0,0)
(0,0,0)
(0,0,0)
(0,0,0)
(0,0,0)
(0,0,0)
(0,0,0)
(0,0,0)
(0,0,0)
(0,0,0)
(0,0,0)
(0,0,0)
(0,0,0)
(0,0,0)
(0,0,0)
(0,0,0)
(0,0,0)
(0,0,0)
(0,0,0)
(0,0,0)
(0,0,0)
(0,0,0)
(0,0,0)
(0,0,0)
(0,0,0)
(0,0,0)
(0,0,0)
(0,0,0)
(0,0,0)
(0,0,0)
(0,0,0)
(0,0,0)
(0,0,0)
(0,0,0)
(0,0,0)
(-6.62754671308858e-13,-2.28870326574593e-11,2.94644540198509e-11)
(-7.38722295588123e-13,-5.06477734953401e-11,2.75063955336079e-11)
(-2.73840734468599e-13,-8.81145488070809e-11,2.42695697032503e-11)
(8.73407235708568e-14,-1.41585451053188e-10,1.9428214246389e-11)
(1.0428918733523e-12,-2.16627074258078e-10,1.27920255577109e-11)
(2.08272558289868e-12,-3.24225272742939e-10,4.41693231178035e-12)
(2.52285474096112e-12,-4.83120249965024e-10,-2.60120561524397e-12)
(3.87071104924842e-12,-7.17950132684125e-10,-5.01266887618964e-12)
(4.64711468305297e-12,-1.05579535518778e-09,-4.24418792602096e-12)
(4.60609212555135e-12,-1.46992542102201e-09,-2.19386985753057e-12)
(0,0,0)
(0,0,0)
(0,0,0)
(0,0,0)
(0,0,0)
(0,0,0)
(-5.59357222000463e-13,-2.13060798788083e-11,6.23099151609022e-11)
(-9.08815083942215e-13,-4.7427065233744e-11,5.93940373304575e-11)
(-1.39264209938852e-12,-8.32836811093859e-11,5.33650164197533e-11)
(-1.32908181803516e-12,-1.34851237412974e-10,4.38097218824006e-11)
(4.32966948870647e-15,-2.0842813013558e-10,2.99330500725797e-11)
(2.07486696442473e-12,-3.17775170069694e-10,1.1912738354566e-11)
(3.42971210333454e-12,-4.82143930764842e-10,-4.64818152146763e-12)
(6.94827639704701e-12,-7.20784252558597e-10,-8.68652103695737e-12)
(9.92577795056249e-12,-1.05980874957346e-09,-6.10681698908795e-12)
(1.04120893436877e-11,-1.47378116798426e-09,-2.68522702889733e-12)
(0,0,0)
(0,0,0)
(0,0,0)
(0,0,0)
(0,0,0)
(0,0,0)
(-1.29342573686211e-12,-1.88597944461476e-11,1.03308868275372e-10)
(-2.05160724777262e-12,-4.1700006564838e-11,9.95691741820017e-11)
(-3.2890363944445e-12,-7.40477632375301e-11,9.17291983785764e-11)
(-3.99224406731158e-12,-1.21013968955322e-10,7.83928042131072e-11)
(-4.09419983386322e-12,-1.90506059795517e-10,5.80343467368375e-11)
(-2.3358766610593e-12,-3.02214548186013e-10,2.92265305455919e-11)
(1.43949378970205e-12,-4.8051357907063e-10,-2.82934511430214e-12)
(1.10343385663028e-11,-7.28621132973032e-10,-7.03242554911835e-12)
(1.67442648837361e-11,-1.06810042219823e-09,-2.12574745744124e-12)
(1.86805219052713e-11,-1.48009838453349e-09,6.0296352641066e-13)
(0,0,0)
(0,0,0)
(0,0,0)
(0,0,0)
(0,0,0)
(0,0,0)
(-2.65310581524399e-12,-1.56248210045137e-11,1.57766389177276e-10)
(-4.94640731833328e-12,-3.42183816926486e-11,1.53458366982872e-10)
(-6.69462495718014e-12,-6.09486944606129e-11,1.45187460982678e-10)
(-8.48465371244515e-12,-1.00293799758489e-10,1.3043919513191e-10)
(-1.08348329742903e-11,-1.60941915488174e-10,1.06496772276973e-10)
(-1.1198789057542e-11,-2.69700523575245e-10,7.02016582033819e-11)
(-5.03957884695336e-12,-4.7361201201705e-10,2.11446494914768e-11)
(1.67492352471286e-11,-7.41996404575923e-10,1.77514665251443e-11)
(2.4320889645056e-11,-1.07834375708454e-09,1.84090804712516e-11)
(2.62888790362758e-11,-1.48480938591502e-09,1.18603330557098e-11)
(0,0,0)
(0,0,0)
(0,0,0)
(0,0,0)
(0,0,0)
(0,0,0)
(-3.65484321066055e-12,-1.17289595859136e-11,2.33914041507159e-10)
(-7.72882722176825e-12,-2.60322679377527e-11,2.29552976148579e-10)
(-1.08905349952799e-11,-4.56731572847225e-11,2.21361927756028e-10)
(-1.46365925491127e-11,-7.42613293690342e-11,2.07983925915304e-10)
(-1.94139594288731e-11,-1.19879471785645e-10,1.88036655827742e-10)
(-2.09818269017439e-11,-2.08540909700261e-10,1.65628782026941e-10)
(1.63097670584364e-11,-4.19965840756218e-10,1.78551863119485e-10)
(2.77475399179174e-11,-7.55649888199798e-10,1.16062086167903e-10)
(3.05163323134356e-11,-1.08312341315418e-09,7.67224209996251e-11)
(3.08421801086387e-11,-1.48053560063075e-09,3.95261070634061e-11)
(0,0,0)
(0,0,0)
(0,0,0)
(0,0,0)
(0,0,0)
(0,0,0)
(-3.66387666737558e-12,-7.54724945979243e-12,3.39613506543505e-10)
(-9.26385311401723e-12,-1.74607728527109e-11,3.36633814985975e-10)
(-1.38460097795413e-11,-3.06363947924326e-11,3.30560349792133e-10)
(-1.78186700121013e-11,-4.92960340380422e-11,3.21232383940885e-10)
(-2.1163883351279e-11,-8.1610967881678e-11,3.0845033044296e-10)
(-2.03751419463062e-11,-1.62274022473164e-10,2.94127400167837e-10)
(1.24893384074338e-11,-4.22486107091396e-10,3.0096811155683e-10)
(2.54048503724655e-11,-7.47934952198154e-10,2.3573824547206e-10)
(2.85426740822982e-11,-1.06091287913173e-09,1.61558890871194e-10)
(2.92665721877645e-11,-1.44978852475537e-09,8.2459744480225e-11)
(0,0,0)
(0,0,0)
(0,0,0)
(0,0,0)
(0,0,0)
(0,0,0)
(-4.06543418139096e-12,-4.26627324413876e-12,4.91622337431049e-10)
(-1.01203327784889e-11,-1.04117981251184e-11,4.89859013331765e-10)
(-1.43282320187364e-11,-1.86930313967344e-11,4.87013359993808e-10)
(-1.63079336221797e-11,-2.9318781759031e-11,4.84150982628928e-10)
(-1.08614058991124e-11,-4.63474322830723e-11,4.84427239314846e-10)
(1.14964329629715e-11,-9.62817710083323e-11,4.91026440953327e-10)
(5.52853581053013e-12,-3.90673946877337e-10,4.32597187658707e-10)
(1.5478204956213e-11,-7.00564389186319e-10,4.11761315648847e-10)
(2.17753766385952e-11,-9.95302328254279e-10,2.84397283422109e-10)
(2.44753778792654e-11,-1.37504002440255e-09,1.45797471054666e-10)
(0,0,0)
(0,0,0)
(0,0,0)
(0,0,0)
(0,0,0)
(0,0,0)
(-4.96393580990474e-12,-1.7328501781729e-12,7.17698061491175e-10)
(-1.05277144065278e-11,-5.65682592778717e-12,7.17249915205531e-10)
(-1.39201832705475e-11,-1.26376936117269e-11,7.16799382673521e-10)
(-1.63378942544272e-11,-2.35240191041234e-11,7.15974164512207e-10)
(-1.33516341384666e-11,-4.89247652394444e-11,7.1725486847248e-10)
(-3.18371003043106e-12,-1.26143260350642e-10,7.21211326317655e-10)
(1.62337401017112e-12,-3.54621566137627e-10,7.04737155837132e-10)
(9.29804673265875e-12,-5.80283156917412e-10,5.99803229683549e-10)
(1.59415177716298e-11,-8.63131473360976e-10,4.36964833147444e-10)
(1.90889160833296e-11,-1.23333627258958e-09,2.35592133530055e-10)
(0,0,0)
(0,0,0)
(0,0,0)
(0,0,0)
(0,0,0)
(0,0,0)
(-5.03913999895279e-12,-4.5384349185375e-13,1.05001411907822e-09)
(-1.02014679200541e-11,-3.18335024907624e-12,1.04994646930642e-09)
(-1.33885722263445e-11,-8.87665856752398e-12,1.04983177267052e-09)
(-1.59420965438015e-11,-1.94831331910727e-11,1.04802877832928e-09)
(-1.495881731049e-11,-4.57240705075689e-11,1.04335033640535e-09)
(-9.43440966708995e-12,-1.1121435659009e-10,1.02919612480998e-09)
(-2.33555635003968e-12,-2.50173029239042e-10,9.84438306093786e-10)
(4.90131184654449e-12,-4.21010497029474e-10,8.65704197600667e-10)
(1.07657766112222e-11,-6.6488968135868e-10,6.70907642196544e-10)
(1.34619540405242e-11,-1.00003836423133e-09,3.85622762790027e-10)
(0,0,0)
(0,0,0)
(0,0,0)
(0,0,0)
(0,0,0)
(0,0,0)
(-5.83414172550206e-12,3.13659328203578e-13,1.4605868340836e-09)
(-1.0503944335601e-11,-1.41160914915582e-12,1.46124045618657e-09)
(-1.31026965343479e-11,-4.86475114026861e-12,1.46098903924831e-09)
(-1.54752021884565e-11,-1.14055096705693e-11,1.45801312949094e-09)
(-1.57250909228268e-11,-2.75574259198775e-11,1.4489195057331e-09)
(-1.14993795916089e-11,-6.36010484492238e-11,1.42329488641732e-09)