/*--------------------------------*- C++ -*----------------------------------*\
| =========                 |                                                 |
| \\      /  F ield         | foam-extend: Open Source Cstd::filesystem::create_directory();FD                    |
|  \\    /   O peration     | Version:     4.0                                |
|   \\  /    A nd           | Web:         http://www.foam-extend.org         |
|    \\/     M anipulation  |                                                 |
\*---------------------------------------------------------------------------*/
FoamFile
{
    version 2.0;
    format ascii;
    class volVectorField;
    location "Data/3359";
    object      H;
}
// * * * * * * * * * * * * * * * * * * * * * * * * * * * * * * * * * * * * * //

dimensions      [0 1 -1 0 0 0 0];

internalField   nonuniform List<vector>
4096
(
(0,0,0)
(0,0,0)
(0,0,0)
(0,0,0)
(0,0,0)
(0,0,0)
(0,0,0)
(0,0,0)
(0,0,0)
(0,0,0)
(0,0,0)
(0,0,0)
(0,0,0)
(0,0,0)
(0,0,0)
(0,0,0)
(0,0,0)
(0,0,0)
(0,0,0)
(0,0,0)
(0,0,0)
(0,0,0)
(0,0,0)
(0,0,0)
(0,0,0)
(0,0,0)
(0,0,0)
(0,0,0)
(0,0,0)
(0,0,0)
(0,0,0)
(0,0,0)
(0,0,0)
(0,0,0)
(0,0,0)
(0,0,0)
(0,0,0)
(0,0,0)
(0,0,0)
(0,0,0)
(0,0,0)
(0,0,0)
(0,0,0)
(0,0,0)
(0,0,0)
(0,0,0)
(0,0,0)
(0,0,0)
(0,0,0)
(0,0,0)
(0,0,0)
(0,0,0)
(0,0,0)
(0,0,0)
(0,0,0)
(0,0,0)
(0,0,0)
(0,0,0)
(0,0,0)
(0,0,0)
(0,0,0)
(0,0,0)
(0,0,0)
(0,0,0)
(0,0,0)
(0,0,0)
(0,0,0)
(0,0,0)
(0,0,0)
(0,0,0)
(0,0,0)
(0,0,0)
(0,0,0)
(0,0,0)
(0,0,0)
(0,0,0)
(0,0,0)
(0,0,0)
(0,0,0)
(0,0,0)
(0,0,0)
(0,0,0)
(0,0,0)
(0,0,0)
(0,0,0)
(0,0,0)
(0,0,0)
(0,0,0)
(0,0,0)
(0,0,0)
(0,0,0)
(0,0,0)
(0,0,0)
(0,0,0)
(0,0,0)
(0,0,0)
(0,0,0)
(0,0,0)
(0,0,0)
(0,0,0)
(0,0,0)
(0,0,0)
(0,0,0)
(0,0,0)
(0,0,0)
(0,0,0)
(0,0,0)
(0,0,0)
(0,0,0)
(0,0,0)
(0,0,0)
(0,0,0)
(0,0,0)
(0,0,0)
(0,0,0)
(0,0,0)
(0,0,0)
(0,0,0)
(0,0,0)
(0,0,0)
(0,0,0)
(0,0,0)
(0,0,0)
(0,0,0)
(0,0,0)
(0,0,0)
(0,0,0)
(0,0,0)
(0,0,0)
(0,0,0)
(0,0,0)
(0,0,0)
(0,0,0)
(0,0,0)
(0,0,0)
(0,0,0)
(0,0,0)
(0,0,0)
(0,0,0)
(0,0,0)
(0,0,0)
(0,0,0)
(0,0,0)
(0,0,0)
(0,0,0)
(0,0,0)
(0,0,0)
(0,0,0)
(0,0,0)
(0,0,0)
(0,0,0)
(0,0,0)
(0,0,0)
(0,0,0)
(0,0,0)
(0,0,0)
(0,0,0)
(0,0,0)
(0,0,0)
(0,0,0)
(0,0,0)
(0,0,0)
(0,0,0)
(0,0,0)
(0,0,0)
(0,0,0)
(0,0,0)
(0,0,0)
(0,0,0)
(0,0,0)
(0,0,0)
(0,0,0)
(0,0,0)
(0,0,0)
(0,0,0)
(0,0,0)
(0,0,0)
(0,0,0)
(0,0,0)
(0,0,0)
(0,0,0)
(0,0,0)
(0,0,0)
(0,0,0)
(0,0,0)
(0,0,0)
(0,0,0)
(0,0,0)
(0,0,0)
(0,0,0)
(0,0,0)
(0,0,0)
(0,0,0)
(0,0,0)
(0,0,0)
(0,0,0)
(0,0,0)
(0,0,0)
(0,0,0)
(0,0,0)
(0,0,0)
(0,0,0)
(0,0,0)
(0,0,0)
(0,0,0)
(0,0,0)
(0,0,0)
(0,0,0)
(0,0,0)
(0,0,0)
(0,0,0)
(0,0,0)
(0,0,0)
(0,0,0)
(0,0,0)
(0,0,0)
(0,0,0)
(0,0,0)
(0,0,0)
(0,0,0)
(0,0,0)
(0,0,0)
(0,0,0)
(0,0,0)
(0,0,0)
(0,0,0)
(0,0,0)
(0,0,0)
(0,0,0)
(0,0,0)
(0,0,0)
(0,0,0)
(0,0,0)
(0,0,0)
(0,0,0)
(0,0,0)
(0,0,0)
(0,0,0)
(0,0,0)
(0,0,0)
(0,0,0)
(0,0,0)
(0,0,0)
(0,0,0)
(0,0,0)
(0,0,0)
(0,0,0)
(0,0,0)
(0,0,0)
(0,0,0)
(0,0,0)
(0,0,0)
(0,0,0)
(0,0,0)
(0,0,0)
(0,0,0)
(0,0,0)
(0,0,0)
(0,0,0)
(0,0,0)
(0,0,0)
(0,0,0)
(0,0,0)
(0,0,0)
(0,0,0)
(0,0,0)
(0,0,0)
(0,0,0)
(0,0,0)
(0,0,0)
(0,0,0)
(0,0,0)
(0,0,0)
(0,0,0)
(0,0,0)
(0,0,0)
(0,0,0)
(0,0,0)
(0,0,0)
(0,0,0)
(0,0,0)
(0,0,0)
(0,0,0)
(0,0,0)
(0,0,0)
(0,0,0)
(0,0,0)
(0,0,0)
(0,0,0)
(0,0,0)
(0,0,0)
(0,0,0)
(0,0,0)
(0,0,0)
(0,0,0)
(0,0,0)
(0,0,0)
(0,0,0)
(0,0,0)
(0,0,0)
(0,0,0)
(0,0,0)
(0,0,0)
(0,0,0)
(0,0,0)
(0,0,0)
(0,0,0)
(0,0,0)
(0,0,0)
(0,0,0)
(0,0,0)
(0,0,0)
(0,0,0)
(0,0,0)
(0,0,0)
(0,0,0)
(0,0,0)
(0,0,0)
(0,0,0)
(0,0,0)
(0,0,0)
(0,0,0)
(0,0,0)
(0,0,0)
(0,0,0)
(0,0,0)
(0,0,0)
(0,0,0)
(0,0,0)
(0,0,0)
(0,0,0)
(0,0,0)
(0,0,0)
(0,0,0)
(0,0,0)
(0,0,0)
(0,0,0)
(0,0,0)
(0,0,0)
(0,0,0)
(0,0,0)
(0,0,0)
(0,0,0)
(0,0,0)
(0,0,0)
(0,0,0)
(0,0,0)
(0,0,0)
(0,0,0)
(0,0,0)
(0,0,0)
(0,0,0)
(0,0,0)
(0,0,0)
(0,0,0)
(0,0,0)
(0,0,0)
(0,0,0)
(0,0,0)
(0,0,0)
(0,0,0)
(0,0,0)
(0,0,0)
(0,0,0)
(0,0,0)
(0,0,0)
(0,0,0)
(0,0,0)
(0,0,0)
(0,0,0)
(0,0,0)
(0,0,0)
(0,0,0)
(0,0,0)
(0,0,0)
(0,0,0)
(0,0,0)
(0,0,0)
(0,0,0)
(0,0,0)
(0,0,0)
(0,0,0)
(0,0,0)
(0,0,0)
(0,0,0)
(0,0,0)
(0,0,0)
(0,0,0)
(0,0,0)
(0,0,0)
(0,0,0)
(0,0,0)
(0,0,0)
(0,0,0)
(0,0,0)
(0,0,0)
(0,0,0)
(0,0,0)
(0,0,0)
(0,0,0)
(0,0,0)
(0,0,0)
(0,0,0)
(0,0,0)
(0,0,0)
(0,0,0)
(0,0,0)
(0,0,0)
(0,0,0)
(0,0,0)
(0,0,0)
(0,0,0)
(0,0,0)
(0,0,0)
(0,0,0)
(0,0,0)
(0,0,0)
(0,0,0)
(0,0,0)
(0,0,0)
(0,0,0)
(0,0,0)
(0,0,0)
(0,0,0)
(0,0,0)
(0,0,0)
(0,0,0)
(0,0,0)
(0,0,0)
(0,0,0)
(0,0,0)
(0,0,0)
(0,0,0)
(0,0,0)
(0,0,0)
(0,0,0)
(0,0,0)
(0,0,0)
(0,0,0)
(0,0,0)
(0,0,0)
(0,0,0)
(0,0,0)
(0,0,0)
(0,0,0)
(0,0,0)
(0,0,0)
(0,0,0)
(0,0,0)
(0,0,0)
(0,0,0)
(0,0,0)
(0,0,0)
(0,0,0)
(0,0,0)
(0,0,0)
(0,0,0)
(0,0,0)
(0,0,0)
(0,0,0)
(0,0,0)
(0,0,0)
(0,0,0)
(0,0,0)
(0,0,0)
(0,0,0)
(0,0,0)
(0,0,0)
(0,0,0)
(0,0,0)
(0,0,0)
(0,0,0)
(0,0,0)
(0,0,0)
(0,0,0)
(0,0,0)
(0,0,0)
(0,0,0)
(0,0,0)
(0,0,0)
(0,0,0)
(0,0,0)
(0,0,0)
(0,0,0)
(0,0,0)
(0,0,0)
(0,0,0)
(0,0,0)
(0,0,0)
(0,0,0)
(0,0,0)
(0,0,0)
(0,0,0)
(0,0,0)
(0,0,0)
(0,0,0)
(0,0,0)
(0,0,0)
(0,0,0)
(0,0,0)
(0,0,0)
(0,0,0)
(0,0,0)
(0,0,0)
(0,0,0)
(0,0,0)
(0,0,0)
(0,0,0)
(0,0,0)
(0,0,0)
(0,0,0)
(0,0,0)
(0,0,0)
(0,0,0)
(0,0,0)
(0,0,0)
(0,0,0)
(0,0,0)
(0,0,0)
(0,0,0)
(0,0,0)
(0,0,0)
(0,0,0)
(0,0,0)
(0,0,0)
(0,0,0)
(0,0,0)
(0,0,0)
(0,0,0)
(0,0,0)
(0,0,0)
(0,0,0)
(0,0,0)
(0,0,0)
(0,0,0)
(0,0,0)
(0,0,0)
(0,0,0)
(0,0,0)
(0,0,0)
(0,0,0)
(0,0,0)
(0,0,0)
(0,0,0)
(0,0,0)
(0,0,0)
(0,0,0)
(0,0,0)
(0,0,0)
(0,0,0)
(0,0,0)
(0,0,0)
(0,0,0)
(0,0,0)
(0,0,0)
(0,0,0)
(0,0,0)
(0,0,0)
(0,0,0)
(0,0,0)
(0,0,0)
(0,0,0)
(0,0,0)
(0,0,0)
(0,0,0)
(0,0,0)
(0,0,0)
(0,0,0)
(0,0,0)
(0,0,0)
(0,0,0)
(0,0,0)
(0,0,0)
(0,0,0)
(0,0,0)
(0,0,0)
(0,0,0)
(0,0,0)
(0,0,0)
(0,0,0)
(0,0,0)
(0,0,0)
(0,0,0)
(0,0,0)
(0,0,0)
(0,0,0)
(0,0,0)
(0,0,0)
(0,0,0)
(0,0,0)
(0,0,0)
(0,0,0)
(0,0,0)
(0,0,0)
(0,0,0)
(0,0,0)
(0,0,0)
(0,0,0)
(0,0,0)
(0,0,0)
(0,0,0)
(0,0,0)
(0,0,0)
(0,0,0)
(0,0,0)
(0,0,0)
(0,0,0)
(0,0,0)
(0,0,0)
(0,0,0)
(0,0,0)
(0,0,0)
(0,0,0)
(0,0,0)
(0,0,0)
(0,0,0)
(0,0,0)
(0,0,0)
(0,0,0)
(0,0,0)
(0,0,0)
(0,0,0)
(0,0,0)
(0,0,0)
(0,0,0)
(0,0,0)
(0,0,0)
(0,0,0)
(0,0,0)
(0,0,0)
(0,0,0)
(0,0,0)
(0,0,0)
(0,0,0)
(0,0,0)
(0,0,0)
(0,0,0)
(0,0,0)
(0,0,0)
(0,0,0)
(0,0,0)
(0,0,0)
(0,0,0)
(0,0,0)
(0,0,0)
(0,0,0)
(0,0,0)
(0,0,0)
(0,0,0)
(0,0,0)
(0,0,0)
(0,0,0)
(0,0,0)
(0,0,0)
(0,0,0)
(0,0,0)
(0,0,0)
(0,0,0)
(0,0,0)
(0,0,0)
(0,0,0)
(0,0,0)
(0,0,0)
(0,0,0)
(0,0,0)
(0,0,0)
(0,0,0)
(0,0,0)
(0,0,0)
(0,0,0)
(0,0,0)
(0,0,0)
(0,0,0)
(0,0,0)
(0,0,0)
(0,0,0)
(0,0,0)
(0,0,0)
(0,0,0)
(0,0,0)
(0,0,0)
(0,0,0)
(0,0,0)
(0,0,0)
(0,0,0)
(0,0,0)
(0,0,0)
(0,0,0)
(0,0,0)
(0,0,0)
(0,0,0)
(0,0,0)
(0,0,0)
(0,0,0)
(0,0,0)
(0,0,0)
(0,0,0)
(0,0,0)
(0,0,0)
(0,0,0)
(0,0,0)
(0,0,0)
(0,0,0)
(0,0,0)
(0,0,0)
(0,0,0)
(0,0,0)
(0,0,0)
(0,0,0)
(0,0,0)
(0,0,0)
(0,0,0)
(0,0,0)
(0,0,0)
(0,0,0)
(0,0,0)
(0,0,0)
(0,0,0)
(0,0,0)
(0,0,0)
(0,0,0)
(0,0,0)
(0,0,0)
(0,0,0)
(0,0,0)
(0,0,0)
(0,0,0)
(0,0,0)
(0,0,0)
(0,0,0)
(0,0,0)
(0,0,0)
(0,0,0)
(0,0,0)
(0,0,0)
(0,0,0)
(0,0,0)
(0,0,0)
(0,0,0)
(0,0,0)
(0,0,0)
(0,0,0)
(0,0,0)
(0,0,0)
(0,0,0)
(0,0,0)
(0,0,0)
(0,0,0)
(0,0,0)
(0,0,0)
(0,0,0)
(0,0,0)
(0,0,0)
(0,0,0)
(0,0,0)
(0,0,0)
(0,0,0)
(0,0,0)
(0,0,0)
(0,0,0)
(0,0,0)
(0,0,0)
(0,0,0)
(0,0,0)
(0,0,0)
(0,0,0)
(0,0,0)
(0,0,0)
(0,0,0)
(0,0,0)
(0,0,0)
(0,0,0)
(0,0,0)
(0,0,0)
(0,0,0)
(0,0,0)
(0,0,0)
(0,0,0)
(0,0,0)
(0,0,0)
(0,0,0)
(0,0,0)
(0,0,0)
(0,0,0)
(0,0,0)
(0,0,0)
(0,0,0)
(0,0,0)
(0,0,0)
(0,0,0)
(0,0,0)
(0,0,0)
(0,0,0)
(0,0,0)
(0,0,0)
(0,0,0)
(0,0,0)
(0,0,0)
(0,0,0)
(0,0,0)
(0,0,0)
(0,0,0)
(0,0,0)
(0,0,0)
(0,0,0)
(0,0,0)
(0,0,0)
(0,0,0)
(0,0,0)
(0,0,0)
(0,0,0)
(0,0,0)
(0,0,0)
(0,0,0)
(0,0,0)
(0,0,0)
(0,0,0)
(0,0,0)
(0,0,0)
(-3.0406972158317e-13,1.33514517419689e-11,-1.41902320930831e-11)
(7.84454866873364e-14,2.92290238009163e-11,-1.39244622628368e-11)
(5.71822620776513e-13,4.95199002613733e-11,-1.25854501920613e-11)
(2.28823335213874e-12,7.80013338165605e-11,-1.05355177600386e-11)
(2.08858243214764e-12,1.20051191188632e-10,-7.8657391510768e-12)
(1.30912916195692e-12,1.87275347288982e-10,-5.61951279217873e-12)
(6.47284942896555e-13,2.97695931575098e-10,-3.70904828748389e-12)
(-4.55175287099646e-13,4.81973408616447e-10,-2.57847249164683e-12)
(-1.4512640441191e-12,7.87453575378966e-10,-1.9170394455506e-12)
(-1.47982552245953e-12,1.21366454365782e-09,-1.18973333594333e-12)
(0,0,0)
(0,0,0)
(0,0,0)
(0,0,0)
(0,0,0)
(0,0,0)
(2.24082471194874e-13,1.27498472725409e-11,-3.05905252460289e-11)
(1.40318733559331e-12,2.77636702337174e-11,-3.00627529321859e-11)
(2.72830984157515e-12,4.71651471543046e-11,-2.77057969259759e-11)
(4.65124532583808e-12,7.51442152051988e-11,-2.41139706135778e-11)
(4.37605911843469e-12,1.17352418579684e-10,-1.94278183366516e-11)
(3.53280655863662e-12,1.85121138507122e-10,-1.43265246157494e-11)
(1.64879536297221e-12,2.96489792299219e-10,-9.42391864096935e-12)
(-6.72212574241357e-13,4.81418466965894e-10,-6.52022292399818e-12)
(-2.33045908232732e-12,7.86876215491154e-10,-4.66025886748656e-12)
(-3.67151095988408e-12,1.21299238249885e-09,-2.54734322732678e-12)
(0,0,0)
(0,0,0)
(0,0,0)
(0,0,0)
(0,0,0)
(0,0,0)
(6.33970733081622e-13,1.20382684674532e-11,-5.17631119205188e-11)
(2.7183460300033e-12,2.55450081597041e-11,-5.06524412756192e-11)
(5.01716556988715e-12,4.3423156700903e-11,-4.73630741343999e-11)
(6.26660300304451e-12,6.98280751651003e-11,-4.21576604544317e-11)
(5.74200784852595e-12,1.11371496440593e-10,-3.54687805260238e-11)
(3.81738680393122e-12,1.79808800320603e-10,-2.74423743065435e-11)
(3.82862739445398e-13,2.93377536062104e-10,-1.96208905350549e-11)
(-3.8018559665851e-12,4.79979329873507e-10,-1.46184104723238e-11)
(-6.01197146739972e-12,7.85583789751637e-10,-1.0826086949954e-11)
(-7.97466137061932e-12,1.21156803031443e-09,-5.74356687962817e-12)
(0,0,0)
(0,0,0)
(0,0,0)
(0,0,0)
(0,0,0)
(0,0,0)
(-1.3935863554177e-13,1.08514580215372e-11,-8.0215787129591e-11)
(1.28166702178795e-12,2.26764319333797e-11,-7.88187694029748e-11)
(3.5454854670505e-12,3.86920026052575e-11,-7.56339083780745e-11)
(5.66207977448699e-12,6.25831881253048e-11,-6.96422352365124e-11)
(5.99536885972835e-12,1.02291527678754e-10,-6.17071710519412e-11)
(2.76076494529303e-12,1.70683825918569e-10,-5.20958493451418e-11)
(-2.75122856914549e-12,2.86728637032531e-10,-4.19230187079275e-11)
(-8.45360905852828e-12,4.75964044295348e-10,-3.27587039007083e-11)
(-1.01224183531126e-11,7.8174673259631e-10,-2.37949616923485e-11)
(-1.16464295186443e-11,1.20763452362533e-09,-1.26395975951941e-11)
(0,0,0)
(0,0,0)
(0,0,0)
(0,0,0)
(0,0,0)
(0,0,0)
(-4.05292668215787e-13,9.03573597878779e-12,-1.21523414062276e-10)
(3.81367481320808e-13,1.89686733470176e-11,-1.20574314178846e-10)
(2.04063759544961e-12,3.22998840019001e-11,-1.18032228783099e-10)
(4.07859630285517e-12,5.32506540162751e-11,-1.12471324747644e-10)
(3.73122343395763e-12,9.02873317963748e-11,-1.0475747514436e-10)
(-1.15286875012501e-12,1.57097836749713e-10,-9.57081818277453e-11)
(-8.81585919180287e-12,2.74474203732347e-10,-8.47269660302487e-11)
(-1.45918466541612e-11,4.67204949397528e-10,-6.83294752353472e-11)
(-1.59820689499215e-11,7.72848847862054e-10,-4.88381811307395e-11)
(-1.73672844117489e-11,1.19783705299463e-09,-2.59876044895281e-11)
(0,0,0)
(0,0,0)
(0,0,0)
(0,0,0)
(0,0,0)
(0,0,0)
(-1.05451091447437e-12,7.6282599202628e-12,-1.86515840173371e-10)
(-1.12566475951732e-12,1.56452426785356e-11,-1.85461529807275e-10)
(2.44713458969691e-13,2.58292006438171e-11,-1.83204275188119e-10)
(1.0579101761116e-12,4.35027651895144e-11,-1.7880802673637e-10)
(-1.14004594286139e-12,7.727440109116e-11,-1.7240156586609e-10)
(-7.05551214990793e-12,1.4146733059554e-10,-1.63879222962452e-10)
(-1.49106745679954e-11,2.59069042578671e-10,-1.49740100271471e-10)
(-2.09808164641207e-11,4.50632057101941e-10,-1.25128636461824e-10)
(-2.35810714868087e-11,7.53218265936188e-10,-9.10389237149823e-11)
(-2.52655390151003e-11,1.17516617919861e-09,-4.89752650177882e-11)
(0,0,0)
(0,0,0)
(0,0,0)
(0,0,0)
(0,0,0)
(0,0,0)
(-1.26603333133392e-12,5.89858118820599e-12,-2.91977454664006e-10)
(-1.92747044810624e-12,1.20911627075877e-11,-2.90912854142958e-10)
(-1.59591858786361e-12,1.99022584323245e-11,-2.88729001670185e-10)
(-2.28798476328034e-12,3.46438474309299e-11,-2.8538466086422e-10)
(-6.82565078529331e-12,6.45484187502005e-11,-2.80245820336313e-10)
(-1.33112549074616e-11,1.23810543876958e-10,-2.7103735818996e-10)
(-1.98745620633016e-11,2.36337016801544e-10,-2.50641361713196e-10)
(-2.59246147029875e-11,4.19545691549653e-10,-2.16101695984927e-10)
(-2.95787361142644e-11,7.13596365170125e-10,-1.61485609087922e-10)
(-3.13720360979111e-11,1.12894947215268e-09,-8.8284454502358e-11)
(0,0,0)
(0,0,0)
(0,0,0)
(0,0,0)
(0,0,0)
(0,0,0)
(-3.92629502765618e-13,4.51921401779398e-12,-4.72459034762069e-10)
(-6.33874129908013e-13,9.1614596418387e-12,-4.71424708139524e-10)
(-1.38900717893141e-12,1.53098117498249e-11,-4.6909193868889e-10)
(-3.91009797926205e-12,2.77944640932276e-11,-4.65508997911134e-10)
(-9.70039951957545e-12,5.34118677834815e-11,-4.59395511165887e-10)
(-1.61180543871624e-11,1.05372526461732e-10,-4.47292930249216e-10)
(-2.29702336124801e-11,2.03005395871108e-10,-4.20618243652267e-10)
(-2.93028511293525e-11,3.662100569738e-10,-3.7007180701131e-10)
(-3.41830709463212e-11,6.4163063771197e-10,-2.86458573179275e-10)
(-3.71337719021264e-11,1.0429091883665e-09,-1.62566630572905e-10)
(0,0,0)
(0,0,0)
(0,0,0)
(0,0,0)
(0,0,0)
(0,0,0)
(1.62631718569786e-12,3.32892160722767e-12,-7.75083928143816e-10)
(3.06666692380459e-12,6.49674920755892e-12,-7.74080369126721e-10)
(1.14814563691576e-12,1.10069967170913e-11,-7.71652310260708e-10)
(-3.77185283344779e-12,2.0499327359495e-11,-7.67405968137031e-10)
(-1.00481296751598e-11,3.96212407809371e-11,-7.59329186797357e-10)
(-1.69353939609898e-11,7.89162568369484e-11,-7.42598775303355e-10)
(-2.43305908992754e-11,1.52646349919963e-10,-7.07142733153957e-10)
(-3.20236214820656e-11,2.82726079447844e-10,-6.38810279202923e-10)
(-3.81939769340038e-11,5.17776770176277e-10,-5.17147986182272e-10)
(-4.19296581792797e-11,8.80826923386044e-10,-3.11156718709859e-10)
(0,0,0)
(0,0,0)
(0,0,0)
(0,0,0)
(0,0,0)
(0,0,0)
(3.11026354251896e-12,1.77471638683714e-12,-1.1998147814293e-09)
(5.68779259679406e-12,3.50158692619968e-12,-1.19857856066906e-09)
(3.06038318322219e-12,5.86957133658765e-12,-1.1955429656041e-09)
(-2.6970024696584e-12,1.10856796661199e-11,-1.19055621241501e-09)
(-8.92393138450912e-12,2.12699528957798e-11,-1.18077735634098e-09)
(-1.67293867663997e-11,4.25245349590377e-11,-1.16080853438977e-09)
(-2.5043473791578e-11,8.34632736426652e-11,-1.11918322756229e-09)
(-3.33365686780945e-11,1.60233406845944e-10,-1.0367559971483e-09)
(-4.02947740897732e-11,3.108916964898e-10,-8.77733063945394e-10)
(-4.46660843051593e-11,5.68956450123628e-10,-5.68040391936342e-10)
(0,0,0)
(0,0,0)
(0,0,0)
(0,0,0)
(0,0,0)
(0,0,0)
(0,0,0)
(0,0,0)
(0,0,0)
(0,0,0)
(0,0,0)
(0,0,0)
(0,0,0)
(0,0,0)
(0,0,0)
(0,0,0)
(0,0,0)
(0,0,0)
(0,0,0)
(0,0,0)
(0,0,0)
(0,0,0)
(0,0,0)
(0,0,0)
(0,0,0)
(0,0,0)
(0,0,0)
(0,0,0)
(0,0,0)
(0,0,0)
(0,0,0)
(0,0,0)
(0,0,0)
(0,0,0)
(0,0,0)
(0,0,0)
(0,0,0)
(0,0,0)
(0,0,0)
(0,0,0)
(0,0,0)
(0,0,0)
(0,0,0)
(0,0,0)
(0,0,0)
(0,0,0)
(0,0,0)
(0,0,0)
(0,0,0)
(0,0,0)
(0,0,0)
(0,0,0)
(0,0,0)
(0,0,0)
(0,0,0)
(0,0,0)
(0,0,0)
(0,0,0)
(0,0,0)
(0,0,0)
(0,0,0)
(0,0,0)
(0,0,0)
(0,0,0)
(0,0,0)
(0,0,0)
(0,0,0)
(0,0,0)
(0,0,0)
(0,0,0)
(0,0,0)
(0,0,0)
(0,0,0)
(0,0,0)
(0,0,0)
(0,0,0)
(0,0,0)
(0,0,0)
(0,0,0)
(0,0,0)
(0,0,0)
(0,0,0)
(0,0,0)
(0,0,0)
(0,0,0)
(0,0,0)
(0,0,0)
(0,0,0)
(0,0,0)
(0,0,0)
(0,0,0)
(0,0,0)
(0,0,0)
(0,0,0)
(0,0,0)
(0,0,0)
(0,0,0)
(0,0,0)
(0,0,0)
(0,0,0)
(0,0,0)
(0,0,0)
(3.17649175963763e-14,2.44164197893966e-11,-2.67938866571275e-11)
(2.04786983108258e-13,5.34646038064613e-11,-2.58899869400303e-11)
(8.76643295824939e-13,9.04513810097821e-11,-2.35055879810546e-11)
(2.47557335452588e-12,1.42215662919529e-10,-1.97709907973381e-11)
(2.54112868215764e-12,2.18123612484045e-10,-1.44097312313541e-11)
(1.55287343917855e-12,3.34809099220319e-10,-8.86164759161108e-12)
(7.22848423054803e-13,5.23130789531275e-10,-4.47430620314053e-12)
(-5.61666682811297e-13,8.4267648329689e-10,-2.18872859412654e-12)
(-1.60121026634701e-12,1.45339265827695e-09,-1.51225770848917e-12)
(-1.99739769984628e-12,2.8521965185392e-09,-9.19561340202216e-13)
(0,0,0)
(0,0,0)
(0,0,0)
(0,0,0)
(0,0,0)
(0,0,0)
(4.07888962438318e-13,2.38000626088796e-11,-5.67252992309781e-11)
(1.26489340341125e-12,5.13622749548686e-11,-5.52339443626421e-11)
(2.87847398255806e-12,8.6735462075386e-11,-5.10069021822962e-11)
(5.28123308900784e-12,1.37195294403242e-10,-4.41845730589014e-11)
(5.25568753662959e-12,2.1241472240314e-10,-3.39300590348177e-11)
(3.9425387703529e-12,3.29782677586964e-10,-2.17612239389302e-11)
(1.85735588296652e-12,5.20505736130053e-10,-1.08632646128994e-11)
(-1.09303953799628e-12,8.42158797889687e-10,-5.56627423942455e-12)
(-3.15094898250098e-12,1.45369323351631e-09,-3.77531256716705e-12)
(-4.79450200264834e-12,2.8524924697835e-09,-2.11782768544168e-12)
(0,0,0)
(0,0,0)
(0,0,0)
(0,0,0)
(0,0,0)
(0,0,0)
(7.10110534099076e-13,2.27069655086096e-11,-9.53834512270574e-11)
(2.29755511511225e-12,4.74485251593123e-11,-9.30241411526791e-11)
(4.54290598558831e-12,7.97714929147508e-11,-8.71394241189393e-11)
(6.82261011442841e-12,1.26821805370931e-10,-7.73122678485575e-11)
(6.79557039083684e-12,1.99722465041763e-10,-6.26030306091398e-11)
(5.12087743448161e-12,3.18147850078144e-10,-4.35999817835398e-11)
(2.02928170631783e-12,5.14973880587838e-10,-2.55304828554586e-11)
(-3.57889391096735e-12,8.41740987951971e-10,-1.70914170115853e-11)
(-7.25743438247351e-12,1.4545894810266e-09,-1.27203357773727e-11)
(-9.78472156125662e-12,2.85289413789341e-09,-6.9037440508378e-12)
(0,0,0)
(0,0,0)
(0,0,0)
(0,0,0)
(0,0,0)
(0,0,0)
(2.79345680591317e-13,2.02649189175283e-11,-1.47598619346084e-10)
(1.80456458324797e-12,4.15803266533407e-11,-1.44539893986902e-10)
(3.94593092883855e-12,6.98049983375227e-11,-1.38240474525345e-10)
(7.0595496989503e-12,1.11384940502129e-10,-1.26982953024215e-10)
(8.38824303530197e-12,1.79273423118194e-10,-1.0997900630714e-10)
(6.17392347696003e-12,2.97262426071567e-10,-8.75300885837697e-11)
(3.38889923814534e-13,5.03114729963293e-10,-6.41627199583454e-11)
(-8.65825636905082e-12,8.39212666153766e-10,-4.93285518165125e-11)
(-1.23798977154786e-11,1.45244293125184e-09,-3.63636701752023e-11)
(-1.44885564822397e-11,2.84913276206552e-09,-1.94521726665742e-11)
(0,0,0)
(0,0,0)
(0,0,0)
(0,0,0)
(0,0,0)
(0,0,0)
(5.3083506878458e-14,1.65222345317116e-11,-2.21192032692895e-10)
(1.16271275405486e-12,3.40350381496978e-11,-2.18642419908982e-10)
(2.95041691807359e-12,5.69201156351565e-11,-2.13314886784175e-10)
(6.11263552632248e-12,9.17397690585198e-11,-2.03229094912461e-10)
(7.69486082257586e-12,1.5186656267705e-10,-1.88243352066697e-10)
(3.4964216064881e-12,2.64311797236541e-10,-1.70636842934013e-10)
(-9.80818883296144e-12,4.75724862424215e-10,-1.55418295899921e-10)
(-1.75102484630233e-11,8.28790514275348e-10,-1.21758273571503e-10)
(-1.92020636655437e-11,1.44122561684735e-09,-8.58052334463558e-11)
(-2.06840151056218e-11,2.8348367627768e-09,-4.49797440420986e-11)
(0,0,0)
(0,0,0)
(0,0,0)
(0,0,0)
(0,0,0)
(0,0,0)
(-3.79142548513056e-13,1.32347538783839e-11,-3.3247369545125e-10)
(1.71160592270562e-13,2.69066959722787e-11,-3.30463582041157e-10)
(1.77540721870938e-12,4.3795848066679e-11,-3.26276413197276e-10)
(3.51036706442553e-12,7.14952905508662e-11,-3.18819196186964e-10)
(3.06359349447257e-12,1.23764516188324e-10,-3.0791003031983e-10)
(-3.53784812235015e-12,2.31364225128455e-10,-2.93968451600749e-10)
(-1.67901126004802e-11,4.52033840142121e-10,-2.7469826661485e-10)
(-2.3984163658756e-11,8.03603810843601e-10,-2.28520255519297e-10)
(-2.6022829418031e-11,1.40864055611528e-09,-1.64120911330659e-10)
(-2.80240969863642e-11,2.79641011429098e-09,-8.66802589839883e-11)
(0,0,0)
(0,0,0)
(0,0,0)
(0,0,0)
(0,0,0)
(0,0,0)
(-9.51266681971329e-13,1.02812159712379e-11,-5.12261583276969e-10)
(-1.18161985512889e-12,2.05287995148749e-11,-5.10655647731404e-10)
(-3.47812711324844e-13,3.26977693411978e-11,-5.07392290082585e-10)
(-5.77441953492345e-13,5.43407269199918e-11,-5.02827302846838e-10)
(-4.89756196489676e-12,9.81956193748861e-11,-4.963285548291e-10)
(-1.52692339689807e-11,1.94795897487465e-10,-4.84444250436457e-10)
(-2.10826068611376e-11,4.13639931746089e-10,-4.47985779151403e-10)
(-2.72050670243138e-11,7.49394769324486e-10,-3.92325875294847e-10)
(-3.08141632416908e-11,1.33829541526682e-09,-2.89501159273963e-10)
(-3.36162068136932e-11,2.71495146337558e-09,-1.55930642974284e-10)
(0,0,0)
(0,0,0)
(0,0,0)
(0,0,0)
(0,0,0)
(0,0,0)
(-2.36663714744369e-13,7.97433885614813e-12,-8.24761490683067e-10)
(-3.01933146260793e-13,1.52701790579253e-11,-8.22898316653879e-10)
(-6.69132923950481e-13,2.46697201956571e-11,-8.19692285031166e-10)
(-2.72844799078167e-12,4.33630996745304e-11,-8.15397829135109e-10)
(-8.01235343372443e-12,8.35085894532746e-11,-8.08000646452096e-10)
(-1.63364713593012e-11,1.73070481452597e-10,-7.92618617409907e-10)
(-2.31576243022413e-11,3.58570031432815e-10,-7.51800730925807e-10)
(-2.94321074355799e-11,6.50070950751855e-10,-6.61017159011561e-10)
(-3.42211460168385e-11,1.20827999747539e-09,-5.09148322175333e-10)
(-3.76181374950456e-11,2.56190728553184e-09,-2.89283094755857e-10)
(0,0,0)
(0,0,0)
(0,0,0)
(0,0,0)
(0,0,0)
(0,0,0)
(2.17696338899329e-12,5.52021793303452e-12,-1.42932078205201e-09)
(3.63377033915085e-12,1.05266709463276e-11,-1.42728084752617e-09)
(2.03922889374648e-12,1.75032123586256e-11,-1.42346064322186e-09)
(-2.43498647973908e-12,3.21390431844994e-11,-1.4176386010823e-09)
(-8.42725328399477e-12,6.41205239649456e-11,-1.40621524131482e-09)
(-1.59997142324925e-11,1.33224627139392e-10,-1.3809051973462e-09)
(-2.34799685730014e-11,2.67248608445501e-10,-1.32299156740166e-09)
(-3.1193241900827e-11,4.98952820863373e-10,-1.20303116475877e-09)
(-3.73001707199448e-11,9.897217195548e-10,-9.89243989400248e-10)
(-4.12159036269954e-11,2.27343534143997e-09,-6.1867602718076e-10)
(0,0,0)
(0,0,0)
(0,0,0)
(0,0,0)
(0,0,0)
(0,0,0)
(3.64875916912405e-12,2.85593396882172e-12,-2.82531294956254e-09)
(6.15378445802912e-12,5.66697919829274e-12,-2.82293396908469e-09)
(3.94320133071945e-12,9.37168513443178e-12,-2.81794072412635e-09)
(-1.39017887757387e-12,1.7443676714155e-11,-2.81038306137423e-09)
(-7.6228004399414e-12,3.50688145039652e-11,-2.7952925764381e-09)
(-1.58301586348618e-11,7.27069634666727e-11,-2.76279252256466e-09)
(-2.40074305629239e-11,1.45281151612084e-10,-2.6924879591068e-09)
(-3.21260950350226e-11,2.83913205758435e-10,-2.54945938122409e-09)
(-3.90957496090281e-11,6.18334204466962e-10,-2.26780351435294e-09)
(-4.37500261177679e-11,1.65372356653086e-09,-1.65169727692723e-09)
(0,0,0)
(0,0,0)
(0,0,0)
(0,0,0)
(0,0,0)
(0,0,0)
(0,0,0)
(0,0,0)
(0,0,0)
(0,0,0)
(0,0,0)
(0,0,0)
(0,0,0)
(0,0,0)
(0,0,0)
(0,0,0)
(0,0,0)
(0,0,0)
(0,0,0)
(0,0,0)
(0,0,0)
(0,0,0)
(0,0,0)
(0,0,0)
(0,0,0)
(0,0,0)
(0,0,0)
(0,0,0)
(0,0,0)
(0,0,0)
(0,0,0)
(0,0,0)
(0,0,0)
(0,0,0)
(0,0,0)
(0,0,0)
(0,0,0)
(0,0,0)
(0,0,0)
(0,0,0)
(0,0,0)
(0,0,0)
(0,0,0)
(0,0,0)
(0,0,0)
(0,0,0)
(0,0,0)
(0,0,0)
(0,0,0)
(0,0,0)
(0,0,0)
(0,0,0)
(0,0,0)
(0,0,0)
(0,0,0)
(0,0,0)
(0,0,0)
(0,0,0)
(0,0,0)
(0,0,0)
(0,0,0)
(0,0,0)
(0,0,0)
(0,0,0)
(0,0,0)
(0,0,0)
(0,0,0)
(0,0,0)
(0,0,0)
(0,0,0)
(0,0,0)
(0,0,0)
(0,0,0)
(0,0,0)
(0,0,0)
(0,0,0)
(0,0,0)
(0,0,0)
(0,0,0)
(0,0,0)
(0,0,0)
(0,0,0)
(0,0,0)
(0,0,0)
(0,0,0)
(0,0,0)
(0,0,0)
(0,0,0)
(0,0,0)
(0,0,0)
(0,0,0)
(0,0,0)
(0,0,0)
(0,0,0)
(0,0,0)
(0,0,0)
(0,0,0)
(0,0,0)
(0,0,0)
(0,0,0)
(0,0,0)
(0,0,0)
(-2.5577761941852e-13,3.23135417684637e-11,-3.52824229855058e-11)
(-7.72831244953221e-14,7.12493685639236e-11,-3.43609514550873e-11)
(8.57965047500888e-13,1.19818369131574e-10,-3.10682908662297e-11)
(2.13468230437058e-12,1.85642574511805e-10,-2.51821205769008e-11)
(2.7019351235475e-12,2.79605206259483e-10,-1.70224795037038e-11)
(2.19195368425118e-12,4.15878111763935e-10,-7.4705608838611e-12)
(1.06232421462733e-12,6.18213574138261e-10,6.37797320017339e-13)
(-7.20452161603783e-13,9.1157928982271e-10,3.49445638964398e-12)
(-2.49448187342531e-12,1.32920283863489e-09,2.55572913530998e-12)
(-3.21291028533767e-12,1.83752279061073e-09,1.11019962820661e-12)
(0,0,0)
(0,0,0)
(0,0,0)
(0,0,0)
(0,0,0)
(0,0,0)
(9.63119432724435e-15,3.113103949064e-11,-7.57597626693365e-11)
(9.51601018245846e-13,6.78958483697537e-11,-7.38930398451511e-11)
(3.02011401825645e-12,1.14291752570169e-10,-6.78389122032835e-11)
(5.40020809780501e-12,1.78106683801921e-10,-5.69949304305984e-11)
(5.77910980264807e-12,2.7041461168197e-10,-4.01320362197996e-11)
(4.67940695274965e-12,4.08042829778637e-10,-1.83291504304259e-11)
(2.09222105137814e-12,6.16220003263038e-10,2.4344364137543e-12)
(-2.46619127195308e-12,9.13730094640553e-10,8.03460606104566e-12)
(-5.70468137408709e-12,1.33242677980897e-09,5.30300747036677e-12)
(-7.31399779778537e-12,1.84066532942501e-09,2.04876358151871e-12)
(0,0,0)
(0,0,0)
(0,0,0)
(0,0,0)
(0,0,0)
(0,0,0)
(7.92847049197692e-13,2.9087315030833e-11,-1.26119546280649e-10)
(2.28103658825567e-12,6.17144377654615e-11,-1.22820714505039e-10)
(4.68224429285336e-12,1.0347493474676e-10,-1.14464165704804e-10)
(7.55023774339579e-12,1.61816967730665e-10,-9.94572278515787e-11)
(8.24156348839776e-12,2.49559678254709e-10,-7.46118898720144e-11)
(7.93680251313161e-12,3.88834990639166e-10,-3.83906668667131e-11)
(5.44936648691901e-12,6.12957014003967e-10,1.55681875113061e-12)
(-5.42165334688295e-12,9.20837579693523e-10,6.46678278804532e-12)
(-1.09274763333228e-11,1.34034176370939e-09,6.49868466043572e-13)
(-1.29270897848468e-11,1.84692773490066e-09,-1.60032925059764e-12)
(0,0,0)
(0,0,0)
(0,0,0)
(0,0,0)
(0,0,0)
(0,0,0)
(9.63304706827848e-13,2.543977189879e-11,-1.9304258212135e-10)
(3.05043362604297e-12,5.29103322204289e-11,-1.88338390844589e-10)
(5.57329212946223e-12,8.78627367016755e-11,-1.78761349534098e-10)
(9.70077442427881e-12,1.36489420348125e-10,-1.6150346356372e-10)
(1.33461857533734e-11,2.13151054595241e-10,-1.32528675874926e-10)
(1.57571836875805e-11,3.48409380983734e-10,-8.67520133181671e-11)
(1.28945893211159e-11,6.03299327438134e-10,-2.52169597071222e-11)
(-1.12009861321507e-11,9.3471162680569e-10,-2.36755402067111e-11)
(-1.80740808187383e-11,1.35050361182274e-09,-2.59438819182778e-11)
(-1.96447298615527e-11,1.8512556626566e-09,-1.65633029688105e-11)
(0,0,0)
(0,0,0)
(0,0,0)
(0,0,0)
(0,0,0)
(0,0,0)
(7.90951375721911e-13,2.02871647424977e-11,-2.83921941810775e-10)
(2.96352180752454e-12,4.22016714189803e-11,-2.79804796953209e-10)
(5.98889261342114e-12,6.85670091796217e-11,-2.71502033798741e-10)
(1.13713711883344e-11,1.04540337937336e-10,-2.56123434659514e-10)
(1.81903981802636e-11,1.62030551499503e-10,-2.32057695234034e-10)
(2.1225446679362e-11,2.71130074495978e-10,-2.03481275170759e-10)
(-1.9777188880376e-11,5.30291661312051e-10,-2.16962406082345e-10)
(-2.8276585156621e-11,9.47440445594073e-10,-1.43718307889069e-10)
(-2.7442492335984e-11,1.35308491346007e-09,-9.81765153909108e-11)
(-2.72371106623003e-11,1.84304712824629e-09,-5.13480994525157e-11)
(0,0,0)
(0,0,0)
(0,0,0)
(0,0,0)
(0,0,0)
(0,0,0)
(5.64281948738017e-13,1.55161261912927e-11,-4.12661515419755e-10)
(2.36188820550846e-12,3.20680556305497e-11,-4.09858084994097e-10)
(5.41626893414433e-12,4.94093125082295e-11,-4.03749313477082e-10)
(9.75576482913075e-12,7.26952492023877e-11,-3.93241261636626e-10)
(1.46909115883014e-11,1.13426813996734e-10,-3.78514262797854e-10)
(1.37602945322152e-11,2.12165010470563e-10,-3.61083059163026e-10)
(-2.45742152988105e-11,5.28510325555471e-10,-3.70313491821282e-10)
(-3.41744663291681e-11,9.33329163555828e-10,-2.92633335055923e-10)
(-3.31183409156156e-11,1.32187280063541e-09,-2.03200642901236e-10)
(-3.32457050555137e-11,1.80100205384369e-09,-1.0464908289103e-10)
(0,0,0)
(0,0,0)
(0,0,0)
(0,0,0)
(0,0,0)
(0,0,0)
(-2.50325110691953e-13,1.16976660309688e-11,-6.02772390915703e-10)
(8.13642951047165e-13,2.35018675161857e-11,-6.00957205625136e-10)
(3.11524919869354e-12,3.37086847871071e-11,-5.97249298930398e-10)
(3.9014372743562e-12,4.66273983198167e-11,-5.93774266023623e-10)
(-2.09483643595492e-12,6.82513498389468e-11,-5.94897126489821e-10)
(-3.00022892187237e-11,1.2964559894802e-10,-6.03528112810536e-10)
(-2.16726104046789e-11,4.90965544517002e-10,-5.32360720790343e-10)
(-3.07059644735146e-11,8.72327174980808e-10,-5.09947470151769e-10)
(-3.43692617493215e-11,1.23661219095028e-09,-3.54089462666345e-10)
(-3.65026719442459e-11,1.70294564684289e-09,-1.81954700613114e-10)
(0,0,0)
(0,0,0)
(0,0,0)
(0,0,0)
(0,0,0)
(0,0,0)
(3.54283180214988e-13,8.75243472531237e-12,-8.85200402858044e-10)
(1.23554334273656e-12,1.69137964756564e-11,-8.83391552547069e-10)
(2.20291901622595e-12,2.44380424717e-11,-8.80534436182337e-10)
(1.09842581706287e-12,3.7486889660146e-11,-8.78817641507829e-10)
(-4.00631698809664e-12,6.92251326660946e-11,-8.80413604764264e-10)
(-1.7308503530105e-11,1.63977180293286e-10,-8.85719646415554e-10)
(-2.26197732295489e-11,4.45100269652533e-10,-8.66582559958363e-10)
(-3.01828143838756e-11,7.21623509893332e-10,-7.3888341264575e-10)
(-3.55280955159058e-11,1.06955639442141e-09,-5.38529679239401e-10)
(-3.84292881582249e-11,1.52355824501801e-09,-2.90076109461918e-10)
(0,0,0)
(0,0,0)
(0,0,0)
(0,0,0)
(0,0,0)
(0,0,0)
(2.80131282662785e-12,5.78302885420816e-12,-1.29400381156858e-09)
(4.67325778257678e-12,1.14848867815979e-11,-1.2919200064166e-09)
(4.34871397963442e-12,1.75182975805919e-11,-1.28824162086434e-09)
(8.37020222603362e-13,3.01775332578103e-11,-1.28414361061822e-09)
(-4.68558779111278e-12,6.26231292213956e-11,-1.2775532423632e-09)
(-1.33956805043796e-11,1.43070901562054e-10,-1.26032969008853e-09)
(-2.14729143820034e-11,3.13795621141839e-10,-1.20614338499909e-09)
(-2.99408021560879e-11,5.22286728038789e-10,-1.06033635917017e-09)
(-3.6480617850267e-11,8.22310946652629e-10,-8.21216543443165e-10)
(-4.01801558990924e-11,1.23334957817279e-09,-4.71692325091798e-10)
(0,0,0)
(0,0,0)
(0,0,0)
(0,0,0)
(0,0,0)
(0,0,0)
(4.12571265884869e-12,2.96659269988552e-12,-1.79862597927472e-09)
(6.82751869812451e-12,6.2197612505135e-12,-1.79624613087872e-09)
(5.75722371302835e-12,9.60365244965967e-12,-1.79117800426326e-09)
(9.63012900744424e-13,1.73600844347005e-11,-1.78438240013989e-09)
(-5.05403980922227e-12,3.69727600293158e-11,-1.7709311786519e-09)
(-1.34277586269896e-11,8.11849108384818e-11,-1.73913328027632e-09)