/*--------------------------------*- C++ -*----------------------------------*\
| =========                 |                                                 |
| \\      /  F ield         | foam-extend: Open Source CFD                    |
|  \\    /   O peration     | Version:     4.0                                |
|   \\  /    A nd           | Web:         http://www.foam-extend.org         |
|    \\/     M anipulation  |                                                 |
\*---------------------------------------------------------------------------*/
FoamFile
{
    version 2.0;
    format ascii;
    class volVectorField;
    location "1846";
    object      H;
}
// * * * * * * * * * * * * * * * * * * * * * * * * * * * * * * * * * * * * * //

dimensions      [0 1 -1 0 0 0 0];

internalField   nonuniform List<vector>
4096
(
(0,0,0)
(0,0,0)
(0,0,0)
(0,0,0)
(0,0,0)
(0,0,0)
(0,0,0)
(0,0,0)
(0,0,0)
(0,0,0)
(0,0,0)
(0,0,0)
(0,0,0)
(0,0,0)
(0,0,0)
(0,0,0)
(0,0,0)
(0,0,0)
(0,0,0)
(0,0,0)
(0,0,0)
(0,0,0)
(0,0,0)
(0,0,0)
(0,0,0)
(0,0,0)
(0,0,0)
(0,0,0)
(0,0,0)
(0,0,0)
(0,0,0)
(0,0,0)
(0,0,0)
(0,0,0)
(0,0,0)
(0,0,0)
(0,0,0)
(0,0,0)
(0,0,0)
(0,0,0)
(0,0,0)
(0,0,0)
(0,0,0)
(0,0,0)
(0,0,0)
(0,0,0)
(0,0,0)
(0,0,0)
(0,0,0)
(0,0,0)
(0,0,0)
(0,0,0)
(0,0,0)
(0,0,0)
(0,0,0)
(0,0,0)
(0,0,0)
(0,0,0)
(0,0,0)
(0,0,0)
(0,0,0)
(0,0,0)
(0,0,0)
(0,0,0)
(0,0,0)
(0,0,0)
(0,0,0)
(0,0,0)
(0,0,0)
(0,0,0)
(0,0,0)
(0,0,0)
(0,0,0)
(0,0,0)
(0,0,0)
(0,0,0)
(0,0,0)
(0,0,0)
(0,0,0)
(0,0,0)
(0,0,0)
(0,0,0)
(0,0,0)
(0,0,0)
(0,0,0)
(0,0,0)
(0,0,0)
(0,0,0)
(0,0,0)
(0,0,0)
(0,0,0)
(0,0,0)
(0,0,0)
(0,0,0)
(0,0,0)
(0,0,0)
(0,0,0)
(0,0,0)
(0,0,0)
(0,0,0)
(0,0,0)
(0,0,0)
(0,0,0)
(0,0,0)
(0,0,0)
(0,0,0)
(0,0,0)
(0,0,0)
(0,0,0)
(0,0,0)
(0,0,0)
(0,0,0)
(0,0,0)
(0,0,0)
(0,0,0)
(0,0,0)
(0,0,0)
(0,0,0)
(0,0,0)
(0,0,0)
(0,0,0)
(0,0,0)
(0,0,0)
(0,0,0)
(0,0,0)
(0,0,0)
(0,0,0)
(0,0,0)
(0,0,0)
(0,0,0)
(0,0,0)
(0,0,0)
(0,0,0)
(0,0,0)
(0,0,0)
(0,0,0)
(0,0,0)
(0,0,0)
(0,0,0)
(0,0,0)
(0,0,0)
(0,0,0)
(0,0,0)
(0,0,0)
(0,0,0)
(0,0,0)
(0,0,0)
(0,0,0)
(0,0,0)
(0,0,0)
(0,0,0)
(0,0,0)
(0,0,0)
(0,0,0)
(0,0,0)
(0,0,0)
(0,0,0)
(0,0,0)
(0,0,0)
(0,0,0)
(0,0,0)
(0,0,0)
(0,0,0)
(0,0,0)
(0,0,0)
(0,0,0)
(0,0,0)
(0,0,0)
(0,0,0)
(0,0,0)
(0,0,0)
(0,0,0)
(0,0,0)
(0,0,0)
(0,0,0)
(0,0,0)
(0,0,0)
(0,0,0)
(0,0,0)
(0,0,0)
(0,0,0)
(0,0,0)
(0,0,0)
(0,0,0)
(0,0,0)
(0,0,0)
(0,0,0)
(0,0,0)
(0,0,0)
(0,0,0)
(0,0,0)
(0,0,0)
(0,0,0)
(0,0,0)
(0,0,0)
(0,0,0)
(0,0,0)
(0,0,0)
(0,0,0)
(0,0,0)
(0,0,0)
(0,0,0)
(0,0,0)
(0,0,0)
(0,0,0)
(0,0,0)
(0,0,0)
(0,0,0)
(0,0,0)
(0,0,0)
(0,0,0)
(0,0,0)
(0,0,0)
(0,0,0)
(0,0,0)
(0,0,0)
(0,0,0)
(0,0,0)
(0,0,0)
(0,0,0)
(0,0,0)
(0,0,0)
(0,0,0)
(0,0,0)
(0,0,0)
(0,0,0)
(0,0,0)
(0,0,0)
(0,0,0)
(0,0,0)
(0,0,0)
(0,0,0)
(0,0,0)
(0,0,0)
(0,0,0)
(0,0,0)
(0,0,0)
(0,0,0)
(0,0,0)
(0,0,0)
(0,0,0)
(0,0,0)
(0,0,0)
(0,0,0)
(0,0,0)
(0,0,0)
(0,0,0)
(0,0,0)
(0,0,0)
(0,0,0)
(0,0,0)
(0,0,0)
(0,0,0)
(0,0,0)
(0,0,0)
(0,0,0)
(0,0,0)
(0,0,0)
(0,0,0)
(0,0,0)
(0,0,0)
(0,0,0)
(0,0,0)
(0,0,0)
(0,0,0)
(0,0,0)
(0,0,0)
(0,0,0)
(0,0,0)
(0,0,0)
(0,0,0)
(0,0,0)
(0,0,0)
(0,0,0)
(0,0,0)
(0,0,0)
(0,0,0)
(0,0,0)
(0,0,0)
(0,0,0)
(0,0,0)
(0,0,0)
(0,0,0)
(0,0,0)
(0,0,0)
(0,0,0)
(0,0,0)
(0,0,0)
(0,0,0)
(0,0,0)
(0,0,0)
(0,0,0)
(0,0,0)
(0,0,0)
(0,0,0)
(0,0,0)
(0,0,0)
(0,0,0)
(0,0,0)
(0,0,0)
(0,0,0)
(0,0,0)
(0,0,0)
(0,0,0)
(0,0,0)
(0,0,0)
(0,0,0)
(0,0,0)
(0,0,0)
(0,0,0)
(0,0,0)
(0,0,0)
(0,0,0)
(0,0,0)
(0,0,0)
(0,0,0)
(0,0,0)
(0,0,0)
(0,0,0)
(0,0,0)
(0,0,0)
(0,0,0)
(0,0,0)
(0,0,0)
(0,0,0)
(0,0,0)
(0,0,0)
(0,0,0)
(0,0,0)
(0,0,0)
(0,0,0)
(0,0,0)
(0,0,0)
(0,0,0)
(0,0,0)
(0,0,0)
(0,0,0)
(0,0,0)
(0,0,0)
(0,0,0)
(0,0,0)
(0,0,0)
(0,0,0)
(0,0,0)
(0,0,0)
(0,0,0)
(0,0,0)
(0,0,0)
(0,0,0)
(0,0,0)
(0,0,0)
(0,0,0)
(0,0,0)
(0,0,0)
(0,0,0)
(0,0,0)
(0,0,0)
(0,0,0)
(0,0,0)
(0,0,0)
(0,0,0)
(0,0,0)
(0,0,0)
(0,0,0)
(0,0,0)
(0,0,0)
(0,0,0)
(0,0,0)
(0,0,0)
(0,0,0)
(0,0,0)
(0,0,0)
(0,0,0)
(0,0,0)
(0,0,0)
(0,0,0)
(0,0,0)
(0,0,0)
(0,0,0)
(0,0,0)
(0,0,0)
(0,0,0)
(0,0,0)
(0,0,0)
(0,0,0)
(0,0,0)
(0,0,0)
(0,0,0)
(0,0,0)
(0,0,0)
(0,0,0)
(0,0,0)
(0,0,0)
(0,0,0)
(0,0,0)
(0,0,0)
(0,0,0)
(0,0,0)
(0,0,0)
(0,0,0)
(0,0,0)
(0,0,0)
(0,0,0)
(0,0,0)
(0,0,0)
(0,0,0)
(0,0,0)
(0,0,0)
(0,0,0)
(0,0,0)
(0,0,0)
(0,0,0)
(0,0,0)
(0,0,0)
(0,0,0)
(0,0,0)
(0,0,0)
(0,0,0)
(0,0,0)
(0,0,0)
(0,0,0)
(0,0,0)
(0,0,0)
(0,0,0)
(0,0,0)
(0,0,0)
(0,0,0)
(0,0,0)
(0,0,0)
(0,0,0)
(0,0,0)
(0,0,0)
(0,0,0)
(0,0,0)
(0,0,0)
(0,0,0)
(0,0,0)
(0,0,0)
(0,0,0)
(0,0,0)
(0,0,0)
(0,0,0)
(0,0,0)
(0,0,0)
(0,0,0)
(0,0,0)
(0,0,0)
(0,0,0)
(0,0,0)
(0,0,0)
(0,0,0)
(0,0,0)
(0,0,0)
(0,0,0)
(0,0,0)
(0,0,0)
(0,0,0)
(0,0,0)
(0,0,0)
(0,0,0)
(0,0,0)
(0,0,0)
(0,0,0)
(0,0,0)
(0,0,0)
(0,0,0)
(0,0,0)
(0,0,0)
(0,0,0)
(0,0,0)
(0,0,0)
(0,0,0)
(0,0,0)
(0,0,0)
(0,0,0)
(0,0,0)
(0,0,0)
(0,0,0)
(0,0,0)
(0,0,0)
(0,0,0)
(0,0,0)
(0,0,0)
(0,0,0)
(0,0,0)
(0,0,0)
(0,0,0)
(0,0,0)
(0,0,0)
(0,0,0)
(0,0,0)
(0,0,0)
(0,0,0)
(0,0,0)
(0,0,0)
(0,0,0)
(0,0,0)
(0,0,0)
(0,0,0)
(0,0,0)
(0,0,0)
(0,0,0)
(0,0,0)
(0,0,0)
(0,0,0)
(0,0,0)
(0,0,0)
(0,0,0)
(0,0,0)
(0,0,0)
(0,0,0)
(0,0,0)
(0,0,0)
(0,0,0)
(0,0,0)
(0,0,0)
(0,0,0)
(0,0,0)
(0,0,0)
(0,0,0)
(0,0,0)
(0,0,0)
(0,0,0)
(0,0,0)
(0,0,0)
(0,0,0)
(0,0,0)
(0,0,0)
(0,0,0)
(0,0,0)
(0,0,0)
(0,0,0)
(0,0,0)
(0,0,0)
(0,0,0)
(0,0,0)
(0,0,0)
(0,0,0)
(0,0,0)
(0,0,0)
(0,0,0)
(0,0,0)
(0,0,0)
(0,0,0)
(0,0,0)
(0,0,0)
(0,0,0)
(0,0,0)
(0,0,0)
(0,0,0)
(0,0,0)
(0,0,0)
(0,0,0)
(0,0,0)
(0,0,0)
(0,0,0)
(0,0,0)
(0,0,0)
(0,0,0)
(0,0,0)
(0,0,0)
(0,0,0)
(0,0,0)
(0,0,0)
(0,0,0)
(0,0,0)
(0,0,0)
(0,0,0)
(0,0,0)
(0,0,0)
(0,0,0)
(0,0,0)
(0,0,0)
(0,0,0)
(0,0,0)
(0,0,0)
(0,0,0)
(0,0,0)
(0,0,0)
(0,0,0)
(0,0,0)
(0,0,0)
(0,0,0)
(0,0,0)
(0,0,0)
(0,0,0)
(0,0,0)
(0,0,0)
(0,0,0)
(0,0,0)
(0,0,0)
(0,0,0)
(0,0,0)
(0,0,0)
(0,0,0)
(0,0,0)
(0,0,0)
(0,0,0)
(0,0,0)
(0,0,0)
(0,0,0)
(0,0,0)
(0,0,0)
(0,0,0)
(0,0,0)
(0,0,0)
(0,0,0)
(0,0,0)
(0,0,0)
(0,0,0)
(0,0,0)
(0,0,0)
(0,0,0)
(0,0,0)
(0,0,0)
(0,0,0)
(0,0,0)
(0,0,0)
(0,0,0)
(0,0,0)
(0,0,0)
(0,0,0)
(0,0,0)
(0,0,0)
(0,0,0)
(0,0,0)
(0,0,0)
(0,0,0)
(0,0,0)
(0,0,0)
(0,0,0)
(0,0,0)
(0,0,0)
(0,0,0)
(0,0,0)
(0,0,0)
(0,0,0)
(0,0,0)
(0,0,0)
(0,0,0)
(0,0,0)
(0,0,0)
(0,0,0)
(0,0,0)
(0,0,0)
(0,0,0)
(0,0,0)
(0,0,0)
(0,0,0)
(0,0,0)
(0,0,0)
(0,0,0)
(0,0,0)
(0,0,0)
(0,0,0)
(0,0,0)
(0,0,0)
(0,0,0)
(0,0,0)
(0,0,0)
(0,0,0)
(0,0,0)
(0,0,0)
(0,0,0)
(0,0,0)
(0,0,0)
(0,0,0)
(0,0,0)
(0,0,0)
(0,0,0)
(0,0,0)
(0,0,0)
(0,0,0)
(0,0,0)
(0,0,0)
(0,0,0)
(0,0,0)
(0,0,0)
(0,0,0)
(0,0,0)
(0,0,0)
(0,0,0)
(0,0,0)
(0,0,0)
(0,0,0)
(0,0,0)
(0,0,0)
(0,0,0)
(0,0,0)
(0,0,0)
(0,0,0)
(0,0,0)
(0,0,0)
(0,0,0)
(0,0,0)
(0,0,0)
(0,0,0)
(0,0,0)
(0,0,0)
(0,0,0)
(0,0,0)
(0,0,0)
(0,0,0)
(0,0,0)
(0,0,0)
(0,0,0)
(0,0,0)
(0,0,0)
(0,0,0)
(0,0,0)
(0,0,0)
(0,0,0)
(0,0,0)
(0,0,0)
(0,0,0)
(0,0,0)
(0,0,0)
(0,0,0)
(0,0,0)
(0,0,0)
(0,0,0)
(0,0,0)
(0,0,0)
(0,0,0)
(0,0,0)
(0,0,0)
(0,0,0)
(0,0,0)
(0,0,0)
(0,0,0)
(0,0,0)
(0,0,0)
(0,0,0)
(0,0,0)
(0,0,0)
(0,0,0)
(0,0,0)
(0,0,0)
(0,0,0)
(0,0,0)
(0,0,0)
(0,0,0)
(0,0,0)
(0,0,0)
(0,0,0)
(0,0,0)
(0,0,0)
(0,0,0)
(0,0,0)
(0,0,0)
(0,0,0)
(0,0,0)
(0,0,0)
(0,0,0)
(0,0,0)
(0,0,0)
(0,0,0)
(0,0,0)
(0,0,0)
(0,0,0)
(0,0,0)
(0,0,0)
(0,0,0)
(0,0,0)
(0,0,0)
(0,0,0)
(0,0,0)
(0,0,0)
(0,0,0)
(0,0,0)
(0,0,0)
(0,0,0)
(0,0,0)
(0,0,0)
(0,0,0)
(0,0,0)
(0,0,0)
(0,0,0)
(0,0,0)
(0,0,0)
(0,0,0)
(0,0,0)
(0,0,0)
(0,0,0)
(0,0,0)
(0,0,0)
(0,0,0)
(0,0,0)
(0,0,0)
(0,0,0)
(0,0,0)
(0,0,0)
(0,0,0)
(0,0,0)
(0,0,0)
(0,0,0)
(0,0,0)
(0,0,0)
(0,0,0)
(0,0,0)
(0,0,0)
(0,0,0)
(0,0,0)
(0,0,0)
(0,0,0)
(0,0,0)
(0,0,0)
(0,0,0)
(0,0,0)
(0,0,0)
(0,0,0)
(0,0,0)
(0,0,0)
(0,0,0)
(0,0,0)
(0,0,0)
(0,0,0)
(0,0,0)
(0,0,0)
(-1.99760247986994e-12,-1.28790101113545e-11,1.64467347156402e-11)
(-3.10268738665574e-12,-2.66765008399708e-11,1.55884740865064e-11)
(-4.68185206837768e-12,-4.60040132929031e-11,1.39547689783933e-11)
(-6.49519902404382e-12,-7.35734849572899e-11,1.13931443815363e-11)
(-7.58623454480574e-12,-1.16283642152766e-10,8.64674791376031e-12)
(-8.61945976084895e-12,-1.83611593890619e-10,5.95780774070931e-12)
(-8.27676048068425e-12,-2.93273095530689e-10,3.53602136505623e-12)
(-6.78026602088158e-12,-4.76872367874876e-10,1.95750768032232e-12)
(-4.95502719778815e-12,-7.80515361025841e-10,1.24858705205132e-12)
(-3.90718921187173e-12,-1.20412538715484e-09,7.19078110339905e-13)
(0,0,0)
(0,0,0)
(0,0,0)
(0,0,0)
(0,0,0)
(0,0,0)
(-3.69175982679299e-12,-1.20890592185228e-11,3.36404611134044e-11)
(-5.82704574810636e-12,-2.53741047826178e-11,3.18414246224936e-11)
(-8.69873688475689e-12,-4.39430633242125e-11,2.88419943611643e-11)
(-1.22660946941317e-11,-7.10239905415632e-11,2.43776602660152e-11)
(-1.45530891948243e-11,-1.13639961766193e-10,1.91382835120376e-11)
(-1.63397709312823e-11,-1.81117860930557e-10,1.36819706020154e-11)
(-1.66429660058531e-11,-2.91662689172273e-10,8.6928730676962e-12)
(-1.48005186094907e-11,-4.76676288612899e-10,5.29860558063139e-12)
(-1.22393680156722e-11,-7.80718258975823e-10,3.06795458685515e-12)
(-1.09331673937105e-11,-1.20409245149808e-09,1.50831184090373e-12)
(0,0,0)
(0,0,0)
(0,0,0)
(0,0,0)
(0,0,0)
(0,0,0)
(-4.22919337684651e-12,-1.05554083844624e-11,5.36102169067523e-11)
(-7.61694635514097e-12,-2.24864406700871e-11,5.15325047762031e-11)
(-1.23305734473525e-11,-3.96355580148696e-11,4.80907293679607e-11)
(-1.71138331220634e-11,-6.54641320802884e-11,4.2724532428311e-11)
(-2.13834819448352e-11,-1.07246617643152e-10,3.57528775783255e-11)
(-2.45767128133978e-11,-1.75331578617913e-10,2.74366111678581e-11)
(-2.48873799931826e-11,-2.87942377240499e-10,1.89550787642694e-11)
(-2.23636318185721e-11,-4.75333787441776e-10,1.31910506213346e-11)
(-1.8895850679249e-11,-7.80874674504109e-10,8.80337509007696e-12)
(-1.70432529292492e-11,-1.20435247486793e-09,4.52062941792549e-12)
(0,0,0)
(0,0,0)
(0,0,0)
(0,0,0)
(0,0,0)
(0,0,0)
(-3.79591287219311e-12,-8.79675552331023e-12,8.12222493824327e-11)
(-8.94054847629713e-12,-1.90642491776802e-11,7.93681764948016e-11)
(-1.52598496637487e-11,-3.43226490245558e-11,7.61272137488209e-11)
(-2.16645727438778e-11,-5.81326573854014e-11,7.06004291599869e-11)
(-2.73845536181942e-11,-9.7881371134547e-11,6.26557059732725e-11)
(-3.07158701722174e-11,-1.65939380416813e-10,5.257754801822e-11)
(-3.0399785569829e-11,-2.81567687325057e-10,4.13159365979557e-11)
(-2.78306018152545e-11,-4.71960422386667e-10,3.17293711592989e-11)
(-2.40572939317349e-11,-7.78666521155811e-10,2.24145897576974e-11)
(-2.26933896359796e-11,-1.20207436108931e-09,1.18808976222227e-11)
(0,0,0)
(0,0,0)
(0,0,0)
(0,0,0)
(0,0,0)
(0,0,0)
(-3.97446809020539e-12,-7.24158187120601e-12,1.22437208927172e-10)
(-9.94196715267308e-12,-1.57489672689664e-11,1.20855303745416e-10)
(-1.68797662479074e-11,-2.85628723607851e-11,1.18127708790031e-10)
(-2.3388604532567e-11,-4.93556374314295e-11,1.13404699105378e-10)
(-2.85683451758549e-11,-8.61618767601234e-11,1.06259342707998e-10)
(-3.14813867110622e-11,-1.52592524372963e-10,9.68216832440405e-11)
(-3.06500673720018e-11,-2.704133171485e-10,8.49884793967131e-11)
(-2.88229008152309e-11,-4.64410344546499e-10,6.81280811744247e-11)
(-2.64790968611437e-11,-7.71033107474657e-10,4.84018950919593e-11)
(-2.57622038462205e-11,-1.19326487677903e-09,2.55086215125877e-11)
(0,0,0)
(0,0,0)
(0,0,0)
(0,0,0)
(0,0,0)
(0,0,0)
(-5.35397544396323e-12,-5.67737465432139e-12,1.88209678404611e-10)
(-1.18564575570427e-11,-1.24581037929779e-11,1.86902869996869e-10)
(-1.87902112465472e-11,-2.28036304259696e-11,1.84518672829472e-10)
(-2.41661529563137e-11,-4.0292149085326e-11,1.8046795897644e-10)
(-2.8502772536784e-11,-7.36496417250598e-11,1.74438547165528e-10)
(-3.07677260627007e-11,-1.37803812583186e-10,1.64846138612903e-10)
(-2.99415296225733e-11,-2.56306559989072e-10,1.49744286551965e-10)
(-2.81866089186214e-11,-4.48844125564765e-10,1.25325502563288e-10)
(-2.62151206396716e-11,-7.51665445513095e-10,9.1399879210901e-11)
(-2.62561253214821e-11,-1.17073309976291e-09,4.87253441229486e-11)
(0,0,0)
(0,0,0)
(0,0,0)
(0,0,0)
(0,0,0)
(0,0,0)
(-5.52234024764304e-12,-4.03500325333629e-12,2.95173213498979e-10)
(-1.34595589665293e-11,-9.15569407803573e-12,2.94511490164196e-10)
(-2.03321227870431e-11,-1.72547679703726e-11,2.92559719279262e-10)
(-2.49724435776152e-11,-3.16958388033288e-11,2.89033268570334e-10)
(-2.83524942267967e-11,-6.09704939013496e-11,2.83785136786715e-10)
(-2.8914202699862e-11,-1.20681868220428e-10,2.73220501590201e-10)
(-2.87490030166024e-11,-2.34496250857677e-10,2.51928973130317e-10)
(-2.7503888451121e-11,-4.18269352474723e-10,2.17577689576621e-10)
(-2.6252703632103e-11,-7.11578011806868e-10,1.63090721231096e-10)
(-2.64036916483386e-11,-1.12457740205808e-09,8.89757233077884e-11)
(0,0,0)
(0,0,0)
(0,0,0)
(0,0,0)
(0,0,0)
(0,0,0)
(-6.82693002853854e-12,-2.87374353646131e-12,4.75513639114965e-10)
(-1.53265251796291e-11,-6.89236117497179e-12,4.74749976713708e-10)
(-2.2223200296435e-11,-1.31549628384897e-11,4.7273254611935e-10)
(-2.67002393918301e-11,-2.50554055714158e-11,4.69028508644054e-10)
(-2.93135088877582e-11,-5.04672888478075e-11,4.63066003158777e-10)
(-2.91889633992231e-11,-1.03201209935709e-10,4.50437537822055e-10)
(-2.89269644331945e-11,-2.01825510332198e-10,4.23244282203642e-10)
(-2.77049420104971e-11,-3.65159977631242e-10,3.72088943439243e-10)
(-2.70095822867404e-11,-6.38804704957641e-10,2.87864121968243e-10)
(-2.68196745308609e-11,-1.03737087464924e-09,1.63139333485794e-10)
(0,0,0)
(0,0,0)
(0,0,0)
(0,0,0)
(0,0,0)
(0,0,0)
(-8.73265044579256e-12,-1.70554237996258e-12,7.77084656598124e-10)
(-1.80789849254496e-11,-4.58800468721792e-12,7.76536150438713e-10)
(-2.56427059887942e-11,-9.24685316315966e-12,7.74569765105427e-10)
(-2.98909063209384e-11,-1.83665132756309e-11,7.70072510477913e-10)
(-3.17805355712693e-11,-3.78636609220293e-11,7.61765622485828e-10)
(-3.04487648997202e-11,-7.75760486862913e-11,7.44634194344625e-10)
(-2.9851731306613e-11,-1.5119954079006e-10,7.09205056633954e-10)
(-2.95282187625218e-11,-2.81432079019278e-10,6.40841733391989e-10)
(-2.95474782199809e-11,-5.1502853300718e-10,5.18124714405065e-10)
(-2.8740229442909e-11,-8.75209859839149e-10,3.11061720205139e-10)
(0,0,0)
(0,0,0)
(0,0,0)
(0,0,0)
(0,0,0)
(0,0,0)
(-1.00393290224856e-11,-9.43870102701636e-13,1.19953623308077e-09)
(-1.95419846268241e-11,-2.5860847707982e-12,1.19861584093525e-09)
(-2.66807933557363e-11,-5.0203293656069e-12,1.19588262578796e-09)
(-3.11378417031329e-11,-9.95922969962052e-12,1.19088537452835e-09)
(-3.40350927244702e-11,-2.04322262950894e-11,1.18111579316649e-09)
(-3.22900493988159e-11,-4.19427196021082e-11,1.16065369692208e-09)
(-3.11505926469393e-11,-8.25534574209614e-11,1.11876138612359e-09)
(-3.14611150262252e-11,-1.59287927768893e-10,1.03627139400198e-09)
(-3.1757698243875e-11,-3.09165227606373e-10,8.75960297674335e-10)
(-3.06178781052223e-11,-5.65186006066451e-10,5.65667361208908e-10)
(0,0,0)
(0,0,0)
(0,0,0)
(0,0,0)
(0,0,0)
(0,0,0)
(0,0,0)
(0,0,0)
(0,0,0)
(0,0,0)
(0,0,0)
(0,0,0)
(0,0,0)
(0,0,0)
(0,0,0)
(0,0,0)
(0,0,0)
(0,0,0)
(0,0,0)
(0,0,0)
(0,0,0)
(0,0,0)
(0,0,0)
(0,0,0)
(0,0,0)
(0,0,0)
(0,0,0)
(0,0,0)
(0,0,0)
(0,0,0)
(0,0,0)
(0,0,0)
(0,0,0)
(0,0,0)
(0,0,0)
(0,0,0)
(0,0,0)
(0,0,0)
(0,0,0)
(0,0,0)
(0,0,0)
(0,0,0)
(0,0,0)
(0,0,0)
(0,0,0)
(0,0,0)
(0,0,0)
(0,0,0)
(0,0,0)
(0,0,0)
(0,0,0)
(0,0,0)
(0,0,0)
(0,0,0)
(0,0,0)
(0,0,0)
(0,0,0)
(0,0,0)
(0,0,0)
(0,0,0)
(0,0,0)
(0,0,0)
(0,0,0)
(0,0,0)
(0,0,0)
(0,0,0)
(0,0,0)
(0,0,0)
(0,0,0)
(0,0,0)
(0,0,0)
(0,0,0)
(0,0,0)
(0,0,0)
(0,0,0)
(0,0,0)
(0,0,0)
(0,0,0)
(0,0,0)
(0,0,0)
(0,0,0)
(0,0,0)
(0,0,0)
(0,0,0)
(0,0,0)
(0,0,0)
(0,0,0)
(0,0,0)
(0,0,0)
(0,0,0)
(0,0,0)
(0,0,0)
(0,0,0)
(0,0,0)
(0,0,0)
(0,0,0)
(0,0,0)
(0,0,0)
(0,0,0)
(0,0,0)
(0,0,0)
(0,0,0)
(-1.92929274357155e-12,-2.41038432769396e-11,3.01254035578236e-11)
(-2.77137833589663e-12,-4.98725017456035e-11,2.82000269116345e-11)
(-4.18117744023539e-12,-8.54977720990876e-11,2.52253426164629e-11)
(-6.29829697199511e-12,-1.35944143544678e-10,2.06996978286441e-11)
(-7.54097475836983e-12,-2.10335464688484e-10,1.48567670549303e-11)
(-8.69140634523249e-12,-3.27133589528674e-10,8.7367795870673e-12)
(-8.30865315430132e-12,-5.14915083015499e-10,3.46943389062805e-12)
(-6.26742465477043e-12,-8.34209647317719e-10,5.57923628079235e-13)
(-4.22262030640499e-12,-1.44204943287145e-09,4.3972951756064e-14)
(-3.22104675874481e-12,-2.83094406513869e-09,2.36347563117346e-13)
(0,0,0)
(0,0,0)
(0,0,0)
(0,0,0)
(0,0,0)
(0,0,0)
(-3.42637416994134e-12,-2.21690597788663e-11,6.1737827891838e-11)
(-5.71527959930465e-12,-4.68026926083769e-11,5.81955891249088e-11)
(-8.54190809894059e-12,-8.10919786981182e-11,5.29762678190836e-11)
(-1.2586576401433e-11,-1.30298392106549e-10,4.48520267703199e-11)
(-1.54901204078463e-11,-2.04476310441645e-10,3.36530681541942e-11)
(-1.71369557096254e-11,-3.22456141847433e-10,2.08328629908851e-11)
(-1.69690104506573e-11,-5.13142246344881e-10,9.29551922467795e-12)
(-1.39123687866313e-11,-8.3500969269211e-10,3.35996968289781e-12)
(-1.05233097410377e-11,-1.44354353115134e-09,1.68490783265406e-12)
(-9.16483218269083e-12,-2.83178767077702e-09,1.12758445989348e-12)
(0,0,0)
(0,0,0)
(0,0,0)
(0,0,0)
(0,0,0)
(0,0,0)
(-3.91013410744875e-12,-1.90018083709519e-11,9.90174124252595e-11)
(-7.59736243930086e-12,-4.13465162053929e-11,9.51415556173792e-11)
(-1.22772854979994e-11,-7.28485108378283e-11,8.88711604346222e-11)
(-1.74736529669635e-11,-1.19082569655739e-10,7.82618699538302e-11)
(-2.24324620430244e-11,-1.91283851087898e-10,6.27919486097326e-11)
(-2.54873786109096e-11,-3.10861756886583e-10,4.3160308109987e-11)
(-2.54980417656745e-11,-5.08104077645542e-10,2.35610856173353e-11)
(-2.13493213425333e-11,-8.35702344305572e-10,1.42141429892487e-11)
(-1.68212583556557e-11,-1.44599263036855e-09,9.93952615018512e-12)
(-1.48007372901243e-11,-2.83336933859218e-09,5.68489248408853e-12)
(0,0,0)
(0,0,0)
(0,0,0)
(0,0,0)
(0,0,0)
(0,0,0)
(-3.49701363666697e-12,-1.56942058609824e-11,1.51015641870314e-10)
(-9.01486763903282e-12,-3.49971391987115e-11,1.47547020560718e-10)
(-1.54928417386938e-11,-6.20915804426369e-11,1.40913119493833e-10)
(-2.24968695111315e-11,-1.03046271196155e-10,1.29001282074097e-10)
(-2.90258900375723e-11,-1.70494855177996e-10,1.11418082520241e-10)
(-3.28011147957892e-11,-2.89441241892157e-10,8.78089424980578e-11)
(-3.19675903077464e-11,-4.96655312341996e-10,6.15254907771179e-11)
(-2.60658982537573e-11,-8.34697529559823e-10,4.60641504243475e-11)
(-2.11570154769792e-11,-1.44646454598555e-09,3.35981955592873e-11)
(-1.96219763232327e-11,-2.83209959950246e-09,1.84289194272556e-11)
(0,0,0)
(0,0,0)
(0,0,0)
(0,0,0)
(0,0,0)
(0,0,0)
(-3.95677012533403e-12,-1.22857348142955e-11,2.26179457147712e-10)
(-1.05052356732786e-11,-2.7751796984368e-11,2.23079299606933e-10)
(-1.79159984980706e-11,-4.93549489406099e-11,2.16991846977067e-10)
(-2.53067364812928e-11,-8.3422919422653e-11,2.06331076972171e-10)
(-3.1642920746952e-11,-1.43116335360681e-10,1.91161359747981e-10)
(-3.44368946535232e-11,-2.5573687710769e-10,1.71871908369332e-10)
(-2.78964263091374e-11,-4.69722061640565e-10,1.53626889393434e-10)
(-2.4662933714298e-11,-8.26291087900553e-10,1.18633555673207e-10)
(-2.29534852433611e-11,-1.43762316232583e-09,8.33028612744851e-11)
(-2.27853593501198e-11,-2.81955595340186e-09,4.38134616587945e-11)
(0,0,0)
(0,0,0)
(0,0,0)
(0,0,0)
(0,0,0)
(0,0,0)
(-5.68953843720642e-12,-8.98692957744113e-12,3.39600606480649e-10)
(-1.27746701045888e-11,-2.05769406558328e-11,3.37065140687256e-10)
(-2.02883598491166e-11,-3.68637697424131e-11,3.32116903696811e-10)
(-2.67330514273912e-11,-6.40090609701481e-11,3.23881472343969e-10)
(-3.15895118078564e-11,-1.15682056484092e-10,3.12584521018177e-10)
(-3.27878183645545e-11,-2.239511499903e-10,2.95900639373141e-10)
(-2.73330547652333e-11,-4.48319995633064e-10,2.7279226326886e-10)
(-2.48357586562632e-11,-8.0282254367889e-10,2.26088031063943e-10)
(-2.36280192580788e-11,-1.40623605144856e-09,1.62828200602766e-10)
(-2.36864789032261e-11,-2.78193756660721e-09,8.6137302875373e-11)
(0,0,0)
(0,0,0)
(0,0,0)
(0,0,0)
(0,0,0)
(0,0,0)
(-6.02187662973625e-12,-6.38117355568539e-12,5.19694898064353e-10)
(-1.37711209846583e-11,-1.46628732181012e-11,5.18138011047568e-10)
(-2.09054772099962e-11,-2.66145653352968e-11,5.1478248408109e-10)
(-2.63647450259147e-11,-4.78131467397957e-11,5.09452820680143e-10)
(-2.82910640838039e-11,-9.08510296121747e-11,5.0260345808908e-10)
(-2.51033325246716e-11,-1.8897683809131e-10,4.88814957401302e-10)
(-2.70684599883386e-11,-4.11948679099982e-10,4.48996982188653e-10)
(-2.61262949492404e-11,-7.49860057410278e-10,3.92972448021797e-10)
(-2.49110125583233e-11,-1.33606219310362e-09,2.90641304942814e-10)
(-2.46344957487688e-11,-2.70108055189991e-09,1.56923291987521e-10)
(0,0,0)
(0,0,0)
(0,0,0)
(0,0,0)
(0,0,0)
(0,0,0)
(-7.23146878378023e-12,-4.55239420823553e-12,8.30832264595574e-10)
(-1.56134510730251e-11,-1.06035626157279e-11,8.2943056297986e-10)
(-2.24272724964663e-11,-1.97475252253237e-11,8.26587895256687e-10)
(-2.74266262023377e-11,-3.79869857412078e-11,8.21995038990187e-10)
(-2.92886714768395e-11,-7.83371696427313e-11,8.15179216033748e-10)
(-2.76208690302024e-11,-1.69960569202027e-10,7.9945545658464e-10)
(-2.83975952109092e-11,-3.58707789702876e-10,7.56722403369838e-10)
(-2.72080191516291e-11,-6.51124518828498e-10,6.63899280544823e-10)
(-2.6060965754597e-11,-1.20551111678365e-09,5.10922110054875e-10)
(-2.58413558557503e-11,-2.54743698078196e-09,2.9043278237258e-10)
(0,0,0)
(0,0,0)
(0,0,0)
(0,0,0)
(0,0,0)
(0,0,0)
(-8.94581656364273e-12,-2.67187644374913e-12,1.43327959562459e-09)
(-1.81145195085821e-11,-6.85867527405283e-12,1.43227096960953e-09)
(-2.53719751588312e-11,-1.37642604684428e-11,1.42918431255201e-09)
(-2.99913019048596e-11,-2.84763980053849e-11,1.42295467845376e-09)
(-3.20805420569931e-11,-6.12805793583979e-11,1.41170515276606e-09)
(-3.06529562732545e-11,-1.31293950423372e-10,1.38631369718013e-09)
(-3.01344914337438e-11,-2.66441358298784e-10,1.32776866174004e-09)
(-2.89553510259915e-11,-4.99077759889984e-10,1.2063851771459e-09)
(-2.83477894208865e-11,-9.86304708410423e-10,9.90395556376238e-10)
(-2.7702363010339e-11,-2.25829362991703e-09,6.18225956293746e-10)
(0,0,0)
(0,0,0)
(0,0,0)
(0,0,0)
(0,0,0)
(0,0,0)
(-1.00628069796622e-11,-1.4057004343557e-12,2.81903012166489e-09)
(-1.93948542503315e-11,-3.53521762734684e-12,2.81720256345495e-09)
(-2.6703871461733e-11,-7.0990127474936e-12,2.81269384394966e-09)
(-3.13274900409018e-11,-1.55976026088239e-11,2.80532419091183e-09)
(-3.40052227751548e-11,-3.39784818767636e-11,2.79056721872636e-09)
(-3.23404582024387e-11,-7.19324459305544e-11,2.75765002752285e-09)
(-3.12140579463045e-11,-1.44600611337467e-10,2.68667874957689e-09)
(-3.04379464674289e-11,-2.83500273905877e-10,2.54248079287571e-09)
(-3.06299893848192e-11,-6.15310647016496e-10,2.25832684566545e-09)
(-3.01365229626703e-11,-1.64113465326781e-09,1.64183918731289e-09)
(0,0,0)
(0,0,0)
(0,0,0)
(0,0,0)
(0,0,0)
(0,0,0)
(0,0,0)
(0,0,0)
(0,0,0)
(0,0,0)
(0,0,0)
(0,0,0)
(0,0,0)
(0,0,0)
(0,0,0)
(0,0,0)
(0,0,0)
(0,0,0)
(0,0,0)
(0,0,0)
(0,0,0)
(0,0,0)
(0,0,0)
(0,0,0)
(0,0,0)
(0,0,0)
(0,0,0)
(0,0,0)
(0,0,0)
(0,0,0)
(0,0,0)
(0,0,0)
(0,0,0)
(0,0,0)
(0,0,0)
(0,0,0)
(0,0,0)
(0,0,0)
(0,0,0)
(0,0,0)
(0,0,0)
(0,0,0)
(0,0,0)
(0,0,0)
(0,0,0)
(0,0,0)
(0,0,0)
(0,0,0)
(0,0,0)
(0,0,0)
(0,0,0)
(0,0,0)
(0,0,0)
(0,0,0)
(0,0,0)
(0,0,0)
(0,0,0)
(0,0,0)
(0,0,0)
(0,0,0)
(0,0,0)
(0,0,0)
(0,0,0)
(0,0,0)
(0,0,0)
(0,0,0)
(0,0,0)
(0,0,0)
(0,0,0)
(0,0,0)
(0,0,0)
(0,0,0)
(0,0,0)
(0,0,0)
(0,0,0)
(0,0,0)
(0,0,0)
(0,0,0)
(0,0,0)
(0,0,0)
(0,0,0)
(0,0,0)
(0,0,0)
(0,0,0)
(0,0,0)
(0,0,0)
(0,0,0)
(0,0,0)
(0,0,0)
(0,0,0)
(0,0,0)
(0,0,0)
(0,0,0)
(0,0,0)
(0,0,0)
(0,0,0)
(0,0,0)
(0,0,0)
(0,0,0)
(0,0,0)
(0,0,0)
(0,0,0)
(-1.93869959552696e-12,-3.29247328035812e-11,4.04455121730772e-11)
(-2.86650317818508e-12,-6.76366376185985e-11,3.77931422278929e-11)
(-4.06132605273535e-12,-1.13467133703151e-10,3.35862857915579e-11)
(-6.10111763626238e-12,-1.77275641511599e-10,2.70215017156049e-11)
(-7.28014153760519e-12,-2.69817811375907e-10,1.80828768291794e-11)
(-8.10150832983109e-12,-4.07975530171352e-10,7.92616654313893e-12)
(-7.16997956280607e-12,-6.10158470982262e-10,-1.23719983984978e-12)
(-4.95342860408251e-12,-9.0343331237519e-10,-4.6206404417259e-12)
(-2.9208966377669e-12,-1.32076368104317e-09,-3.56555844385437e-12)
(-2.14109355745366e-12,-1.82800555233938e-09,-1.29173228256266e-12)
(0,0,0)
(0,0,0)
(0,0,0)
(0,0,0)
(0,0,0)
(0,0,0)
(-3.05138681118623e-12,-3.03312892517371e-11,8.36676491956339e-11)
(-5.95213469709406e-12,-6.33431158629275e-11,7.89242305452267e-11)
(-8.66113491155083e-12,-1.07054112908184e-10,7.13813175348157e-11)
(-1.26034402351275e-11,-1.68710578693452e-10,5.9570721347937e-11)
(-1.58623745984024e-11,-2.60248368873226e-10,4.19608073788344e-11)
(-1.71939969042617e-11,-4.00299069298275e-10,1.8998390654703e-11)
(-1.60716296092924e-11,-6.09137736502975e-10,-3.24291598623283e-12)
(-1.15446553215679e-11,-9.07064138046767e-10,-9.32334517804324e-12)
(-7.51688715117254e-12,-1.32520355744355e-09,-6.24668958554732e-12)
(-6.45557990750493e-12,-1.83115430928052e-09,-2.17667460292811e-12)
(0,0,0)
(0,0,0)
(0,0,0)
(0,0,0)
(0,0,0)
(0,0,0)
(-3.34187981152599e-12,-2.59787389982751e-11,1.34606612667077e-10)
(-7.67634426219916e-12,-5.57787822757342e-11,1.29068638230138e-10)
(-1.24249254118192e-11,-9.51021117511938e-11,1.19438358542481e-10)
(-1.80400300829907e-11,-1.51438659701346e-10,1.0325436089984e-10)
(-2.35898174532123e-11,-2.3877271148845e-10,7.68533643238634e-11)
(-2.73086711127183e-11,-3.81168850842049e-10,3.83678485564957e-11)
(-2.75998644402545e-11,-6.07124976049244e-10,-4.37162201204964e-12)
(-1.80795192501308e-11,-9.16306906734769e-10,-9.46267650905692e-12)
(-1.2094709071638e-11,-1.33480703175727e-09,-2.87885538544788e-12)
(-1.03855838964735e-11,-1.83806110577801e-09,6.23992609190191e-13)
(0,0,0)
(0,0,0)
(0,0,0)
(0,0,0)
(0,0,0)
(0,0,0)
(-3.43686337447764e-12,-2.08894559048519e-11,2.02271318462374e-10)
(-9.62630878529448e-12,-4.60968849488231e-11,1.97076876397822e-10)
(-1.6317635821586e-11,-7.86313776682462e-11,1.86385467575044e-10)
(-2.45370217315203e-11,-1.25389374832839e-10,1.67654782415853e-10)
(-3.27952698319158e-11,-2.02079301642547e-10,1.3619970453312e-10)
(-4.02220278599681e-11,-3.40676055217307e-10,8.62778735091907e-11)
(-4.34395006561805e-11,-5.99424649438358e-10,1.79341400859684e-11)
(-2.2006385047531e-11,-9.33126339767519e-10,1.73283411963449e-11)
(-1.4829123004381e-11,-1.34759418213986e-09,2.20958635158495e-11)
(-1.37367029972e-11,-1.84460778359484e-09,1.50500377045428e-11)
(0,0,0)
(0,0,0)
(0,0,0)
(0,0,0)
(0,0,0)
(0,0,0)
(-4.15541782170598e-12,-1.558034291751e-11,2.95531479901894e-10)
(-1.15926393709286e-11,-3.49150879804438e-11,2.9119850503191e-10)
(-1.97464076926776e-11,-5.91626485645316e-11,2.81522558746903e-10)
(-2.95508777094027e-11,-9.32801503529677e-11,2.64494425634998e-10)
(-3.97877482439508e-11,-1.50277799703833e-10,2.38093573763395e-10)
(-4.79776027959347e-11,-2.60750425753635e-10,2.05197351570462e-10)
(-1.43051585973175e-11,-5.24338034399876e-10,2.10735822302844e-10)
(-1.28007835371893e-11,-9.50036418428763e-10,1.34690544657784e-10)
(-1.48511965033796e-11,-1.35296877846803e-09,9.30779305881819e-11)
(-1.65902844864668e-11,-1.83795107804547e-09,4.93294029097295e-11)
(0,0,0)
(0,0,0)
(0,0,0)
(0,0,0)
(0,0,0)
(0,0,0)
(-5.75982866488575e-12,-1.06999685501871e-11,4.27351146983488e-10)
(-1.37405005521707e-11,-2.42126736517924e-11,4.24083904020107e-10)
(-2.23021329036669e-11,-4.02667958974554e-11,4.16725907886339e-10)
(-3.1632014330739e-11,-6.22782816296801e-11,4.04833679227726e-10)
(-3.97366570356498e-11,-1.01795286992859e-10,3.88011661091913e-10)
(-4.46537541592291e-11,-2.02065404104319e-10,3.65760127251003e-10)
(-1.70001390928946e-11,-5.28627114458038e-10,3.62987486482481e-10)
(-1.45384144644785e-11,-9.37685972912602e-10,2.84852991473486e-10)
(-1.71109798748969e-11,-1.32317963439198e-09,1.9953469820843e-10)
(-1.84061907360588e-11,-1.79705650889555e-09,1.03587934416343e-10)
(0,0,0)
(0,0,0)
(0,0,0)
(0,0,0)
(0,0,0)
(0,0,0)
(-6.29376895990909e-12,-7.11552037335203e-12,6.1681037534928e-10)
(-1.44749046212143e-11,-1.580877931561e-11,6.15000094486072e-10)
(-2.24428539187765e-11,-2.54945192362161e-11,6.11204114161637e-10)
(-2.93415434334392e-11,-3.74625657955787e-11,6.06924646350535e-10)
(-2.70164233651254e-11,-5.70252310667537e-11,6.06979556342355e-10)
(-4.30162620161354e-12,-1.19335750759878e-10,6.13744131828751e-10)
(-2.42848152184499e-11,-4.92354449012487e-10,5.29896752488757e-10)
(-2.25306904525184e-11,-8.78536072883104e-10,5.09451627320896e-10)
(-2.17440759226028e-11,-1.23901022074337e-09,3.54987094737722e-10)
(-2.13547748786831e-11,-1.70029609687425e-09,1.8311505141293e-10)
(0,0,0)
(0,0,0)
(0,0,0)
(0,0,0)
(0,0,0)
(0,0,0)
(-7.71028493210942e-12,-4.76468756038857e-12,8.98044561737277e-10)
(-1.65156706914855e-11,-1.0579204556993e-11,8.96645430401166e-10)
(-2.38176809876867e-11,-1.76988004815765e-11,8.94179080832899e-10)
(-3.01213909803284e-11,-3.02271526141851e-11,8.92463497597036e-10)
(-3.06215023128186e-11,-6.17585807614159e-11,8.94674401522196e-10)
(-2.3554434593809e-11,-1.59792743687784e-10,8.99937098570105e-10)
(-2.78409037900794e-11,-4.50659351179658e-10,8.76419641608558e-10)
(-2.62776076013066e-11,-7.27641687563307e-10,7.45656370171537e-10)
(-2.47780464450919e-11,-1.07153437957618e-09,5.43672650052994e-10)
(-2.45519243475154e-11,-1.52077928295728e-09,2.93301421557552e-10)
(0,0,0)
(0,0,0)
(0,0,0)
(0,0,0)
(0,0,0)
(0,0,0)
(-9.20336655797346e-12,-2.85862002605188e-12,1.30812447638357e-09)
(-1.83513200979765e-11,-6.95201061477798e-12,1.30694737010814e-09)
(-2.58075887809245e-11,-1.2932762160753e-11,1.30389797822912e-09)
(-3.16205716135236e-11,-2.60333937184756e-11,1.2993446447328e-09)
(-3.39911839523748e-11,-5.89880850704154e-11,1.29295529066805e-09)
(-3.14694253262914e-11,-1.41213899423233e-10,1.27566667852613e-09)
(-3.05917538011007e-11,-3.16067998630554e-10,1.21955269362793e-09)
(-2.85432162415145e-11,-5.25877086501633e-10,1.07066949989941e-09)
(-2.71722507315107e-11,-8.22743259064152e-10,8.28439775346647e-10)
(-2.66353833659622e-11,-1.22933493705472e-09,4.75374373778903e-10)
(0,0,0)
(0,0,0)
(0,0,0)
(0,0,0)
(0,0,0)
(0,0,0)
(-9.64094920473799e-12,-1.74445162914184e-12,1.81233650352735e-09)
(-1.84213523726679e-11,-3.85330824583747e-12,1.81009055849352e-09)
(-2.64332311709866e-11,-7.05991827074585e-12,1.80532669566032e-09)
(-3.21681204646608e-11,-1.56903783636746e-11,1.79819314642303e-09)