/*--------------------------------*- C++ -*----------------------------------*\
| =========                 |                                                 |
| \\      /  F ield         | foam-extend: Open Source CFD                    |
|  \\    /   O peration     | Version:     4.0                                |
|   \\  /    A nd           | Web:         http://www.foam-extend.org         |
|    \\/     M anipulation  |                                                 |
\*---------------------------------------------------------------------------*/
FoamFile
{
    version 2.0;
    format ascii;
    class volVectorField;
    location "10";
    object      E;
}
// * * * * * * * * * * * * * * * * * * * * * * * * * * * * * * * * * * * * * //

dimensions      [0 1 -1 0 0 0 0];

internalField   nonuniform List<vector>
4096
(
(0,0,0)
(0,0,0)
(0,0,0)
(0,0,0)
(0,0,0)
(0,0,0)
(0,0,0)
(0,0,0)
(0,0,0)
(0,0,0)
(0,0,0)
(0,0,0)
(0,0,0)
(0,0,0)
(0,0,0)
(0,0,0)
(0,0,0)
(0,0,0)
(0,0,0)
(0,0,0)
(0,0,0)
(0,0,0)
(0,0,0)
(0,0,0)
(0,0,0)
(0,0,0)
(0,0,0)
(0,0,0)
(0,0,0)
(0,0,0)
(0,0,0)
(0,0,0)
(0,0,0)
(0,0,0)
(0,0,0)
(0,0,0)
(0,0,0)
(0,0,0)
(0,0,0)
(0,0,0)
(0,0,0)
(0,0,0)
(0,0,0)
(0,0,0)
(0,0,0)
(0,0,0)
(0,0,0)
(0,0,0)
(0,0,0)
(0,0,0)
(0,0,0)
(0,0,0)
(0,0,0)
(0,0,0)
(0,0,0)
(0,0,0)
(0,0,0)
(0,0,0)
(0,0,0)
(0,0,0)
(0,0,0)
(0,0,0)
(0,0,0)
(0,0,0)
(0,0,0)
(0,0,0)
(0,0,0)
(0,0,0)
(0,0,0)
(0,0,0)
(0,0,0)
(0,0,0)
(0,0,0)
(0,0,0)
(0,0,0)
(0,0,0)
(0,0,0)
(0,0,0)
(0,0,0)
(0,0,0)
(0,0,0)
(0,0,0)
(0,0,0)
(0,0,0)
(0,0,0)
(0,0,0)
(0,0,0)
(0,0,0)
(0,0,0)
(0,0,0)
(0,0,0)
(0,0,0)
(0,0,0)
(0,0,0)
(0,0,0)
(0,0,0)
(0,0,0)
(0,0,0)
(0,0,0)
(0,0,0)
(0,0,0)
(0,0,0)
(0,0,0)
(0,0,0)
(0,0,0)
(0,0,0)
(0,0,0)
(0,0,0)
(0,0,0)
(0,0,0)
(0,0,0)
(0,0,0)
(0,0,0)
(0,0,0)
(0,0,0)
(0,0,0)
(0,0,0)
(0,0,0)
(0,0,0)
(0,0,0)
(0,0,0)
(0,0,0)
(0,0,0)
(0,0,0)
(0,0,0)
(0,0,0)
(0,0,0)
(0,0,0)
(0,0,0)
(0,0,0)
(0,0,0)
(0,0,0)
(0,0,0)
(0,0,0)
(0,0,0)
(0,0,0)
(0,0,0)
(0,0,0)
(0,0,0)
(0,0,0)
(0,0,0)
(0,0,0)
(0,0,0)
(0,0,0)
(0,0,0)
(0,0,0)
(0,0,0)
(0,0,0)
(0,0,0)
(0,0,0)
(0,0,0)
(0,0,0)
(0,0,0)
(0,0,0)
(0,0,0)
(0,0,0)
(0,0,0)
(0,0,0)
(0,0,0)
(0,0,0)
(0,0,0)
(0,0,0)
(0,0,0)
(0,0,0)
(0,0,0)
(0,0,0)
(0,0,0)
(0,0,0)
(0,0,0)
(0,0,0)
(0,0,0)
(0,0,0)
(0,0,0)
(0,0,0)
(0,0,0)
(0,0,0)
(0,0,0)
(0,0,0)
(0,0,0)
(0,0,0)
(0,0,0)
(0,0,0)
(0,0,0)
(0,0,0)
(0,0,0)
(0,0,0)
(0,0,0)
(0,0,0)
(0,0,0)
(0,0,0)
(0,0,0)
(0,0,0)
(0,0,0)
(0,0,0)
(0,0,0)
(0,0,0)
(0,0,0)
(0,0,0)
(0,0,0)
(0,0,0)
(0,0,0)
(0,0,0)
(0,0,0)
(0,0,0)
(0,0,0)
(0,0,0)
(0,0,0)
(0,0,0)
(0,0,0)
(0,0,0)
(0,0,0)
(0,0,0)
(0,0,0)
(0,0,0)
(0,0,0)
(0,0,0)
(0,0,0)
(0,0,0)
(0,0,0)
(0,0,0)
(0,0,0)
(0,0,0)
(0,0,0)
(0,0,0)
(0,0,0)
(0,0,0)
(0,0,0)
(0,0,0)
(0,0,0)
(0,0,0)
(0,0,0)
(0,0,0)
(0,0,0)
(0,0,0)
(0,0,0)
(0,0,0)
(0,0,0)
(0,0,0)
(0,0,0)
(0,0,0)
(0,0,0)
(0,0,0)
(0,0,0)
(0,0,0)
(0,0,0)
(0,0,0)
(0,0,0)
(0,0,0)
(0,0,0)
(0,0,0)
(0,0,0)
(0,0,0)
(0,0,0)
(0,0,0)
(0,0,0)
(0,0,0)
(0,0,0)
(0,0,0)
(0,0,0)
(0,0,0)
(0,0,0)
(0,0,0)
(0,0,0)
(0,0,0)
(0,0,0)
(0,0,0)
(0,0,0)
(0,0,0)
(0,0,0)
(0,0,0)
(0,0,0)
(0,0,0)
(0,0,0)
(0,0,0)
(0,0,0)
(0,0,0)
(0,0,0)
(0,0,0)
(0,0,0)
(0,0,0)
(0,0,0)
(0,0,0)
(0,0,0)
(0,0,0)
(0,0,0)
(0,0,0)
(0,0,0)
(0,0,0)
(0,0,0)
(0,0,0)
(0,0,0)
(0,0,0)
(0,0,0)
(0,0,0)
(0,0,0)
(0,0,0)
(0,0,0)
(0,0,0)
(0,0,0)
(0,0,0)
(0,0,0)
(0,0,0)
(0,0,0)
(0,0,0)
(0,0,0)
(0,0,0)
(0,0,0)
(0,0,0)
(0,0,0)
(0,0,0)
(0,0,0)
(0,0,0)
(0,0,0)
(0,0,0)
(0,0,0)
(0,0,0)
(0,0,0)
(0,0,0)
(0,0,0)
(0,0,0)
(0,0,0)
(0,0,0)
(0,0,0)
(0,0,0)
(0,0,0)
(0,0,0)
(0,0,0)
(0,0,0)
(0,0,0)
(0,0,0)
(0,0,0)
(0,0,0)
(0,0,0)
(0,0,0)
(0,0,0)
(0,0,0)
(0,0,0)
(0,0,0)
(0,0,0)
(0,0,0)
(0,0,0)
(0,0,0)
(0,0,0)
(0,0,0)
(0,0,0)
(0,0,0)
(0,0,0)
(0,0,0)
(0,0,0)
(0,0,0)
(0,0,0)
(0,0,0)
(0,0,0)
(0,0,0)
(0,0,0)
(0,0,0)
(0,0,0)
(0,0,0)
(0,0,0)
(0,0,0)
(0,0,0)
(0,0,0)
(0,0,0)
(0,0,0)
(0,0,0)
(0,0,0)
(0,0,0)
(0,0,0)
(0,0,0)
(0,0,0)
(0,0,0)
(0,0,0)
(0,0,0)
(0,0,0)
(0,0,0)
(0,0,0)
(0,0,0)
(0,0,0)
(0,0,0)
(0,0,0)
(0,0,0)
(0,0,0)
(0,0,0)
(0,0,0)
(0,0,0)
(0,0,0)
(0,0,0)
(0,0,0)
(0,0,0)
(0,0,0)
(0,0,0)
(0,0,0)
(0,0,0)
(0,0,0)
(0,0,0)
(0,0,0)
(0,0,0)
(0,0,0)
(0,0,0)
(0,0,0)
(0,0,0)
(0,0,0)
(0,0,0)
(0,0,0)
(0,0,0)
(0,0,0)
(0,0,0)
(0,0,0)
(0,0,0)
(0,0,0)
(0,0,0)
(0,0,0)
(0,0,0)
(0,0,0)
(0,0,0)
(0,0,0)
(0,0,0)
(0,0,0)
(0,0,0)
(0,0,0)
(0,0,0)
(0,0,0)
(0,0,0)
(0,0,0)
(0,0,0)
(0,0,0)
(0,0,0)
(0,0,0)
(0,0,0)
(0,0,0)
(0,0,0)
(0,0,0)
(0,0,0)
(0,0,0)
(0,0,0)
(0,0,0)
(0,0,0)
(0,0,0)
(0,0,0)
(0,0,0)
(0,0,0)
(0,0,0)
(0,0,0)
(0,0,0)
(0,0,0)
(0,0,0)
(0,0,0)
(0,0,0)
(0,0,0)
(0,0,0)
(0,0,0)
(0,0,0)
(0,0,0)
(0,0,0)
(0,0,0)
(0,0,0)
(0,0,0)
(0,0,0)
(0,0,0)
(0,0,0)
(0,0,0)
(0,0,0)
(0,0,0)
(0,0,0)
(0,0,0)
(0,0,0)
(0,0,0)
(0,0,0)
(0,0,0)
(0,0,0)
(0,0,0)
(0,0,0)
(0,0,0)
(0,0,0)
(0,0,0)
(0,0,0)
(0,0,0)
(0,0,0)
(0,0,0)
(0,0,0)
(0,0,0)
(0,0,0)
(0,0,0)
(0,0,0)
(0,0,0)
(0,0,0)
(0,0,0)
(0,0,0)
(0,0,0)
(0,0,0)
(0,0,0)
(0,0,0)
(0,0,0)
(0,0,0)
(0,0,0)
(0,0,0)
(0,0,0)
(0,0,0)
(0,0,0)
(0,0,0)
(0,0,0)
(0,0,0)
(0,0,0)
(0,0,0)
(0,0,0)
(0,0,0)
(0,0,0)
(0,0,0)
(0,0,0)
(0,0,0)
(0,0,0)
(0,0,0)
(0,0,0)
(0,0,0)
(0,0,0)
(0,0,0)
(0,0,0)
(0,0,0)
(0,0,0)
(0,0,0)
(0,0,0)
(0,0,0)
(0,0,0)
(0,0,0)
(0,0,0)
(0,0,0)
(0,0,0)
(0,0,0)
(0,0,0)
(0,0,0)
(0,0,0)
(0,0,0)
(0,0,0)
(0,0,0)
(0,0,0)
(0,0,0)
(0,0,0)
(0,0,0)
(0,0,0)
(0,0,0)
(0,0,0)
(0,0,0)
(0,0,0)
(0,0,0)
(0,0,0)
(0,0,0)
(0,0,0)
(0,0,0)
(0,0,0)
(0,0,0)
(0,0,0)
(0,0,0)
(0,0,0)
(0,0,0)
(0,0,0)
(0,0,0)
(0,0,0)
(0,0,0)
(0,0,0)
(0,0,0)
(0,0,0)
(0,0,0)
(0,0,0)
(0,0,0)
(0,0,0)
(0,0,0)
(0,0,0)
(0,0,0)
(0,0,0)
(0,0,0)
(0,0,0)
(0,0,0)
(0,0,0)
(0,0,0)
(0,0,0)
(0,0,0)
(0,0,0)
(0,0,0)
(0,0,0)
(0,0,0)
(0,0,0)
(0,0,0)
(0,0,0)
(0,0,0)
(0,0,0)
(0,0,0)
(0,0,0)
(0,0,0)
(0,0,0)
(0,0,0)
(0,0,0)
(0,0,0)
(0,0,0)
(0,0,0)
(0,0,0)
(0,0,0)
(0,0,0)
(0,0,0)
(0,0,0)
(0,0,0)
(0,0,0)
(0,0,0)
(0,0,0)
(0,0,0)
(0,0,0)
(0,0,0)
(0,0,0)
(0,0,0)
(0,0,0)
(0,0,0)
(0,0,0)
(0,0,0)
(0,0,0)
(0,0,0)
(0,0,0)
(0,0,0)
(0,0,0)
(0,0,0)
(0,0,0)
(0,0,0)
(0,0,0)
(0,0,0)
(0,0,0)
(0,0,0)
(0,0,0)
(0,0,0)
(0,0,0)
(0,0,0)
(0,0,0)
(0,0,0)
(0,0,0)
(0,0,0)
(0,0,0)
(0,0,0)
(0,0,0)
(0,0,0)
(0,0,0)
(0,0,0)
(0,0,0)
(0,0,0)
(0,0,0)
(0,0,0)
(0,0,0)
(0,0,0)
(0,0,0)
(0,0,0)
(0,0,0)
(0,0,0)
(0,0,0)
(0,0,0)
(0,0,0)
(0,0,0)
(0,0,0)
(0,0,0)
(0,0,0)
(0,0,0)
(0,0,0)
(0,0,0)
(0,0,0)
(0,0,0)
(0,0,0)
(0,0,0)
(0,0,0)
(0,0,0)
(0,0,0)
(0,0,0)
(0,0,0)
(0,0,0)
(0,0,0)
(0,0,0)
(0,0,0)
(0,0,0)
(0,0,0)
(0,0,0)
(0,0,0)
(0,0,0)
(0,0,0)
(0,0,0)
(0,0,0)
(0,0,0)
(0,0,0)
(0,0,0)
(0,0,0)
(0,0,0)
(0,0,0)
(0,0,0)
(0,0,0)
(0,0,0)
(0,0,0)
(0,0,0)
(0,0,0)
(0,0,0)
(0,0,0)
(0,0,0)
(0,0,0)
(0,0,0)
(0,0,0)
(0,0,0)
(0,0,0)
(0,0,0)
(0,0,0)
(0,0,0)
(0,0,0)
(0,0,0)
(0,0,0)
(0,0,0)
(0,0,0)
(0,0,0)
(0,0,0)
(0,0,0)
(0,0,0)
(0,0,0)
(0,0,0)
(0,0,0)
(0,0,0)
(0,0,0)
(0,0,0)
(0,0,0)
(0,0,0)
(0,0,0)
(0,0,0)
(0,0,0)
(0,0,0)
(0,0,0)
(0,0,0)
(0,0,0)
(0,0,0)
(0,0,0)
(0,0,0)
(0,0,0)
(0,0,0)
(0,0,0)
(0,0,0)
(0,0,0)
(0,0,0)
(0,0,0)
(0,0,0)
(0,0,0)
(0,0,0)
(0,0,0)
(0,0,0)
(0,0,0)
(0,0,0)
(0,0,0)
(0,0,0)
(0,0,0)
(0,0,0)
(0,0,0)
(0,0,0)
(0,0,0)
(0,0,0)
(0,0,0)
(0,0,0)
(0,0,0)
(0,0,0)
(0,0,0)
(0,0,0)
(0,0,0)
(0,0,0)
(0,0,0)
(0,0,0)
(0,0,0)
(0,0,0)
(0,0,0)
(0,0,0)
(0,0,0)
(0,0,0)
(0,0,0)
(0,0,0)
(0,0,0)
(0,0,0)
(0,0,0)
(0,0,0)
(0,0,0)
(0,0,0)
(0,0,0)
(0,0,0)
(0,0,0)
(0,0,0)
(0,0,0)
(0,0,0)
(0,0,0)
(0,0,0)
(0,0,0)
(0,0,0)
(0,0,0)
(0,0,0)
(0,0,0)
(0,0,0)
(0,0,0)
(0,0,0)
(0,0,0)
(0,0,0)
(0,0,0)
(0,0,0)
(0,0,0)
(0,0,0)
(0,0,0)
(0,0,0)
(0,0,0)
(0,0,0)
(0,0,0)
(0,0,0)
(0,0,0)
(0,0,0)
(0,0,0)
(0,0,0)
(0,0,0)
(0,0,0)
(0,0,0)
(0,0,0)
(0,0,0)
(0,0,0)
(0,0,0)
(0,0,0)
(0,0,0)
(0,0,0)
(0,0,0)
(0,0,0)
(0,0,0)
(0,0,0)
(-0.245903430460378,0,0.245903430460378)
(-5.37911391318983,0,5.62501734365021)
(-47.1513954649301,0,52.7764128085803)
(-215.927772862236,0,268.704185670816)
(-591.852778953081,0,860.556964623897)
(-1184.03561694647,0,2044.59258157037)
(-2164.83982900597,0,4209.43241057634)
(-3253.96858922891,0,7463.40099980525)
(0,0,0)
(0,0,0)
(0,0,0)
(0,0,0)
(0,0,0)
(0,0,0)
(0,0,0)
(0,0,0)
(-0.245903430460378,0,0.245903430460378)
(-5.37911391318983,0,5.62501734365021)
(-47.1513954649301,0,52.7764128085803)
(-215.927772862236,0,268.704185670816)
(-591.852778953081,0,860.556964623897)
(-1184.03561694647,0,2044.59258157037)
(-2164.83982900597,0,4209.43241057634)
(-3253.96858922891,0,7463.40099980525)
(0,0,0)
(0,0,0)
(0,0,0)
(0,0,0)
(0,0,0)
(0,0,0)
(-0.245903430460378,0.245903430460378,0)
(-0.245903430460378,0.245903430460378,0)
(-0.491806860920756,0.245903430460378,0.245903430460378)
(-5.62501734365063,0.245903430460801,5.62501734365021)
(-47.3972988953913,0.245903430461223,52.7764128085803)
(-216.173676292697,0.24590343046094,268.704185670816)
(-592.098682383543,0.245903430461352,860.556964623897)
(-1184.28152037694,0.245903430461332,2044.59258157037)
(-2165.08573243643,0.245903430461292,4209.43241057634)
(-3254.21449265937,0.245903430461451,7463.40099980525)
(0,0,0)
(0,0,0)
(0,0,0)
(0,0,0)
(0,0,0)
(0,0,0)
(-5.37911391318999,5.62501734365037,0)
(-5.37911391318999,5.62501734365037,0)
(-5.62501734365079,5.62501734365037,0.245903430460801)
(-10.7582278263798,5.62501734365079,5.62501734365063)
(-52.53050937812,5.62501734365192,52.77641280858)
(-221.306886775427,5.62501734365143,268.704185670816)
(-597.600748010178,5.50206562901604,861.048771482439)
(-1189.04587571576,5.74796905828686,2044.59258157037)
(-2170.21894291916,5.62501734365066,4209.43241057634)
(-3257.38047569841,3.90369333042296,7463.15509637479)
(0,0,0)
(0,0,0)
(0,0,0)
(0,0,0)
(0,0,0)
(0,0,0)
(-47.1513954649302,52.7764128085805,0)
(-47.1513954649302,52.7764128085805,0)
(-47.3972988953914,52.7764128085805,0.245903430461225)
(-52.53050937812,52.7764128085802,5.62501734365176)
(-94.3027909298557,52.7764128085797,52.7764128085796)
(-263.448023471073,52.7764128085813,269.073040814723)
(-641.432457282049,52.7764128085811,863.231150917207)
(-1228.94315711932,52.7764128085799,2045.14586428623)
(-2204.55264570213,47.6124407688966,4207.71108656311)
(-3276.74497254641,29.1083493955775,7459.25140304436)
(0,0,0)
(0,0,0)
(0,0,0)
(0,0,0)
(0,0,0)
(0,0,0)
(-215.927772862235,268.704185670816,0)
(-215.927772862235,268.704185670816,0)
(-216.173676292696,268.704185670816,0.245903430460942)
(-221.306886775426,268.704185670816,5.6250173436514)
(-263.079168327166,268.704185670816,52.7764128085813)
(-432.224400868376,268.704185670816,269.073040814723)
(-810.97728289642,269.226730458016,863.600006061708)
(-1383.70303898094,260.097565604677,2039.98189224655)
(-2318.89264737218,217.279985197834,4189.20699518979)
(-3338.21765390929,126.389944845877,7430.14305364879)
(0,0,0)
(0,0,0)
(0,0,0)
(0,0,0)
(0,0,0)
(0,0,0)
(-591.852778953081,860.556964623897,0)
(-591.852778953081,860.556964623897,0)
(-592.098682383543,860.556964623897,0.245903430461345)
(-597.231892866271,860.556964623897,5.62501734365158)
(-639.004174418009,860.556964623896,52.7764128085808)
(-808.518262103129,861.048771482439,268.950089100087)
(-1170.70338700072,854.255675707161,854.624530851662)
(-1678.81885721806,796.376641834691,1997.1643118397)
(-2525.42621710014,641.553559299838,4098.31695483784)
(-3449.47394938407,370.427740264879,7303.75310880291)
(0,0,0)
(0,0,0)
(0,0,0)
(0,0,0)
(0,0,0)
(0,0,0)
(-1184.03561694647,2044.59258157037,0)
(-1184.03561694647,2044.59258157037,0)
(-1184.28152037693,2044.59258157037,0.245903430461345)
(-1189.41473085966,2044.59258157037,5.62501734365093)
(-1231.1870124114,2044.59258157037,52.7764128085809)
(-1385.82394255898,2039.42860953069,260.220517319312)
(-1679.06476064792,1997.1643118397,796.376641834691)
(-2091.56031979641,1842.1568017329,1842.1568017329)
(-2841.39177736017,1497.91100259004,3827.19113580288)
(-3624.75535888182,889.048866411551,6933.32536853803)
(0,0,0)
(0,0,0)
(0,0,0)
(0,0,0)
(0,0,0)
(0,0,0)
(-2164.83982900597,4209.43241057634,0)
(-2164.83982900597,4209.43241057634,0)
(-2165.08573243643,4209.43241057634,0.245903430461345)
(-2170.21894291916,4209.43241057634,5.62501734365116)
(-2205.10592841799,4207.71108656311,47.6124407688972)
(-2319.44593008804,4189.20699518979,217.279985197834)
(-2525.42621710014,4098.31695483784,641.553559299839)
(-2841.39177736017,3827.19113580288,1497.91100259003)
(-3440.83599406871,3218.32899962439,3218.32899962439)
(-3946.53324679704,2009.6346107065,6044.27650212648)
(0,0,0)
(0,0,0)
(0,0,0)
(0,0,0)
(0,0,0)
(0,0,0)
(-3253.96858922891,7463.40099980525,0)
(-3253.96858922891,7463.40099980525,0)
(-3254.21449265937,7463.40099980525,0.245903430461292)
(-3257.38047569841,7463.15509637479,3.90369333042423)
(-3276.74497254641,7459.25140304436,29.108349395578)
(-3338.21765390929,7430.14305364879,126.389944845877)
(-3449.47394938407,7303.75310880291,370.427740264879)
(-3624.75535888182,6933.32536853803,889.04886641155)
(-3946.53324679704,6044.27650212648,2009.6346107065)
(-4050.01456142694,4034.64189141998,4034.64189141998)
(0,0,0)
(0,0,0)
(0,0,0)
(0,0,0)
(0,0,0)
(0,0,0)
(0,0,0)
(0,0,0)
(0,0,0)
(0,0,0)
(0,0,0)
(0,0,0)
(0,0,0)
(0,0,0)
(0,0,0)
(0,0,0)
(0,0,0)
(0,0,0)
(0,0,0)
(0,0,0)
(0,0,0)
(0,0,0)
(0,0,0)
(0,0,0)
(0,0,0)
(0,0,0)
(0,0,0)
(0,0,0)
(0,0,0)
(0,0,0)
(0,0,0)
(0,0,0)
(0,0,0)
(0,0,0)
(0,0,0)
(0,0,0)
(0,0,0)
(0,0,0)
(0,0,0)
(0,0,0)
(0,0,0)
(0,0,0)
(0,0,0)
(0,0,0)
(0,0,0)
(0,0,0)
(0,0,0)
(0,0,0)
(0,0,0)
(0,0,0)
(0,0,0)
(0,0,0)
(0,0,0)
(0,0,0)
(0,0,0)
(0,0,0)
(0,0,0)
(0,0,0)
(0,0,0)
(0,0,0)
(0,0,0)
(0,0,0)
(0,0,0)
(0,0,0)
(0,0,0)
(0,0,0)
(0,0,0)
(0,0,0)
(0,0,0)
(0,0,0)
(0,0,0)
(0,0,0)
(0,0,0)
(0,0,0)
(0,0,0)
(0,0,0)
(0,0,0)
(0,0,0)
(0,0,0)
(0,0,0)
(0,0,0)
(0,0,0)
(0,0,0)
(0,0,0)
(0,0,0)
(0,0,0)
(0,0,0)
(0,0,0)
(0,0,0)
(0,0,0)
(0,0,0)
(0,0,0)
(0,0,0)
(0,0,0)
(0,0,0)
(0,0,0)
(0,0,0)
(0,0,0)
(0,0,0)
(0,0,0)
(0,0,0)
(0,0,0)
(33264.8448601708,0,0)
(33264.814122242,0,0.0307379288082966)
(33264.076415326,0,0.55327934308505)
(33255.8694828466,0,4.14954275406189)
(33200.9112947903,0,20.9317126696027)
(32969.6181083807,0,100.230691597402)
(32359.0609371145,0,414.161835700564)
(31208.1576570139,0,1286.81342191101)
(28826.8406539954,0,3559.97779908042)
(22241.1745996654,0,11329.6794703569)
(0,0,0)
(0,0,0)
(0,0,0)
(0,0,0)
(0,0,0)
(0,0,0)
(33264.814122242,0.0307379288082966,0)
(33264.7833843132,0.0307379288082966,0.0307379288082966)
(33264.0456773972,0.0307379288070265,0.55327934308505)
(33255.8387449178,0.0307379288057565,4.14954275406189)
(33200.8805568615,0.0307379288057565,20.9317126696027)
(32969.5873704519,0.0307379288057565,100.230691597402)
(32359.0301991857,0.0307379288082966,414.161835700564)
(31208.1269190851,0.0307379288082966,1286.81342191101)
(28826.8099160666,0.0307379288082966,3559.97779908042)
(22241.1438617366,0.0307379288082966,11329.6794703569)
(0,0,0)
(0,0,0)
(0,0,0)
(0,0,0)
(0,0,0)
(0,0,0)
(33264.076415326,0.55327934308505,0)
(33264.0456773972,0.55327934308505,0.0307379288070265)
(33263.3079704813,0.55327934308632,0.553279343083779)
(33255.1010380019,0.553279343088436,4.14954275406189)
(33200.1428499456,0.553279343090554,20.9317126696027)
(32968.849663536,0.5532793430883,100.230691597405)
(32357.9236371259,0.184424199179995,414.899545988377)
(31207.758067313,0.922134486995794,1286.81342191101)
(28826.0722091507,0.553279343086675,3559.97779908042)
(22240.68279618,0.307375912625859,11329.648732428)
(0,0,0)
(0,0,0)
(0,0,0)
(0,0,0)
(0,0,0)
(0,0,0)
(33255.8694828466,4.14954275406243,0)
(33255.8387449178,4.14954275406243,0.0307379288082966)
(33255.1010380019,4.14954275405989,0.55327934308632)
(33246.8941055224,4.14954275406328,4.14954275406317)
(33191.9359174661,4.14954275406582,20.9317126696014)
(32959.9050207688,3.78068761015752,101.337257029122)
(32345.5978492068,1.78273574674943,421.385208435365)
(31203.30113513,6.14749461687879,1288.65769763054)
(28820.262835112,3.84216346331081,3559.73189564996)
(22236.1951260827,1.96717343686704,11329.3413565154)
(0,0,0)
(0,0,0)
(0,0,0)
(0,0,0)
(0,0,0)
(0,0,0)
(33200.9112947903,20.9317126696034,0)
(33200.8805568615,20.9317126696034,0.0307379288057565)
(33200.1428499456,20.9317126696034,0.553279343090129)
(33191.9359174661,20.931712669601,4.14954275406556)
(33136.6088742659,20.9317126696018,21.3005678135062)
(32900.7665014155,20.9317126696035,104.779878038298)
(32270.7832798711,21.5464712427785,437.645265559905)
(31165.4944108912,19.4562920862385,1294.74376025079)
(28783.5628349676,15.9829770160071,3559.33232619914)
(22211.6977495345,10.3274546473436,11327.3741830786)
(0,0,0)
(0,0,0)
(0,0,0)
(0,0,0)
(0,0,0)
(0,0,0)
(32969.6181083807,100.230691597402,0)
(32969.5873704519,100.230691597402,0.0307379288057565)
(32968.849663536,100.230691597405,0.553279343088719)
(32960.6427310566,100.230691597403,4.14954275406604)
(32905.3156878564,100.2306915974,21.3005678135082)
(32667.9364185718,101.798325959003,105.117995254733)
(32035.4634821961,105.394619723218,439.673941852555)
(30953.0126343966,94.329127401265,1292.93029333082)
(28617.8938742763,83.2948050386793,3553.67680383048)
(22121.7638793038,51.820857004271,11317.0467284312)
(0,0,0)
(0,0,0)
(0,0,0)
(0,0,0)
(0,0,0)
(0,0,0)
(32359.0609371145,414.161835700564,0)
(32359.0301991857,414.161835700564,0.0307379288082966)
(32358.2924922698,414.161835700564,0.55327934308747)
(32350.0855597904,414.161835700564,4.14954275406345)
(32294.3896614463,414.899545988377,20.9317126696013)
(32059.530929331,418.987649991641,100.538057373566)
(31443.0416855425,426.549018423419,430.483446300951)
(30428.7963980573,400.238421416262,1281.80375718136)
(28240.659389284,341.654960210639,3522.20285579607)
(21918.1818726817,205.986879478387,11265.2258714269)
(0,0,0)
(0,0,0)
(0,0,0)
(0,0,0)
(0,0,0)
(0,0,0)
(31208.1576570139,1286.81342191101,0)
(31208.1269190851,1286.81342191101,0.0307379288082966)
(31207.3892121691,1286.81342191101,0.553279343087469)
(31199.1822796897,1286.81342191101,4.14954275406369)
(31147.1749327971,1285.95275990439,19.5792438002806)
(30937.152177086,1284.56962398356,95.8660103341983)
(30426.9521358277,1280.38981246097,400.853179991818)
(29534.3289984938,1220.02357164434,1220.02357164434)
(27566.1234858064,1033.21106408313,3385.797064776)
(21530.1224414466,642.512012148182,11059.2389919486)
(0,0,0)
(0,0,0)
(0,0,0)
(0,0,0)
(0,0,0)
(0,0,0)
(28826.8406539954,3559.97779908042,0)
(28826.8099160666,3559.97779908042,0.0307379288082966)
(28826.0722091507,3559.97779908042,0.553279343086305)
(28818.9718421083,3559.73189564996,3.28888074745009)
(28774.5874070493,3558.41018833938,15.9829770160091)
(28609.3487773571,3552.75466597071,83.8480877545391)
(28239.7987272794,3522.20285579607,341.654960210639)
(27566.1234858064,3385.79706477601,1033.21106408313)
(25900.2349685862,2995.09801284105,2995.09801284105)
(20473.6399838492,2065.55467471337,10416.7269798004)
(0,0,0)
(0,0,0)
(0,0,0)
(0,0,0)
(0,0,0)
(0,0,0)
(22241.1745996654,11329.6794703569,0)
(22241.1438617366,11329.6794703569,0.0307379288082966)
(22240.68279618,11329.648732428,0.307375912625912)
(22236.1951260827,11329.3413565154,1.96717343686886)
(22210.7756116747,11327.3741830786,10.327454647343)
(22120.8417414441,11317.0467284312,51.8208570042717)
(21918.1818726817,11265.2258714269,205.986879478385)
(21530.1224414466,11059.2389919486,642.512012148183)
(20473.6399838492,10416.7269798004,2065.55467471337)
(16643.5950379966,8351.172305087,8351.172305087)
(0,0,0)
(0,0,0)
(0,0,0)
(0,0,0)
(0,0,0)
(0,0,0)
(0,0,0)
(0,0,0)
(0,0,0)
(0,0,0)
(0,0,0)
(0,0,0)
(0,0,0)
(0,0,0)
(0,0,0)
(0,0,0)
(0,0,0)
(0,0,0)
(0,0,0)
(0,0,0)
(0,0,0)
(0,0,0)
(0,0,0)
(0,0,0)
(0,0,0)
(0,0,0)
(0,0,0)
(0,0,0)
(0,0,0)
(0,0,0)
(0,0,0)
(0,0,0)
(0,0,0)
(0,0,0)
(0,0,0)
(0,0,0)
(0,0,0)
(0,0,0)
(0,0,0)
(0,0,0)
(0,0,0)
(0,0,0)
(0,0,0)
(0,0,0)
(0,0,0)
(0,0,0)
(0,0,0)
(0,0,0)
(0,0,0)
(0,0,0)
(0,0,0)
(0,0,0)
(0,0,0)
(0,0,0)
(0,0,0)
(0,0,0)
(0,0,0)
(0,0,0)
(0,0,0)
(0,0,0)
(0,0,0)
(0,0,0)
(0,0,0)
(0,0,0)
(0,0,0)
(0,0,0)
(0,0,0)
(0,0,0)
(0,0,0)
(0,0,0)
(0,0,0)
(0,0,0)
(0,0,0)
(0,0,0)
(0,0,0)
(0,0,0)
(0,0,0)
(0,0,0)
(0,0,0)
(0,0,0)
(0,0,0)
(0,0,0)
(0,0,0)
(0,0,0)
(0,0,0)
(0,0,0)
(0,0,0)
(0,0,0)
(0,0,0)
(0,0,0)
(0,0,0)
(0,0,0)
(0,0,0)
(0,0,0)
(0,0,0)
(0,0,0)
(0,0,0)
(0,0,0)
(0,0,0)
(0,0,0)
(0,0,0)
(0,0,0)
(0,0,0)
(0,0,-0.0307379288082966)
(-0.245903430460378,0,-0.55327934308505)
(-5.37911391318983,0,-4.14954275406189)
(-48.8727194781578,0,-19.2103886563749)
(-242.823342428187,0,-71.6137980182229)
(-746.401127244592,0,-230.996593829873)
(-1599.75382093137,0,-687.929976055418)
(-2756.69260795905,0,-2369.24157427175)
(-3744.03430830025,0,-9648.87752647684)
(0,0,0)
(0,0,0)
(0,0,0)
(0,0,0)
(0,0,0)
(0,0,0)
(0,-0.0307379288082966,0)
(0,-0.0307379288082966,-0.0307379288082966)
(-0.245903430460378,-0.0307379288070265,-0.55327934308505)
(-5.37911391318983,-0.0307379288057565,-4.14954275406189)
(-48.8727194781578,-0.0307379288057565,-19.2103886563749)
(-242.823342428187,-0.0307379288057565,-71.6137980182229)
(-746.524078959228,-0.399593072714905,-230.504786971331)
(-1599.63086921674,0.338117215098372,-687.929976055418)
(-2756.69260795905,-0.0307379288082966,-2369.24157427175)
(-3744.03430830025,-0.0307379288082966,-9648.87752647684)
(0,0,0)
(0,0,0)
(0,0,0)
(0,0,0)
(0,0,0)
(0,0,0)
(-0.245903430460378,-0.55327934308505,0)
(-0.245903430460378,-0.55327934308505,-0.0307379288070265)
(-0.491806860920756,-0.55327934308632,-0.553279343083779)
(-5.62501734365063,-0.553279343088436,-4.14954275406189)
(-49.1186229086191,-0.553279343090554,-19.2103886563749)
(-243.438101002555,-1.2909896309015,-70.5072325865057)
(-748.829410108632,-5.59427264430784,-223.404365951168)
(-1598.00177249902,3.56557609717544,-685.716845191978)
(-2756.01637352974,0.737713660586435,-2369.24157427175)
(-3744.28021173071,-0.307375912626494,-9648.84678854803)
(0,0,0)
(0,0,0)
(0,0,0)
(0,0,0)
(0,0,0)
(0,0,0)
(-5.37911391318999,-4.14954275406243,0)
(-5.37911391318999,-4.14954275406243,-0.0307379288082966)
(-5.62501734365079,-4.14954275405989,-0.55327934308632)
(-10.7582278263798,-4.14954275406328,-4.14954275406317)
(-54.6206885352544,-4.51839789797242,-18.4726783685604)
(-252.444263493898,-9.25201191260311,-63.0072319949772)
(-773.573098434203,-28.893220946595,-185.382196222477)
(-1587.21303631947,11.7416524732911,-667.888961319933)
(-2750.08399719534,4.94883688308471,-2366.5981124059)
(-3745.97077419413,-1.04503557710125,-9648.5394126354)
(0,0,0)
(0,0,0)
(0,0,0)
(0,0,0)
(0,0,0)
(0,0,0)
(-48.8727194781579,-19.2103886563756,0)
(-48.8727194781579,-19.2103886563756,-0.0307379288057565)
(-49.1186229086191,-19.2103886563756,-0.553279343090129)
(-54.3747851059833,-19.2103886563732,-4.02659103943003)
(-99.8048666752535,-19.210388656374,-17.7657195106072)
(-311.460222639799,-17.9808715100205,-61.6549960287021)
(-962.66799235965,-12.632509057035,-109.309295858297)
(-1550.1154145315,-14.5997128373223,-632.202965295745)
(-2736.83621332779,-13.4009909982481,-2358.2989492898)
(-3757.98896010103,-8.60613063411467,-9645.89600476804)
(0,0,0)
(0,0,0)
(0,0,0)
(0,0,0)
(0,0,0)
(0,0,0)
(-242.823342428187,-71.613798018223,0)
(-242.823342428187,-71.613798018223,-0.0307379288057565)
(-243.069245858648,-71.6137980182255,-0.553279343088711)
(-248.325408056013,-71.6137980182239,-4.0265910394305)
(-294.523937842355,-70.0461636566181,-18.1960505112386)
(-511.865753233136,-56.9826317335188,-64.2369786536045)
(-1188.03210676173,-24.2473959116019,-93.9713630119933)
(-1749.32210162054,-53.6630265429188,-617.418173460081)
(-2872.81563248044,-54.2168425305093,-2350.7376753419)
(-3833.32432921781,-31.8105834912303,-9637.28987413393)
(0,0,0)
(0,0,0)
(0,0,0)
(0,0,0)
(0,0,0)
(0,0,0)
(-746.401127244592,-230.996593829874,0)
(-746.401127244592,-230.996593829874,-0.0307379288082966)
(-746.647030675054,-230.996593829874,-0.553279343087472)
(-752.026144587053,-230.504786971331,-4.3954461833345)
(-798.50130223012,-224.449455525571,-21.9460508087864)
(-1015.04374585015,-191.037927834658,-78.1609396972322)
(-1697.17083421836,-120.005895854628,-107.034780164152)
(-2188.68865355017,-191.130722132221,-616.926893138138)
(-3188.83580423671,-176.963206795746,-2329.530195523)
(-3997.51008918628,-105.01438667431,-9605.4792906427)
(0,0,0)
(0,0,0)
(0,0,0)
(0,0,0)
(0,0,0)
(0,0,0)
(-1599.75382093137,-687.929976055418,0)
(-1599.75382093137,-687.929976055418,-0.0307379288082966)
(-1599.99972436184,-687.929976055418,-0.553279343087469)
(-1605.00998312993,-687.929976055417,-3.78068761015723)
(-1647.73515397844,-684.856183185364,-13.3087333455635)
(-1822.25963208118,-665.337784108577,-44.441928075288)
(-2184.63127740798,-629.990431840993,-187.718839024037)
(-2865.54809915635,-622.554158343419,-621.263165333499)
(-3687.62063445183,-543.139177366652,-2266.1879346751)
(-4246.8339035313,-357.519367142169,-9501.57146940011)
(0,0,0)
(0,0,0)
(0,0,0)
(0,0,0)
(0,0,0)
(0,0,0)
(-2756.69260795905,-2369.24157427175,0)
(-2756.69260795905,-2369.24157427175,-0.0307379288082966)
(-2756.93851138951,-2369.24157427175,-0.553279343086464)
(-2762.07172187224,-2368.99567084129,-3.28888074745015)
(-2797.75789352453,-2367.67396353071,-12.9706599991078)
(-2927.7434503649,-2359.62088272665,-46.4401938298568)
(-3194.06121838517,-2331.43594710223,-175.979593074794)
(-3687.9280137408,-2266.1879346751,-543.139177366652)
(-4287.53886655319,-2081.67468988234,-2081.67468988234)
(-4549.82259679975,-1536.52423428836,-9144.05210225794)
(0,0,0)
(0,0,0)
(0,0,0)
(0,0,0)
(0,0,0)
(0,0,0)
(-3744.03430830025,-9648.87752647684,0)
(-3744.03430830025,-9648.87752647684,-0.0307379288082966)
(-3744.28021173071,-9648.84678854803,-0.307375912625833)
(-3747.44619476976,-9648.5394126354,-1.96717343686968)
(-3768.53201563098,-9646.57223919853,-8.60613063411407)
(-3843.3755778916,-9637.96610856442,-30.8884456314646)
(-3998.49370290574,-9605.4792906427,-105.014386674308)
(-4246.8339035313,-9501.57146940011,-357.51936714217)
(-4549.82259679975,-9144.05210225794,-1536.52423428836)
(-4479.24255481175,-7607.52786796958,-7607.52786796958)
(0,0,0)
(0,0,0)
(0,0,0)
(0,0,0)
(0,0,0)
(0,0,0)
(0,0,0)
(0,0,0)
(0,0,0)
(0,0,0)
(0,0,0)
(0,0,0)
(0,0,0)
(0,0,0)
(0,0,0)
(0,0,0)
(0,0,0)
(0,0,0)
(0,0,0)
(0,0,0)
(0,0,0)
(0,0,0)
(0,0,0)
(0,0,0)
(0,0,0)
(0,0,0)
(0,0,0)
(0,0,0)
(0,0,0)
(0,0,0)
(0,0,0)
(0,0,0)
(0,0,0)
(0,0,0)
(0,0,0)
(0,0,0)
(0,0,0)
(0,0,0)
(0,0,0)
(0,0,0)
(0,0,0)
(0,0,0)
(0,0,0)
(0,0,0)
(0,0,0)
(0,0,0)
(0,0,0)
(0,0,0)
(0,0,0)
(0,0,0)
(0,0,0)
(0,0,0)
(0,0,0)
(0,0,0)
(0,0,0)
(0,0,0)
(0,0,0)
(0,0,0)
(0,0,0)
(0,0,0)
(0,0,0)
(0,0,0)
(0,0,0)
(0,0,0)
(0,0,0)
(0,0,0)
(0,0,0)
(0,0,0)
(0,0,0)
(0,0,0)
(0,0,0)
(0,0,0)
(0,0,0)
(0,0,0)
(0,0,0)
(0,0,0)
(0,0,0)
(0,0,0)
(0,0,0)
(0,0,0)
(0,0,0)
(0,0,0)
(0,0,0)
(0,0,0)
(0,0,0)
(0,0,0)
(0,0,0)
(0,0,0)
(0,0,0)
(0,0,0)
(0,0,0)
(0,0,0)
(0,0,0)
(0,0,0)
(0,0,0)
(0,0,0)
(0,0,0)
(0,0,0)
(0,0,0)
(0,0,0)
(0,0,0)
(0,0,0)
(0,0,0)
(0,0,0)
(0,0,-0.245903430460378)
(-0.860662006613764,0,-4.76435533703644)
(-16.137341739571,0,-37.4997330756233)
(-118.493247238475,0,-161.829828265335)
(-442.613773550852,-0.122951714635569,-465.49423024444)
(-958.014454766092,0.122951714635569,-1107.35654812436)
(-1399.96338980871,0,-2464.0857662747)
(-1393.89950018086,0,-4814.22057439409)
(0,0,0)
(0,0,0)
(0,0,0)
(0,0,0)
(0,0,0)
(0,0,0)
(0,0,0)
(0,0,0)
(0,0,-0.245903430460378)
(-0.860662006613764,0,-4.76435533703644)
(-16.137341739571,0,-37.4997330756233)
(-118.493247238475,-0.368855143906599,-161.460973121429)
(-442.613773550257,-2.98156558049384,-462.512664664541)
(-958.014454766092,2.24385529208543,-1106.24998269264)
(-1399.77896223676,0.922137859766661,-2464.0857662747)
(-1393.89950018086,0,-4814.22057439409)
(0,0,0)
(0,0,0)
(0,0,0)
(0,0,0)
(0,0,0)
(0,0,0)
(0,-0.245903430460378,0)
(0,-0.245903430460378,0)
(0,-0.245903430460378,-0.245903430460378)
(-0.860662006613764,-0.245903430460801,-4.76435533703644)
(-16.137341739571,-0.614758574367826,-37.1308779317167)
(-118.185867950101,-5.96313116217761,-156.788834965899)
(-442.398608041463,-32.4281266107885,-433.773076002773)
(-956.416082470772,18.3194780902041,-1091.43438882914)
(-1396.58223790625,12.1106763903455,-2462.05706298321)
(-1393.346217465,1.22951714516534,-4814.22057439409)
(0,0,0)
(0,0,0)
(0,0,0)
(0,0,0)
(0,0,0)
(0,0,0)
(-0.860662006613764,-4.76435533703661,0)
(-0.860662006613764,-4.76435533703661,0)
(-0.860662006613764,-4.76435533703661,-0.245903430460801)
(-1.72132401322753,-4.88730705167257,-4.64140362240133)
(-16.383245171222,-7.37706577362542,-36.1165397871762)
(-112.622336601272,-31.7518888216526,-150.149709020327)
(-447.562549672798,-206.06192330085,-302.526461091671)
(-929.582012453356,82.7119081224571,-1024.54991499004)
(-1366.05996751527,52.4073178088729,-2448.87058608864)
(-1387.8134308106,6.94674149027626,-4812.74515381727)
(0,0,0)
(0,0,0)
(0,0,0)
(0,0,0)
(0,0,0)
(0,0,0)
(-16.137341739571,-37.4997330756235,0)
(-16.137341739571,-37.4997330756235,0)
(-16.137341739571,-37.4997330756235,-0.245903430461225)
(-16.6906244590009,-37.4997330756233,-5.31763805349292)
(-25.4508970575307,-36.884974502445,-50.1636989423962)
(-63.8420707559695,-31.1677569061524,-298.365982741726)
(-1.43247494181528e-06,-2.4261665880961e-07,-5.46425434861852e-07)
(-1244.41982186718,-40.3890847594683,-950.38378217179)
(-1166.0240690173,-26.5570641692432,-2442.23154450417)
(-1367.09648882154,-18.0120279828392,-4808.16524631054)
(0,0,0)
(0,0,0)
(0,0,0)
(0,0,0)
(0,0,0)
(0,0,0)
(-118.493247238475,-161.829828265335,0)
(-118.493247238475,-161.829828265335,0)
(-118.493247238475,-161.829828265335,-0.245903430460947)
(-119.046529957905,-161.307283478135,-5.71723112605792)
(-126.116216474691,-154.514245122985,-56.4956818731816)
(-145.480730399488,-115.139660596202,-338.90880101678)
(-1.30796915577189e-06,-1.07427951241139e-06,-1.52835832807698e-07)
(-1322.55435783488,-116.922183641951,-900.589127451135)
(-1258.39009346817,-122.700795960487,-2418.87093467215)
(-1410.55896828018,-71.5238085596837,-4788.12451503294)
(0,0,0)
(0,0,0)
(0,0,0)
(0,0,0)
(0,0,0)
(0,0,0)
(-442.613773550852,-465.617181959075,0)
(-442.613773550852,-465.617181959075,0)
(-442.613773550852,-465.49423024444,-0.368855145096875)
(-442.859676983099,-463.434802524308,-7.40780370287895)
(-446.333059597572,-444.838662819608,-69.2516286388037)
(-432.593536600405,-348.048523390809,-418.792975093937)
(-3.4502929556804e-06,-1.78857017973834e-07,-5.7038829841652e-08)
(-1559.56446176303,-378.107085168238,-886.326671136551)
(-1456.30182185001,-367.750718513057,-2373.81073097068)
(-1522.80786257898,-201.929901157444,-4718.10686498022)
(0,0,0)
(0,0,0)
(0,0,0)
(0,0,0)
(0,0,0)
(0,0,0)
(-958.014454766092,-1107.35654812436,0)
(-958.014454766092,-1107.35654812436,0)
(-958.014454766092,-1107.35654812436,-0.122951715825816)