/*--------------------------------*- C++ -*----------------------------------*\
| =========                 |                                                 |
| \\      /  F ield         | foam-extend: Open Source CFD                    |
|  \\    /   O peration     | Version:     4.0                                |
|   \\  /    A nd           | Web:         http://www.foam-extend.org         |
|    \\/     M anipulation  |                                                 |
\*---------------------------------------------------------------------------*/
FoamFile
{
    version 2.0;
    format ascii;
    class volVectorField;
    location "2798";
    object      H;
}
// * * * * * * * * * * * * * * * * * * * * * * * * * * * * * * * * * * * * * //

dimensions      [0 1 -1 0 0 0 0];

internalField   nonuniform List<vector>
4096
(
(0,0,0)
(0,0,0)
(0,0,0)
(0,0,0)
(0,0,0)
(0,0,0)
(0,0,0)
(0,0,0)
(0,0,0)
(0,0,0)
(0,0,0)
(0,0,0)
(0,0,0)
(0,0,0)
(0,0,0)
(0,0,0)
(0,0,0)
(0,0,0)
(0,0,0)
(0,0,0)
(0,0,0)
(0,0,0)
(0,0,0)
(0,0,0)
(0,0,0)
(0,0,0)
(0,0,0)
(0,0,0)
(0,0,0)
(0,0,0)
(0,0,0)
(0,0,0)
(0,0,0)
(0,0,0)
(0,0,0)
(0,0,0)
(0,0,0)
(0,0,0)
(0,0,0)
(0,0,0)
(0,0,0)
(0,0,0)
(0,0,0)
(0,0,0)
(0,0,0)
(0,0,0)
(0,0,0)
(0,0,0)
(0,0,0)
(0,0,0)
(0,0,0)
(0,0,0)
(0,0,0)
(0,0,0)
(0,0,0)
(0,0,0)
(0,0,0)
(0,0,0)
(0,0,0)
(0,0,0)
(0,0,0)
(0,0,0)
(0,0,0)
(0,0,0)
(0,0,0)
(0,0,0)
(0,0,0)
(0,0,0)
(0,0,0)
(0,0,0)
(0,0,0)
(0,0,0)
(0,0,0)
(0,0,0)
(0,0,0)
(0,0,0)
(0,0,0)
(0,0,0)
(0,0,0)
(0,0,0)
(0,0,0)
(0,0,0)
(0,0,0)
(0,0,0)
(0,0,0)
(0,0,0)
(0,0,0)
(0,0,0)
(0,0,0)
(0,0,0)
(0,0,0)
(0,0,0)
(0,0,0)
(0,0,0)
(0,0,0)
(0,0,0)
(0,0,0)
(0,0,0)
(0,0,0)
(0,0,0)
(0,0,0)
(0,0,0)
(0,0,0)
(0,0,0)
(0,0,0)
(0,0,0)
(0,0,0)
(0,0,0)
(0,0,0)
(0,0,0)
(0,0,0)
(0,0,0)
(0,0,0)
(0,0,0)
(0,0,0)
(0,0,0)
(0,0,0)
(0,0,0)
(0,0,0)
(0,0,0)
(0,0,0)
(0,0,0)
(0,0,0)
(0,0,0)
(0,0,0)
(0,0,0)
(0,0,0)
(0,0,0)
(0,0,0)
(0,0,0)
(0,0,0)
(0,0,0)
(0,0,0)
(0,0,0)
(0,0,0)
(0,0,0)
(0,0,0)
(0,0,0)
(0,0,0)
(0,0,0)
(0,0,0)
(0,0,0)
(0,0,0)
(0,0,0)
(0,0,0)
(0,0,0)
(0,0,0)
(0,0,0)
(0,0,0)
(0,0,0)
(0,0,0)
(0,0,0)
(0,0,0)
(0,0,0)
(0,0,0)
(0,0,0)
(0,0,0)
(0,0,0)
(0,0,0)
(0,0,0)
(0,0,0)
(0,0,0)
(0,0,0)
(0,0,0)
(0,0,0)
(0,0,0)
(0,0,0)
(0,0,0)
(0,0,0)
(0,0,0)
(0,0,0)
(0,0,0)
(0,0,0)
(0,0,0)
(0,0,0)
(0,0,0)
(0,0,0)
(0,0,0)
(0,0,0)
(0,0,0)
(0,0,0)
(0,0,0)
(0,0,0)
(0,0,0)
(0,0,0)
(0,0,0)
(0,0,0)
(0,0,0)
(0,0,0)
(0,0,0)
(0,0,0)
(0,0,0)
(0,0,0)
(0,0,0)
(0,0,0)
(0,0,0)
(0,0,0)
(0,0,0)
(0,0,0)
(0,0,0)
(0,0,0)
(0,0,0)
(0,0,0)
(0,0,0)
(0,0,0)
(0,0,0)
(0,0,0)
(0,0,0)
(0,0,0)
(0,0,0)
(0,0,0)
(0,0,0)
(0,0,0)
(0,0,0)
(0,0,0)
(0,0,0)
(0,0,0)
(0,0,0)
(0,0,0)
(0,0,0)
(0,0,0)
(0,0,0)
(0,0,0)
(0,0,0)
(0,0,0)
(0,0,0)
(0,0,0)
(0,0,0)
(0,0,0)
(0,0,0)
(0,0,0)
(0,0,0)
(0,0,0)
(0,0,0)
(0,0,0)
(0,0,0)
(0,0,0)
(0,0,0)
(0,0,0)
(0,0,0)
(0,0,0)
(0,0,0)
(0,0,0)
(0,0,0)
(0,0,0)
(0,0,0)
(0,0,0)
(0,0,0)
(0,0,0)
(0,0,0)
(0,0,0)
(0,0,0)
(0,0,0)
(0,0,0)
(0,0,0)
(0,0,0)
(0,0,0)
(0,0,0)
(0,0,0)
(0,0,0)
(0,0,0)
(0,0,0)
(0,0,0)
(0,0,0)
(0,0,0)
(0,0,0)
(0,0,0)
(0,0,0)
(0,0,0)
(0,0,0)
(0,0,0)
(0,0,0)
(0,0,0)
(0,0,0)
(0,0,0)
(0,0,0)
(0,0,0)
(0,0,0)
(0,0,0)
(0,0,0)
(0,0,0)
(0,0,0)
(0,0,0)
(0,0,0)
(0,0,0)
(0,0,0)
(0,0,0)
(0,0,0)
(0,0,0)
(0,0,0)
(0,0,0)
(0,0,0)
(0,0,0)
(0,0,0)
(0,0,0)
(0,0,0)
(0,0,0)
(0,0,0)
(0,0,0)
(0,0,0)
(0,0,0)
(0,0,0)
(0,0,0)
(0,0,0)
(0,0,0)
(0,0,0)
(0,0,0)
(0,0,0)
(0,0,0)
(0,0,0)
(0,0,0)
(0,0,0)
(0,0,0)
(0,0,0)
(0,0,0)
(0,0,0)
(0,0,0)
(0,0,0)
(0,0,0)
(0,0,0)
(0,0,0)
(0,0,0)
(0,0,0)
(0,0,0)
(0,0,0)
(0,0,0)
(0,0,0)
(0,0,0)
(0,0,0)
(0,0,0)
(0,0,0)
(0,0,0)
(0,0,0)
(0,0,0)
(0,0,0)
(0,0,0)
(0,0,0)
(0,0,0)
(0,0,0)
(0,0,0)
(0,0,0)
(0,0,0)
(0,0,0)
(0,0,0)
(0,0,0)
(0,0,0)
(0,0,0)
(0,0,0)
(0,0,0)
(0,0,0)
(0,0,0)
(0,0,0)
(0,0,0)
(0,0,0)
(0,0,0)
(0,0,0)
(0,0,0)
(0,0,0)
(0,0,0)
(0,0,0)
(0,0,0)
(0,0,0)
(0,0,0)
(0,0,0)
(0,0,0)
(0,0,0)
(0,0,0)
(0,0,0)
(0,0,0)
(0,0,0)
(0,0,0)
(0,0,0)
(0,0,0)
(0,0,0)
(0,0,0)
(0,0,0)
(0,0,0)
(0,0,0)
(0,0,0)
(0,0,0)
(0,0,0)
(0,0,0)
(0,0,0)
(0,0,0)
(0,0,0)
(0,0,0)
(0,0,0)
(0,0,0)
(0,0,0)
(0,0,0)
(0,0,0)
(0,0,0)
(0,0,0)
(0,0,0)
(0,0,0)
(0,0,0)
(0,0,0)
(0,0,0)
(0,0,0)
(0,0,0)
(0,0,0)
(0,0,0)
(0,0,0)
(0,0,0)
(0,0,0)
(0,0,0)
(0,0,0)
(0,0,0)
(0,0,0)
(0,0,0)
(0,0,0)
(0,0,0)
(0,0,0)
(0,0,0)
(0,0,0)
(0,0,0)
(0,0,0)
(0,0,0)
(0,0,0)
(0,0,0)
(0,0,0)
(0,0,0)
(0,0,0)
(0,0,0)
(0,0,0)
(0,0,0)
(0,0,0)
(0,0,0)
(0,0,0)
(0,0,0)
(0,0,0)
(0,0,0)
(0,0,0)
(0,0,0)
(0,0,0)
(0,0,0)
(0,0,0)
(0,0,0)
(0,0,0)
(0,0,0)
(0,0,0)
(0,0,0)
(0,0,0)
(0,0,0)
(0,0,0)
(0,0,0)
(0,0,0)
(0,0,0)
(0,0,0)
(0,0,0)
(0,0,0)
(0,0,0)
(0,0,0)
(0,0,0)
(0,0,0)
(0,0,0)
(0,0,0)
(0,0,0)
(0,0,0)
(0,0,0)
(0,0,0)
(0,0,0)
(0,0,0)
(0,0,0)
(0,0,0)
(0,0,0)
(0,0,0)
(0,0,0)
(0,0,0)
(0,0,0)
(0,0,0)
(0,0,0)
(0,0,0)
(0,0,0)
(0,0,0)
(0,0,0)
(0,0,0)
(0,0,0)
(0,0,0)
(0,0,0)
(0,0,0)
(0,0,0)
(0,0,0)
(0,0,0)
(0,0,0)
(0,0,0)
(0,0,0)
(0,0,0)
(0,0,0)
(0,0,0)
(0,0,0)
(0,0,0)
(0,0,0)
(0,0,0)
(0,0,0)
(0,0,0)
(0,0,0)
(0,0,0)
(0,0,0)
(0,0,0)
(0,0,0)
(0,0,0)
(0,0,0)
(0,0,0)
(0,0,0)
(0,0,0)
(0,0,0)
(0,0,0)
(0,0,0)
(0,0,0)
(0,0,0)
(0,0,0)
(0,0,0)
(0,0,0)
(0,0,0)
(0,0,0)
(0,0,0)
(0,0,0)
(0,0,0)
(0,0,0)
(0,0,0)
(0,0,0)
(0,0,0)
(0,0,0)
(0,0,0)
(0,0,0)
(0,0,0)
(0,0,0)
(0,0,0)
(0,0,0)
(0,0,0)
(0,0,0)
(0,0,0)
(0,0,0)
(0,0,0)
(0,0,0)
(0,0,0)
(0,0,0)
(0,0,0)
(0,0,0)
(0,0,0)
(0,0,0)
(0,0,0)
(0,0,0)
(0,0,0)
(0,0,0)
(0,0,0)
(0,0,0)
(0,0,0)
(0,0,0)
(0,0,0)
(0,0,0)
(0,0,0)
(0,0,0)
(0,0,0)
(0,0,0)
(0,0,0)
(0,0,0)
(0,0,0)
(0,0,0)
(0,0,0)
(0,0,0)
(0,0,0)
(0,0,0)
(0,0,0)
(0,0,0)
(0,0,0)
(0,0,0)
(0,0,0)
(0,0,0)
(0,0,0)
(0,0,0)
(0,0,0)
(0,0,0)
(0,0,0)
(0,0,0)
(0,0,0)
(0,0,0)
(0,0,0)
(0,0,0)
(0,0,0)
(0,0,0)
(0,0,0)
(0,0,0)
(0,0,0)
(0,0,0)
(0,0,0)
(0,0,0)
(0,0,0)
(0,0,0)
(0,0,0)
(0,0,0)
(0,0,0)
(0,0,0)
(0,0,0)
(0,0,0)
(0,0,0)
(0,0,0)
(0,0,0)
(0,0,0)
(0,0,0)
(0,0,0)
(0,0,0)
(0,0,0)
(0,0,0)
(0,0,0)
(0,0,0)
(0,0,0)
(0,0,0)
(0,0,0)
(0,0,0)
(0,0,0)
(0,0,0)
(0,0,0)
(0,0,0)
(0,0,0)
(0,0,0)
(0,0,0)
(0,0,0)
(0,0,0)
(0,0,0)
(0,0,0)
(0,0,0)
(0,0,0)
(0,0,0)
(0,0,0)
(0,0,0)
(0,0,0)
(0,0,0)
(0,0,0)
(0,0,0)
(0,0,0)
(0,0,0)
(0,0,0)
(0,0,0)
(0,0,0)
(0,0,0)
(0,0,0)
(0,0,0)
(0,0,0)
(0,0,0)
(0,0,0)
(0,0,0)
(0,0,0)
(0,0,0)
(0,0,0)
(0,0,0)
(0,0,0)
(0,0,0)
(0,0,0)
(0,0,0)
(0,0,0)
(0,0,0)
(0,0,0)
(0,0,0)
(0,0,0)
(0,0,0)
(0,0,0)
(0,0,0)
(0,0,0)
(0,0,0)
(0,0,0)
(0,0,0)
(0,0,0)
(0,0,0)
(0,0,0)
(0,0,0)
(0,0,0)
(0,0,0)
(0,0,0)
(0,0,0)
(0,0,0)
(0,0,0)
(0,0,0)
(0,0,0)
(0,0,0)
(0,0,0)
(0,0,0)
(0,0,0)
(0,0,0)
(0,0,0)
(0,0,0)
(0,0,0)
(0,0,0)
(0,0,0)
(0,0,0)
(0,0,0)
(0,0,0)
(0,0,0)
(0,0,0)
(0,0,0)
(0,0,0)
(0,0,0)
(0,0,0)
(0,0,0)
(0,0,0)
(0,0,0)
(0,0,0)
(0,0,0)
(0,0,0)
(0,0,0)
(0,0,0)
(0,0,0)
(0,0,0)
(0,0,0)
(0,0,0)
(0,0,0)
(0,0,0)
(0,0,0)
(0,0,0)
(0,0,0)
(0,0,0)
(0,0,0)
(0,0,0)
(0,0,0)
(0,0,0)
(0,0,0)
(0,0,0)
(0,0,0)
(0,0,0)
(0,0,0)
(0,0,0)
(0,0,0)
(0,0,0)
(0,0,0)
(0,0,0)
(0,0,0)
(0,0,0)
(0,0,0)
(0,0,0)
(0,0,0)
(0,0,0)
(0,0,0)
(0,0,0)
(0,0,0)
(0,0,0)
(0,0,0)
(0,0,0)
(0,0,0)
(0,0,0)
(0,0,0)
(0,0,0)
(0,0,0)
(0,0,0)
(0,0,0)
(0,0,0)
(0,0,0)
(0,0,0)
(0,0,0)
(0,0,0)
(0,0,0)
(0,0,0)
(0,0,0)
(0,0,0)
(0,0,0)
(0,0,0)
(0,0,0)
(0,0,0)
(0,0,0)
(0,0,0)
(0,0,0)
(0,0,0)
(0,0,0)
(0,0,0)
(0,0,0)
(0,0,0)
(0,0,0)
(0,0,0)
(0,0,0)
(0,0,0)
(0,0,0)
(0,0,0)
(0,0,0)
(0,0,0)
(0,0,0)
(0,0,0)
(0,0,0)
(0,0,0)
(0,0,0)
(0,0,0)
(0,0,0)
(0,0,0)
(0,0,0)
(0,0,0)
(0,0,0)
(0,0,0)
(0,0,0)
(0,0,0)
(0,0,0)
(0,0,0)
(0,0,0)
(0,0,0)
(0,0,0)
(0,0,0)
(0,0,0)
(0,0,0)
(0,0,0)
(0,0,0)
(0,0,0)
(0,0,0)
(0,0,0)
(0,0,0)
(0,0,0)
(0,0,0)
(0,0,0)
(0,0,0)
(0,0,0)
(0,0,0)
(0,0,0)
(0,0,0)
(0,0,0)
(0,0,0)
(0,0,0)
(0,0,0)
(0,0,0)
(0,0,0)
(0,0,0)
(0,0,0)
(0,0,0)
(8.87977262549985e-13,-1.37361297221617e-11,1.22697429067673e-11)
(1.19758321922285e-12,-3.00060811295479e-11,1.17554118644414e-11)
(6.68310347610449e-13,-5.02742781242239e-11,1.06865457649333e-11)
(1.70028460744708e-12,-7.83107667870323e-11,8.80289693399033e-12)
(1.93131372142315e-12,-1.20150568600775e-10,6.89185550917115e-12)
(1.82907055842847e-12,-1.84018286008826e-10,4.32060508777935e-12)
(2.87077530373842e-12,-2.86773870549074e-10,1.6909940276692e-12)
(4.11858455833401e-12,-4.59297172554366e-10,4.06703757456165e-13)
(5.46658020037141e-12,-7.45869906469042e-10,3.29771660609597e-15)
(6.94040811017539e-12,-1.14640234601085e-09,-1.77812119922668e-13)
(0,0,0)
(0,0,0)
(0,0,0)
(0,0,0)
(0,0,0)
(0,0,0)
(1.2241156976386e-12,-1.30142766694963e-11,2.63519085381527e-11)
(1.85726520877565e-12,-2.85052763392247e-11,2.58408255707231e-11)
(2.118694726872e-12,-4.84938830008274e-11,2.40882097268121e-11)
(3.90090308457212e-12,-7.64179723834326e-11,2.0769101247932e-11)
(4.03661253575968e-12,-1.17616678484046e-10,1.67674313923589e-11)
(3.34353009377399e-12,-1.81632034206609e-10,1.18883103904284e-11)
(4.98828538668521e-12,-2.85366167848057e-10,6.52173177963898e-12)
(7.96956829064297e-12,-4.5867773676054e-10,3.05937662410143e-12)
(1.04227332925587e-11,-7.45873742532831e-10,1.38227581679283e-12)
(1.15621484962812e-11,-1.14710120183089e-09,6.28409320417493e-13)
(0,0,0)
(0,0,0)
(0,0,0)
(0,0,0)
(0,0,0)
(0,0,0)
(2.24542036713621e-12,-1.24154031111582e-11,4.61890971246805e-11)
(3.01962443588286e-12,-2.63253362872247e-11,4.53536637701283e-11)
(3.42236716964453e-12,-4.48877130253768e-11,4.27614374492285e-11)
(4.44510806892483e-12,-7.17807438519709e-11,3.84575833072244e-11)
(5.24370915498083e-12,-1.12171868848533e-10,3.23415344368174e-11)
(5.85741519493409e-12,-1.7644499057714e-10,2.48818836232123e-11)
(7.76926543962265e-12,-2.82193482920741e-10,1.71027883374756e-11)
(1.14973188124777e-11,-4.5735743941273e-10,1.12575805982011e-11)
(1.43694971698004e-11,-7.45411592265674e-10,6.93212539673078e-12)
(1.46768408046274e-11,-1.14688010966054e-09,3.44802975323852e-12)
(0,0,0)
(0,0,0)
(0,0,0)
(0,0,0)
(0,0,0)
(0,0,0)
(2.63397760598715e-12,-1.07368859544893e-11,7.55378470380018e-11)
(3.57064077664698e-12,-2.27680767183692e-11,7.44396240825479e-11)
(4.4770221949706e-12,-3.95899099642349e-11,7.11032561281744e-11)
(4.90171493067897e-12,-6.44691203334637e-11,6.56541911936309e-11)
(6.43981912585369e-12,-1.03289896209254e-10,5.79384904733738e-11)
(9.22898817018663e-12,-1.67336726109844e-10,4.88439792149877e-11)
(1.20649841933741e-11,-2.75681561709148e-10,3.89858875854133e-11)
(1.68646358600093e-11,-4.53616992455954e-10,2.95333450377138e-11)
(1.97267587707777e-11,-7.42615771940371e-10,2.00038462045473e-11)
(2.02477507275493e-11,-1.14446699687055e-09,1.01185809635234e-11)
(0,0,0)
(0,0,0)
(0,0,0)
(0,0,0)
(0,0,0)
(0,0,0)
(2.88850593613276e-12,-8.6697981015287e-12,1.16474300927928e-10)
(4.00782815450388e-12,-1.86306654211634e-11,1.15371364384272e-10)
(5.24904884415202e-12,-3.28901326771219e-11,1.12051543584644e-10)
(6.45750962176418e-12,-5.50969817133369e-11,1.06798420586138e-10)
(8.90091388636637e-12,-9.13365838222152e-11,9.93184381864426e-11)
(1.26746589021761e-11,-1.53555359287637e-10,9.0264393443833e-11)
(1.64910853012746e-11,-2.63433168236879e-10,7.96644698468964e-11)
(2.12235567662919e-11,-4.44277031130064e-10,6.39819188552321e-11)
(2.34503122685299e-11,-7.33493745450917e-10,4.50481286034434e-11)
(2.50167439192827e-11,-1.13527584952084e-09,2.3192030301623e-11)
(0,0,0)
(0,0,0)
(0,0,0)
(0,0,0)
(0,0,0)
(0,0,0)
(3.43096507029641e-12,-6.56605195992448e-12,1.76650038935414e-10)
(4.2370321912764e-12,-1.44322971706188e-11,1.75851937380399e-10)
(5.2177193479159e-12,-2.58369083694392e-11,1.7344004166018e-10)
(7.80723814416845e-12,-4.4690729909048e-11,1.69108160402435e-10)
(1.16322712533699e-11,-7.77670264760154e-11,1.62899733361719e-10)
(1.60872127375193e-11,-1.37911683977733e-10,1.54168313798273e-10)
(2.05383351305398e-11,-2.48207089205649e-10,1.40551547346617e-10)
(2.44899184801176e-11,-4.28145504527772e-10,1.17577746927864e-10)
(2.66753632724185e-11,-7.14415174583893e-10,8.51503153074306e-11)
(2.97237950956656e-11,-1.11382692484865e-09,4.48302936723691e-11)
(0,0,0)
(0,0,0)
(0,0,0)
(0,0,0)
(0,0,0)
(0,0,0)
(3.86516513576817e-12,-4.71308970966841e-12,2.77032716618909e-10)
(5.73251965351444e-12,-1.08903791243608e-11,2.76405390201999e-10)
(7.86375821894116e-12,-1.99659035621761e-11,2.74795327079569e-10)
(1.12249957640435e-11,-3.54567617348451e-11,2.71477823886904e-10)
(1.55720537180134e-11,-6.44635248186085e-11,2.66017550947886e-10)
(2.11622974294749e-11,-1.20357247053993e-10,2.56288117475873e-10)
(2.46158049992892e-11,-2.26009820246851e-10,2.36463053251105e-10)
(2.75726404173323e-11,-3.98832376516876e-10,2.0413380632289e-10)
(2.99682338273161e-11,-6.77190521019729e-10,1.52179589005851e-10)
(3.26855341030792e-11,-1.07062933227441e-09,8.24323946447394e-11)
(0,0,0)
(0,0,0)
(0,0,0)
(0,0,0)
(0,0,0)
(0,0,0)
(4.80628634256676e-12,-3.39296489047548e-12,4.46304753793649e-10)
(7.56052494288789e-12,-8.06395955116109e-12,4.46157316434988e-10)
(1.06894934210815e-11,-1.51052927551845e-11,4.44940579551058e-10)
(1.48157281458515e-11,-2.79238025878707e-11,4.42162063647249e-10)
(1.97530974618453e-11,-5.31438923707779e-11,4.36369450409348e-10)
(2.5774381318239e-11,-1.02269709459726e-10,4.24218095450334e-10)
(2.97110976735275e-11,-1.94236138639642e-10,3.98570866011635e-10)
(3.17087666758092e-11,-3.4843098901416e-10,3.5092093810622e-10)
(3.3190953709889e-11,-6.08787935088399e-10,2.71412581614671e-10)
(3.5412339492542e-11,-9.88607905380624e-10,1.53464757708066e-10)
(0,0,0)
(0,0,0)
(0,0,0)
(0,0,0)
(0,0,0)
(0,0,0)
(5.61553993823757e-12,-2.52693663988604e-12,7.3096045862605e-10)
(9.38242196999142e-12,-5.52136843556555e-12,7.30631955596785e-10)
(1.36655473964106e-11,-1.04709157099102e-11,7.29344616675578e-10)
(1.82255138446113e-11,-2.00627922574989e-11,7.26516534457284e-10)
(2.3401599016606e-11,-3.92662490848288e-11,7.1954883588922e-10)
(2.88421415526433e-11,-7.6173785998188e-11,7.03759765877756e-10)
(3.35363747413829e-11,-1.45706064154629e-10,6.70492655802189e-10)
(3.63827657035946e-11,-2.6891002553225e-10,6.0612960253566e-10)
(3.88402194224556e-11,-4.91279380474138e-10,4.90633463609427e-10)
(4.14474774127313e-11,-8.35326419685089e-10,2.94906720649626e-10)
(0,0,0)
(0,0,0)
(0,0,0)
(0,0,0)
(0,0,0)
(0,0,0)
(6.327130432843e-12,-1.39151933431075e-12,1.13255095265386e-09)
(1.17109071916046e-11,-2.8169581146253e-12,1.13189686718728e-09)
(1.61058395861665e-11,-5.24321829208359e-12,1.13062475884048e-09)
(1.99998724377623e-11,-1.0497394054608e-11,1.12777334214358e-09)
(2.53584378354357e-11,-2.11673786563047e-11,1.11964281224304e-09)
(3.09681009932716e-11,-4.12053583680968e-11,1.1006845453442e-09)
(3.60955237679332e-11,-7.97436864087543e-11,1.0614590008349e-09)
(3.97530492721812e-11,-1.52607103963551e-10,9.83770574833622e-10)
(4.22603641626247e-11,-2.95196712575059e-10,8.3277517879877e-10)
(4.4363369978353e-11,-5.39789057899235e-10,5.38682640670585e-10)
(0,0,0)
(0,0,0)
(0,0,0)
(0,0,0)
(0,0,0)
(0,0,0)
(0,0,0)
(0,0,0)
(0,0,0)
(0,0,0)
(0,0,0)
(0,0,0)
(0,0,0)
(0,0,0)
(0,0,0)
(0,0,0)
(0,0,0)
(0,0,0)
(0,0,0)
(0,0,0)
(0,0,0)
(0,0,0)
(0,0,0)
(0,0,0)
(0,0,0)
(0,0,0)
(0,0,0)
(0,0,0)
(0,0,0)
(0,0,0)
(0,0,0)
(0,0,0)
(0,0,0)
(0,0,0)
(0,0,0)
(0,0,0)
(0,0,0)
(0,0,0)
(0,0,0)
(0,0,0)
(0,0,0)
(0,0,0)
(0,0,0)
(0,0,0)
(0,0,0)
(0,0,0)
(0,0,0)
(0,0,0)
(0,0,0)
(0,0,0)
(0,0,0)
(0,0,0)
(0,0,0)
(0,0,0)
(0,0,0)
(0,0,0)
(0,0,0)
(0,0,0)
(0,0,0)
(0,0,0)
(0,0,0)
(0,0,0)
(0,0,0)
(0,0,0)
(0,0,0)
(0,0,0)
(0,0,0)
(0,0,0)
(0,0,0)
(0,0,0)
(0,0,0)
(0,0,0)
(0,0,0)
(0,0,0)
(0,0,0)
(0,0,0)
(0,0,0)
(0,0,0)
(0,0,0)
(0,0,0)
(0,0,0)
(0,0,0)
(0,0,0)
(0,0,0)
(0,0,0)
(0,0,0)
(0,0,0)
(0,0,0)
(0,0,0)
(0,0,0)
(0,0,0)
(0,0,0)
(0,0,0)
(0,0,0)
(0,0,0)
(0,0,0)
(0,0,0)
(0,0,0)
(0,0,0)
(0,0,0)
(0,0,0)
(0,0,0)
(6.80455252209778e-13,-2.65985851205895e-11,2.42849798487611e-11)
(7.65644528404514e-13,-5.69354181441519e-11,2.31766979202295e-11)
(7.71564055157149e-13,-9.44877822353483e-11,2.07703099206692e-11)
(1.71853162864697e-12,-1.44762980435054e-10,1.70399674794247e-11)
(1.96867402604551e-12,-2.17851073413474e-10,1.2757048554687e-11)
(2.07242981634196e-12,-3.28261923588536e-10,6.89470363522997e-12)
(2.74736287306967e-12,-5.04167103987185e-10,1.63457578321447e-12)
(3.90255480517232e-12,-8.03508081540233e-10,-8.98391319199548e-13)
(5.65152610024073e-12,-1.37743272600288e-09,-1.20826392657569e-12)
(7.46145180966679e-12,-2.69699834545681e-09,-5.63454748717043e-13)
(0,0,0)
(0,0,0)
(0,0,0)
(0,0,0)
(0,0,0)
(0,0,0)
(1.13632510672955e-12,-2.51078608770902e-11,5.14302492385418e-11)
(1.42994100069378e-12,-5.41605329415618e-11,5.02279679768536e-11)
(1.83163323028755e-12,-9.07035858136257e-11,4.63679307026955e-11)
(3.26534440868527e-12,-1.40257103096744e-10,3.93622561437596e-11)
(3.47092390218976e-12,-2.12340877969649e-10,3.01481562438828e-11)
(3.52306507507086e-12,-3.23695377043615e-10,1.82119680638167e-11)
(5.27795561475307e-12,-5.0215632921101e-10,6.8561006687702e-12)
(8.32637175052884e-12,-8.03854868555077e-10,1.44220775020645e-12)
(1.07144495222741e-11,-1.37873147592314e-09,1.93061037040089e-13)
(1.1969465646415e-11,-2.69833295094883e-09,4.44402828673877e-13)
(0,0,0)
(0,0,0)
(0,0,0)
(0,0,0)
(0,0,0)
(0,0,0)
(1.40233656502082e-12,-2.33668928810396e-11,8.83185826428497e-11)
(2.05459118793199e-12,-4.96461444782763e-11,8.64409273892497e-11)
(2.42841825052834e-12,-8.30443032423763e-11,8.10443999888056e-11)
(3.24953342082137e-12,-1.30064316735116e-10,7.14965267542855e-11)
(3.82138732925476e-12,-2.00348048744973e-10,5.74644463347109e-11)
(4.52824601340829e-12,-3.12815952519054e-10,3.91122019258846e-11)
(7.10255196730604e-12,-4.97142713528566e-10,2.09053750446534e-11)
(1.20823270569989e-11,-8.03972936400011e-10,1.22237641794169e-11)
(1.50577724878721e-11,-1.38009864596924e-09,7.99005556485837e-12)
(1.5711757767809e-11,-2.69901713067047e-09,4.44056862127579e-12)
(0,0,0)
(0,0,0)
(0,0,0)
(0,0,0)
(0,0,0)
(0,0,0)
(1.66511270848007e-12,-2.03515088620528e-11,1.40495937930142e-10)
(2.76959743381389e-12,-4.30302848483225e-11,1.3785368349701e-10)
(3.22630984239526e-12,-7.21198891786357e-11,1.31307219441151e-10)
(3.24527703081512e-12,-1.14244342407458e-10,1.20111518009362e-10)
(3.58101799719157e-12,-1.80249960602462e-10,1.03347466340353e-10)
(5.30571297758018e-12,-2.92085672486628e-10,8.12998528394504e-11)
(9.26913326880622e-12,-4.85349688390057e-10,5.75838431733318e-11)
(1.70541733672827e-11,-8.01443961529321e-10,4.28728413112861e-11)
(2.0489997522971e-11,-1.37895046676886e-09,3.0422420387805e-11)
(2.1175184342124e-11,-2.6969894058874e-09,1.61188517023363e-11)
(0,0,0)
(0,0,0)
(0,0,0)
(0,0,0)
(0,0,0)
(0,0,0)
(1.88769633818344e-12,-1.65708455897998e-11,2.1284325866626e-10)
(3.12928070358484e-12,-3.51260175081564e-11,2.10161478779977e-10)
(3.44894753497143e-12,-5.88564416194485e-11,2.03548856338512e-10)
(3.53124021716115e-12,-9.44009355519457e-11,1.92862864107584e-10)
(4.3854012828043e-12,-1.53012806484235e-10,1.77436060369593e-10)
(7.63090718915138e-12,-2.59135287677145e-10,1.5875254368105e-10)
(1.69475572617279e-11,-4.58339391471907e-10,1.41848157134408e-10)
(2.40258204159416e-11,-7.90555313555632e-10,1.10526075492435e-10)
(2.62278397031141e-11,-1.36817457970349e-09,7.76626046836057e-11)
(2.67598495482036e-11,-2.68370509918004e-09,4.0476208257924e-11)
(0,0,0)
(0,0,0)
(0,0,0)
(0,0,0)
(0,0,0)
(0,0,0)
(2.37610437505663e-12,-1.26714231117026e-11,3.17079090027723e-10)
(3.10700986523305e-12,-2.6717126849646e-11,3.15085125303044e-10)
(3.67859579839373e-12,-4.49401756410298e-11,3.10135350196031e-10)
(4.78169701068982e-12,-7.3507751041901e-11,3.01911708519067e-10)
(7.06018915942058e-12,-1.24620288451411e-10,2.90135317657522e-10)
(1.21495422654174e-11,-2.2645657468331e-10,2.74184517935562e-10)
(2.13148665905152e-11,-4.34064635892858e-10,2.52997015874459e-10)
(2.76042220895222e-11,-7.65617709422417e-10,2.10767442984172e-10)
(2.97707313432713e-11,-1.33693673264993e-09,1.51927051222937e-10)
(3.13564961944375e-11,-2.64730496263907e-09,8.01414853504759e-11)
(0,0,0)
(0,0,0)
(0,0,0)
(0,0,0)
(0,0,0)
(0,0,0)
(3.17236673348375e-12,-9.22264565772988e-12,4.8489890692685e-10)
(4.51616320274691e-12,-1.96548688167978e-11,4.8367646541637e-10)
(6.32065060461983e-12,-3.33335158594243e-11,4.80850650529332e-10)
(9.15230955608187e-12,-5.55658827163016e-11,4.76063373820511e-10)
(1.39818547422234e-11,-9.84141953059768e-11,4.68828310454756e-10)
(2.28998240599946e-11,-1.90664447064658e-10,4.55663175029336e-10)
(2.51713703202988e-11,-3.96495037166155e-10,4.19163406375236e-10)
(2.91254702315393e-11,-7.14183199502941e-10,3.67463387428297e-10)
(3.13128422570493e-11,-1.2707850072826e-09,2.71474117454023e-10)
(3.30965018544018e-11,-2.57112878197289e-09,1.46273789417772e-10)
(0,0,0)
(0,0,0)
(0,0,0)
(0,0,0)
(0,0,0)
(0,0,0)
(4.08769545063849e-12,-6.40984489885196e-12,7.76856270913277e-10)
(6.23467071122299e-12,-1.40986393358766e-11,7.76514584405866e-10)
(8.83363227962027e-12,-2.48162535461553e-11,7.74775216921479e-10)
(1.27473310533735e-11,-4.36555235441872e-11,7.71655816820219e-10)
(1.80268091348839e-11,-8.33452047399114e-11,7.65313169883159e-10)
(2.53256872954294e-11,-1.69005946372985e-10,7.5015588329289e-10)
(2.88309510939655e-11,-3.4401617341887e-10,7.10290136178753e-10)
(3.16961596852863e-11,-6.1993021535402e-10,6.2459565658099e-10)
(3.36302230023968e-11,-1.14756500200846e-09,4.81272993107308e-10)
(3.55956115046902e-11,-2.42656945962564e-09,2.73546814229171e-10)
(0,0,0)
(0,0,0)
(0,0,0)
(0,0,0)
(0,0,0)
(0,0,0)
(4.80862566192681e-12,-4.29099221468633e-12,1.34732282008121e-09)
(7.96535057025891e-12,-9.37150988472326e-12,1.34685781750988e-09)
(1.12659321968816e-11,-1.74232868579282e-11,1.34512883054213e-09)
(1.56278142097942e-11,-3.24122655710974e-11,1.34138309317763e-09)
(2.1091798599558e-11,-6.43395135739857e-11,1.33195598654172e-09)
(2.71408239981044e-11,-1.29626341282656e-10,1.30844753828687e-09)
(3.19370502620493e-11,-2.56344756032454e-10,1.25370849464284e-09)
(3.55759830611266e-11,-4.75930889826594e-10,1.14044196191659e-09)
(3.84842944831672e-11,-9.39915377906956e-10,9.3790962056897e-10)
(4.08168362762892e-11,-2.15326147804076e-09,5.86482955297144e-10)
(0,0,0)
(0,0,0)
(0,0,0)
(0,0,0)
(0,0,0)
(0,0,0)
(5.58969656511146e-12,-2.12684022248497e-12,2.66596071806456e-09)
(1.01660574237765e-11,-4.67601035896578e-12,2.66552584467687e-09)
(1.37140379909857e-11,-8.90962585489517e-12,2.66367423312389e-09)
(1.763300828369e-11,-1.74941949916064e-11,2.65914676685237e-09)
(2.31493260779629e-11,-3.56662208428671e-11,2.64684163278361e-09)
(2.89882871344583e-11,-7.09671072155418e-11,2.61641731222066e-09)
(3.40402633604313e-11,-1.39542740288058e-10,2.55016849653254e-09)
(3.81413413435163e-11,-2.70922764099361e-10,2.41476952493767e-09)
(4.11561897157469e-11,-5.8687949375844e-10,2.14714741695881e-09)
(4.32569527498186e-11,-1.56517808976998e-09,1.56284373022471e-09)
(0,0,0)
(0,0,0)
(0,0,0)
(0,0,0)
(0,0,0)
(0,0,0)
(0,0,0)
(0,0,0)
(0,0,0)
(0,0,0)
(0,0,0)
(0,0,0)
(0,0,0)
(0,0,0)
(0,0,0)
(0,0,0)
(0,0,0)
(0,0,0)
(0,0,0)
(0,0,0)
(0,0,0)
(0,0,0)
(0,0,0)
(0,0,0)
(0,0,0)
(0,0,0)
(0,0,0)
(0,0,0)
(0,0,0)
(0,0,0)
(0,0,0)
(0,0,0)
(0,0,0)
(0,0,0)
(0,0,0)
(0,0,0)
(0,0,0)
(0,0,0)
(0,0,0)
(0,0,0)
(0,0,0)
(0,0,0)
(0,0,0)
(0,0,0)
(0,0,0)
(0,0,0)
(0,0,0)
(0,0,0)
(0,0,0)
(0,0,0)
(0,0,0)
(0,0,0)
(0,0,0)
(0,0,0)
(0,0,0)
(0,0,0)
(0,0,0)
(0,0,0)
(0,0,0)
(0,0,0)
(0,0,0)
(0,0,0)
(0,0,0)
(0,0,0)
(0,0,0)
(0,0,0)
(0,0,0)
(0,0,0)
(0,0,0)
(0,0,0)
(0,0,0)
(0,0,0)
(0,0,0)
(0,0,0)
(0,0,0)
(0,0,0)
(0,0,0)
(0,0,0)
(0,0,0)
(0,0,0)
(0,0,0)
(0,0,0)
(0,0,0)
(0,0,0)
(0,0,0)
(0,0,0)
(0,0,0)
(0,0,0)
(0,0,0)
(0,0,0)
(0,0,0)
(0,0,0)
(0,0,0)
(0,0,0)
(0,0,0)
(0,0,0)
(0,0,0)
(0,0,0)
(0,0,0)
(0,0,0)
(0,0,0)
(0,0,0)
(2.98012936759691e-13,-3.61673833314803e-11,3.42331667029545e-11)
(3.97147325192388e-13,-7.64077727659263e-11,3.25756595341372e-11)
(7.17710075297095e-13,-1.252527760479e-10,2.89852202427676e-11)
(1.49557321499018e-12,-1.88529573227766e-10,2.30235900483425e-11)
(2.32082350161601e-12,-2.78351588701956e-10,1.53230372339603e-11)
(2.76601112369638e-12,-4.0732392491694e-10,5.54620519524722e-12)
(3.26955519885058e-12,-5.96152689729e-10,-2.96732088830491e-12)
(4.55921442719804e-12,-8.70201842834544e-10,-6.1006270017226e-12)
(6.30546684292915e-12,-1.26255687733066e-09,-4.91467852486041e-12)
(8.23260255238494e-12,-1.74329380254716e-09,-2.4225403194933e-12)
(0,0,0)
(0,0,0)
(0,0,0)
(0,0,0)
(0,0,0)
(0,0,0)
(5.97638372376711e-13,-3.43380825664577e-11,7.22948960842116e-11)
(7.75589811385894e-13,-7.27232050852779e-11,6.97293390354642e-11)
(1.17802521609881e-12,-1.19371171138017e-10,6.34318109832045e-11)
(2.28665794762554e-12,-1.80965528229447e-10,5.21018836508161e-11)
(3.41428285824403e-12,-2.69252581285479e-10,3.59594401485823e-11)
(3.99950794505427e-12,-3.99991633511587e-10,1.47136317855859e-11)
(5.67823285045581e-12,-5.94516801494e-10,-5.62011157353244e-12)
(9.69358630948045e-12,-8.72928204894152e-10,-1.1006319316729e-11)
(1.18302777769507e-11,-1.26615198839738e-09,-7.59710924244587e-12)
(1.30980481971048e-11,-1.74630342749895e-09,-3.12685015051649e-12)
(0,0,0)
(0,0,0)
(0,0,0)
(0,0,0)
(0,0,0)
(0,0,0)
(2.64607797912102e-13,-3.13556909079351e-11,1.20707609766589e-10)
(8.35258959208351e-13,-6.59125745732686e-11,1.16933814772744e-10)
(1.05187742197267e-12,-1.07792277500133e-10,1.08316882166782e-10)
(1.46163951234851e-12,-1.64859608631154e-10,9.25019318384338e-11)
(2.07554359515678e-12,-2.48876862176856e-10,6.7699489884519e-11)
(2.00479286241823e-12,-3.81419182531071e-10,3.25831354223915e-11)
(3.99113769407566e-12,-5.91243405881891e-10,-6.30427936761473e-12)
(1.3787060800662e-11,-8.7997461183573e-10,-1.12051569569709e-11)
(1.74590802321499e-11,-1.2733543331824e-09,-4.75543081023361e-12)
(1.81246016053529e-11,-1.75132451818977e-09,-5.53592190711315e-13)
(0,0,0)
(0,0,0)
(0,0,0)
(0,0,0)
(0,0,0)
(0,0,0)
(5.26703868709309e-13,-2.67722490229115e-11,1.87366162413612e-10)
(1.411794150498e-12,-5.6250818269465e-11,1.82405912265487e-10)
(1.15856371444182e-12,-9.1256666198503e-11,1.72059514268976e-10)
(1.65921843036397e-13,-1.39605080615175e-10,1.53633219767269e-10)
(-1.60852261964641e-12,-2.13766665507807e-10,1.2381292737195e-10)
(-3.92866216513446e-12,-3.42503954814273e-10,7.83326544200075e-11)
(-3.03016178704026e-12,-5.81852736257962e-10,1.72339305174846e-11)
(1.8615946316894e-11,-8.92981532383755e-10,1.60512708846342e-11)
(2.40176791437966e-11,-1.28291445657839e-09,1.95133865362207e-11)
(2.40097293358713e-11,-1.75536930193024e-09,1.33448696341353e-11)
(0,0,0)
(0,0,0)
(0,0,0)
(0,0,0)
(0,0,0)
(0,0,0)
(6.70053745531095e-13,-2.12318242035151e-11,2.75523227410036e-10)
(1.33301248725248e-12,-4.43865455851026e-11,2.70689543891281e-10)
(2.1867378647542e-13,-7.09034262971931e-11,2.60617845479404e-10)
(-1.9351405547679e-12,-1.07335016585722e-10,2.43556373144018e-10)
(-5.32360006007487e-12,-1.63836874845006e-10,2.17767915387423e-10)
(-8.14341925908346e-12,-2.68165402841507e-10,1.87073837480117e-10)
(2.39948833235461e-11,-5.14859076170171e-10,1.91561972994311e-10)
(3.1951687091446e-11,-9.05507996666163e-10,1.27114745032886e-10)
(3.21763890769268e-11,-1.28535595831279e-09,8.69709928470636e-11)
(3.08359212648046e-11,-1.74657691342804e-09,4.57164222491352e-11)
(0,0,0)
(0,0,0)
(0,0,0)
(0,0,0)
(0,0,0)
(0,0,0)
(9.21291646023018e-13,-1.58597980289432e-11,3.95412090026563e-10)
(9.94526939050383e-13,-3.23731427767096e-11,3.91615689380486e-10)
(2.95577693919694e-13,-5.04275109704471e-11,3.8397720673976e-10)
(-1.38378045200027e-12,-7.49822220528872e-11,3.72190841551771e-10)
(-3.19510426510837e-12,-1.15856391310213e-10,3.55374708349516e-10)
(-2.45508329232195e-12,-2.10341775730696e-10,3.34501178958556e-10)
(2.59748407550696e-11,-5.09120079221256e-10,3.33098092571191e-10)
(3.50101039303577e-11,-8.90206146725959e-10,2.66065841329864e-10)
(3.54045718491174e-11,-1.25502631863388e-09,1.85640835268937e-10)
(3.53218008780047e-11,-1.70600578793136e-09,9.61572385553939e-11)
(0,0,0)
(0,0,0)
(0,0,0)
(0,0,0)
(0,0,0)
(0,0,0)
(1.5820074866779e-12,-1.14269534096023e-11,5.70082045817118e-10)
(1.78574860703069e-12,-2.2600826876752e-11,5.67756599189636e-10)
(2.59066500052204e-12,-3.37999294412514e-11,5.63645859785133e-10)
(4.47701374955234e-12,-4.79233413662672e-11,5.59562950542956e-10)
(1.207799960186e-11,-7.08498017921899e-11,5.58910671753109e-10)
(3.77410920227625e-11,-1.30745631303764e-10,5.64480300333396e-10)
(2.43925255198805e-11,-4.69662047087669e-10,4.91751989205303e-10)
(3.08617560558824e-11,-8.31821868309505e-10,4.73517454469348e-10)
(3.32931650197036e-11,-1.17487722303771e-09,3.29222343348758e-10)
(3.48109689248895e-11,-1.61436991881845e-09,1.69620675979072e-10)
(0,0,0)
(0,0,0)
(0,0,0)
(0,0,0)
(0,0,0)
(0,0,0)
(2.31052927481409e-12,-7.92298293074488e-12,8.30918121915715e-10)
(3.24690874453828e-12,-1.56493289229419e-11,8.29901929212724e-10)
(4.56006569186518e-12,-2.41528182167767e-11,8.28094210923501e-10)
(7.84672001828501e-12,-3.77698798717031e-11,8.27245604602292e-10)
(1.41784045584067e-11,-7.0601276966204e-11,8.29339987107892e-10)
(2.58118293196789e-11,-1.62326735829542e-10,8.34026825598094e-10)
(2.68540133048713e-11,-4.27286039559436e-10,8.14014778628542e-10)
(3.10194976308814e-11,-6.88805864840348e-10,6.94586243900995e-10)
(3.37067777789441e-11,-1.01723493400372e-09,5.06994456214054e-10)
(3.58344441497081e-11,-1.44612852700005e-09,2.73518547931221e-10)
(0,0,0)
(0,0,0)
(0,0,0)
(0,0,0)
(0,0,0)
(0,0,0)
(3.10947624066007e-12,-5.23881184898916e-12,1.2165095289767e-09)
(4.99883801161212e-12,-1.05790377609569e-11,1.21546163575056e-09)
(6.49800855952331e-12,-1.78727845628612e-11,1.21373175131514e-09)
(1.01368502658161e-11,-3.11447330552941e-11,1.21129768590098e-09)
(1.59269541238051e-11,-6.40442264882178e-11,1.20640345889181e-09)
(2.3220633574871e-11,-1.40917594287227e-10,1.19086070791059e-09)
(2.84015672443326e-11,-3.01941230361168e-10,1.13934072266056e-09)
(3.31001986801997e-11,-4.99147175758024e-10,1.00244389791314e-09)
(3.6875075607456e-11,-7.82586573344877e-10,7.77322367356553e-10)
(3.92164033022319e-11,-1.17130447328113e-09,4.46829351949878e-10)
(0,0,0)
(0,0,0)
(0,0,0)
(0,0,0)
(0,0,0)
(0,0,0)
(3.89772972906463e-12,-2.46840201651367e-12,1.69257902763362e-09)
(7.34165861777107e-12,-5.44068501555928e-12,1.69210466776236e-09)
(9.33187840774927e-12,-9.93932610228624e-12,1.69037155783502e-09)
(1.24439473612055e-11,-1.84337081572923e-11,1.68627540925088e-09)
(1.79074257981676e-11,-3.84777863882669e-11,1.67544741330173e-09)
(2.42699956060532e-11,-8.01165356218093e-11,1.6460103254913e-09)
(2.98964946681264e-11,-1.58333488639214e-10,1.57481231874587e-09)
(3.48406852215508e-11,-2.69719718681373e-10,1.42423642239744e-09)
(3.85803826916371e-11,-4.4888372030219e-10,1.1604542129541e-09)