/*--------------------------------*- C++ -*----------------------------------*\
| =========                 |                                                 |
| \\      /  F ield         | foam-extend: Open Source CFD                    |
|  \\    /   O peration     | Version:     4.0                                |
|   \\  /    A nd           | Web:         http://www.foam-extend.org         |
|    \\/     M anipulation  |                                                 |
\*---------------------------------------------------------------------------*/
FoamFile
{
    version 2.0;
    format ascii;
    class volVectorField;
    location "1917";
    object      H;
}
// * * * * * * * * * * * * * * * * * * * * * * * * * * * * * * * * * * * * * //

dimensions      [0 1 -1 0 0 0 0];

internalField   nonuniform List<vector>
4096
(
(0,0,0)
(0,0,0)
(0,0,0)
(0,0,0)
(0,0,0)
(0,0,0)
(0,0,0)
(0,0,0)
(0,0,0)
(0,0,0)
(0,0,0)
(0,0,0)
(0,0,0)
(0,0,0)
(0,0,0)
(0,0,0)
(0,0,0)
(0,0,0)
(0,0,0)
(0,0,0)
(0,0,0)
(0,0,0)
(0,0,0)
(0,0,0)
(0,0,0)
(0,0,0)
(0,0,0)
(0,0,0)
(0,0,0)
(0,0,0)
(0,0,0)
(0,0,0)
(0,0,0)
(0,0,0)
(0,0,0)
(0,0,0)
(0,0,0)
(0,0,0)
(0,0,0)
(0,0,0)
(0,0,0)
(0,0,0)
(0,0,0)
(0,0,0)
(0,0,0)
(0,0,0)
(0,0,0)
(0,0,0)
(0,0,0)
(0,0,0)
(0,0,0)
(0,0,0)
(0,0,0)
(0,0,0)
(0,0,0)
(0,0,0)
(0,0,0)
(0,0,0)
(0,0,0)
(0,0,0)
(0,0,0)
(0,0,0)
(0,0,0)
(0,0,0)
(0,0,0)
(0,0,0)
(0,0,0)
(0,0,0)
(0,0,0)
(0,0,0)
(0,0,0)
(0,0,0)
(0,0,0)
(0,0,0)
(0,0,0)
(0,0,0)
(0,0,0)
(0,0,0)
(0,0,0)
(0,0,0)
(0,0,0)
(0,0,0)
(0,0,0)
(0,0,0)
(0,0,0)
(0,0,0)
(0,0,0)
(0,0,0)
(0,0,0)
(0,0,0)
(0,0,0)
(0,0,0)
(0,0,0)
(0,0,0)
(0,0,0)
(0,0,0)
(0,0,0)
(0,0,0)
(0,0,0)
(0,0,0)
(0,0,0)
(0,0,0)
(0,0,0)
(0,0,0)
(0,0,0)
(0,0,0)
(0,0,0)
(0,0,0)
(0,0,0)
(0,0,0)
(0,0,0)
(0,0,0)
(0,0,0)
(0,0,0)
(0,0,0)
(0,0,0)
(0,0,0)
(0,0,0)
(0,0,0)
(0,0,0)
(0,0,0)
(0,0,0)
(0,0,0)
(0,0,0)
(0,0,0)
(0,0,0)
(0,0,0)
(0,0,0)
(0,0,0)
(0,0,0)
(0,0,0)
(0,0,0)
(0,0,0)
(0,0,0)
(0,0,0)
(0,0,0)
(0,0,0)
(0,0,0)
(0,0,0)
(0,0,0)
(0,0,0)
(0,0,0)
(0,0,0)
(0,0,0)
(0,0,0)
(0,0,0)
(0,0,0)
(0,0,0)
(0,0,0)
(0,0,0)
(0,0,0)
(0,0,0)
(0,0,0)
(0,0,0)
(0,0,0)
(0,0,0)
(0,0,0)
(0,0,0)
(0,0,0)
(0,0,0)
(0,0,0)
(0,0,0)
(0,0,0)
(0,0,0)
(0,0,0)
(0,0,0)
(0,0,0)
(0,0,0)
(0,0,0)
(0,0,0)
(0,0,0)
(0,0,0)
(0,0,0)
(0,0,0)
(0,0,0)
(0,0,0)
(0,0,0)
(0,0,0)
(0,0,0)
(0,0,0)
(0,0,0)
(0,0,0)
(0,0,0)
(0,0,0)
(0,0,0)
(0,0,0)
(0,0,0)
(0,0,0)
(0,0,0)
(0,0,0)
(0,0,0)
(0,0,0)
(0,0,0)
(0,0,0)
(0,0,0)
(0,0,0)
(0,0,0)
(0,0,0)
(0,0,0)
(0,0,0)
(0,0,0)
(0,0,0)
(0,0,0)
(0,0,0)
(0,0,0)
(0,0,0)
(0,0,0)
(0,0,0)
(0,0,0)
(0,0,0)
(0,0,0)
(0,0,0)
(0,0,0)
(0,0,0)
(0,0,0)
(0,0,0)
(0,0,0)
(0,0,0)
(0,0,0)
(0,0,0)
(0,0,0)
(0,0,0)
(0,0,0)
(0,0,0)
(0,0,0)
(0,0,0)
(0,0,0)
(0,0,0)
(0,0,0)
(0,0,0)
(0,0,0)
(0,0,0)
(0,0,0)
(0,0,0)
(0,0,0)
(0,0,0)
(0,0,0)
(0,0,0)
(0,0,0)
(0,0,0)
(0,0,0)
(0,0,0)
(0,0,0)
(0,0,0)
(0,0,0)
(0,0,0)
(0,0,0)
(0,0,0)
(0,0,0)
(0,0,0)
(0,0,0)
(0,0,0)
(0,0,0)
(0,0,0)
(0,0,0)
(0,0,0)
(0,0,0)
(0,0,0)
(0,0,0)
(0,0,0)
(0,0,0)
(0,0,0)
(0,0,0)
(0,0,0)
(0,0,0)
(0,0,0)
(0,0,0)
(0,0,0)
(0,0,0)
(0,0,0)
(0,0,0)
(0,0,0)
(0,0,0)
(0,0,0)
(0,0,0)
(0,0,0)
(0,0,0)
(0,0,0)
(0,0,0)
(0,0,0)
(0,0,0)
(0,0,0)
(0,0,0)
(0,0,0)
(0,0,0)
(0,0,0)
(0,0,0)
(0,0,0)
(0,0,0)
(0,0,0)
(0,0,0)
(0,0,0)
(0,0,0)
(0,0,0)
(0,0,0)
(0,0,0)
(0,0,0)
(0,0,0)
(0,0,0)
(0,0,0)
(0,0,0)
(0,0,0)
(0,0,0)
(0,0,0)
(0,0,0)
(0,0,0)
(0,0,0)
(0,0,0)
(0,0,0)
(0,0,0)
(0,0,0)
(0,0,0)
(0,0,0)
(0,0,0)
(0,0,0)
(0,0,0)
(0,0,0)
(0,0,0)
(0,0,0)
(0,0,0)
(0,0,0)
(0,0,0)
(0,0,0)
(0,0,0)
(0,0,0)
(0,0,0)
(0,0,0)
(0,0,0)
(0,0,0)
(0,0,0)
(0,0,0)
(0,0,0)
(0,0,0)
(0,0,0)
(0,0,0)
(0,0,0)
(0,0,0)
(0,0,0)
(0,0,0)
(0,0,0)
(0,0,0)
(0,0,0)
(0,0,0)
(0,0,0)
(0,0,0)
(0,0,0)
(0,0,0)
(0,0,0)
(0,0,0)
(0,0,0)
(0,0,0)
(0,0,0)
(0,0,0)
(0,0,0)
(0,0,0)
(0,0,0)
(0,0,0)
(0,0,0)
(0,0,0)
(0,0,0)
(0,0,0)
(0,0,0)
(0,0,0)
(0,0,0)
(0,0,0)
(0,0,0)
(0,0,0)
(0,0,0)
(0,0,0)
(0,0,0)
(0,0,0)
(0,0,0)
(0,0,0)
(0,0,0)
(0,0,0)
(0,0,0)
(0,0,0)
(0,0,0)
(0,0,0)
(0,0,0)
(0,0,0)
(0,0,0)
(0,0,0)
(0,0,0)
(0,0,0)
(0,0,0)
(0,0,0)
(0,0,0)
(0,0,0)
(0,0,0)
(0,0,0)
(0,0,0)
(0,0,0)
(0,0,0)
(0,0,0)
(0,0,0)
(0,0,0)
(0,0,0)
(0,0,0)
(0,0,0)
(0,0,0)
(0,0,0)
(0,0,0)
(0,0,0)
(0,0,0)
(0,0,0)
(0,0,0)
(0,0,0)
(0,0,0)
(0,0,0)
(0,0,0)
(0,0,0)
(0,0,0)
(0,0,0)
(0,0,0)
(0,0,0)
(0,0,0)
(0,0,0)
(0,0,0)
(0,0,0)
(0,0,0)
(0,0,0)
(0,0,0)
(0,0,0)
(0,0,0)
(0,0,0)
(0,0,0)
(0,0,0)
(0,0,0)
(0,0,0)
(0,0,0)
(0,0,0)
(0,0,0)
(0,0,0)
(0,0,0)
(0,0,0)
(0,0,0)
(0,0,0)
(0,0,0)
(0,0,0)
(0,0,0)
(0,0,0)
(0,0,0)
(0,0,0)
(0,0,0)
(0,0,0)
(0,0,0)
(0,0,0)
(0,0,0)
(0,0,0)
(0,0,0)
(0,0,0)
(0,0,0)
(0,0,0)
(0,0,0)
(0,0,0)
(0,0,0)
(0,0,0)
(0,0,0)
(0,0,0)
(0,0,0)
(0,0,0)
(0,0,0)
(0,0,0)
(0,0,0)
(0,0,0)
(0,0,0)
(0,0,0)
(0,0,0)
(0,0,0)
(0,0,0)
(0,0,0)
(0,0,0)
(0,0,0)
(0,0,0)
(0,0,0)
(0,0,0)
(0,0,0)
(0,0,0)
(0,0,0)
(0,0,0)
(0,0,0)
(0,0,0)
(0,0,0)
(0,0,0)
(0,0,0)
(0,0,0)
(0,0,0)
(0,0,0)
(0,0,0)
(0,0,0)
(0,0,0)
(0,0,0)
(0,0,0)
(0,0,0)
(0,0,0)
(0,0,0)
(0,0,0)
(0,0,0)
(0,0,0)
(0,0,0)
(0,0,0)
(0,0,0)
(0,0,0)
(0,0,0)
(0,0,0)
(0,0,0)
(0,0,0)
(0,0,0)
(0,0,0)
(0,0,0)
(0,0,0)
(0,0,0)
(0,0,0)
(0,0,0)
(0,0,0)
(0,0,0)
(0,0,0)
(0,0,0)
(0,0,0)
(0,0,0)
(0,0,0)
(0,0,0)
(0,0,0)
(0,0,0)
(0,0,0)
(0,0,0)
(0,0,0)
(0,0,0)
(0,0,0)
(0,0,0)
(0,0,0)
(0,0,0)
(0,0,0)
(0,0,0)
(0,0,0)
(0,0,0)
(0,0,0)
(0,0,0)
(0,0,0)
(0,0,0)
(0,0,0)
(0,0,0)
(0,0,0)
(0,0,0)
(0,0,0)
(0,0,0)
(0,0,0)
(0,0,0)
(0,0,0)
(0,0,0)
(0,0,0)
(0,0,0)
(0,0,0)
(0,0,0)
(0,0,0)
(0,0,0)
(0,0,0)
(0,0,0)
(0,0,0)
(0,0,0)
(0,0,0)
(0,0,0)
(0,0,0)
(0,0,0)
(0,0,0)
(0,0,0)
(0,0,0)
(0,0,0)
(0,0,0)
(0,0,0)
(0,0,0)
(0,0,0)
(0,0,0)
(0,0,0)
(0,0,0)
(0,0,0)
(0,0,0)
(0,0,0)
(0,0,0)
(0,0,0)
(0,0,0)
(0,0,0)
(0,0,0)
(0,0,0)
(0,0,0)
(0,0,0)
(0,0,0)
(0,0,0)
(0,0,0)
(0,0,0)
(0,0,0)
(0,0,0)
(0,0,0)
(0,0,0)
(0,0,0)
(0,0,0)
(0,0,0)
(0,0,0)
(0,0,0)
(0,0,0)
(0,0,0)
(0,0,0)
(0,0,0)
(0,0,0)
(0,0,0)
(0,0,0)
(0,0,0)
(0,0,0)
(0,0,0)
(0,0,0)
(0,0,0)
(0,0,0)
(0,0,0)
(0,0,0)
(0,0,0)
(0,0,0)
(0,0,0)
(0,0,0)
(0,0,0)
(0,0,0)
(0,0,0)
(0,0,0)
(0,0,0)
(0,0,0)
(0,0,0)
(0,0,0)
(0,0,0)
(0,0,0)
(0,0,0)
(0,0,0)
(0,0,0)
(0,0,0)
(0,0,0)
(0,0,0)
(0,0,0)
(0,0,0)
(0,0,0)
(0,0,0)
(0,0,0)
(0,0,0)
(0,0,0)
(0,0,0)
(0,0,0)
(0,0,0)
(0,0,0)
(0,0,0)
(0,0,0)
(0,0,0)
(0,0,0)
(0,0,0)
(0,0,0)
(0,0,0)
(0,0,0)
(0,0,0)
(0,0,0)
(0,0,0)
(0,0,0)
(0,0,0)
(0,0,0)
(0,0,0)
(0,0,0)
(0,0,0)
(0,0,0)
(0,0,0)
(0,0,0)
(0,0,0)
(0,0,0)
(0,0,0)
(0,0,0)
(0,0,0)
(0,0,0)
(0,0,0)
(0,0,0)
(0,0,0)
(0,0,0)
(0,0,0)
(0,0,0)
(0,0,0)
(0,0,0)
(0,0,0)
(0,0,0)
(0,0,0)
(0,0,0)
(0,0,0)
(0,0,0)
(0,0,0)
(0,0,0)
(0,0,0)
(0,0,0)
(0,0,0)
(0,0,0)
(0,0,0)
(0,0,0)
(0,0,0)
(0,0,0)
(0,0,0)
(0,0,0)
(0,0,0)
(0,0,0)
(0,0,0)
(0,0,0)
(0,0,0)
(0,0,0)
(0,0,0)
(0,0,0)
(0,0,0)
(0,0,0)
(0,0,0)
(0,0,0)
(0,0,0)
(0,0,0)
(0,0,0)
(0,0,0)
(0,0,0)
(0,0,0)
(0,0,0)
(0,0,0)
(0,0,0)
(0,0,0)
(0,0,0)
(0,0,0)
(0,0,0)
(0,0,0)
(0,0,0)
(0,0,0)
(0,0,0)
(0,0,0)
(0,0,0)
(0,0,0)
(0,0,0)
(0,0,0)
(0,0,0)
(0,0,0)
(0,0,0)
(0,0,0)
(0,0,0)
(0,0,0)
(0,0,0)
(0,0,0)
(0,0,0)
(0,0,0)
(0,0,0)
(0,0,0)
(0,0,0)
(0,0,0)
(0,0,0)
(0,0,0)
(0,0,0)
(0,0,0)
(0,0,0)
(0,0,0)
(0,0,0)
(0,0,0)
(0,0,0)
(0,0,0)
(0,0,0)
(0,0,0)
(0,0,0)
(0,0,0)
(0,0,0)
(0,0,0)
(0,0,0)
(0,0,0)
(0,0,0)
(0,0,0)
(0,0,0)
(0,0,0)
(0,0,0)
(0,0,0)
(0,0,0)
(0,0,0)
(0,0,0)
(0,0,0)
(0,0,0)
(0,0,0)
(0,0,0)
(0,0,0)
(0,0,0)
(0,0,0)
(0,0,0)
(0,0,0)
(0,0,0)
(0,0,0)
(0,0,0)
(0,0,0)
(0,0,0)
(0,0,0)
(0,0,0)
(0,0,0)
(0,0,0)
(0,0,0)
(0,0,0)
(0,0,0)
(0,0,0)
(0,0,0)
(0,0,0)
(0,0,0)
(0,0,0)
(0,0,0)
(0,0,0)
(0,0,0)
(0,0,0)
(0,0,0)
(0,0,0)
(0,0,0)
(0,0,0)
(0,0,0)
(0,0,0)
(0,0,0)
(0,0,0)
(0,0,0)
(0,0,0)
(0,0,0)
(0,0,0)
(0,0,0)
(0,0,0)
(0,0,0)
(0,0,0)
(6.33260001731716e-14,-8.76720757817051e-12,1.1320630289615e-11)
(-7.51948915022377e-15,-2.0939335565655e-11,1.13323798669119e-11)
(6.90657246729977e-13,-3.76276103562442e-11,1.08839859741354e-11)
(5.8401544781011e-13,-6.17809758299949e-11,9.65710570844238e-12)
(-1.84788634120082e-13,-9.77940136152604e-11,7.36960299965225e-12)
(-3.8992840085995e-13,-1.53697512401265e-10,4.90714844624603e-12)
(7.10683043997433e-13,-2.45686576497851e-10,2.76311544135128e-12)
(1.33071493702346e-12,-3.98986994133975e-10,1.3423504644064e-12)
(2.20025661315853e-12,-6.52990599997711e-10,9.35648082568811e-13)
(2.59627376330589e-12,-1.00554711184531e-09,5.52595422320091e-13)
(0,0,0)
(0,0,0)
(0,0,0)
(0,0,0)
(0,0,0)
(0,0,0)
(1.13280170518508e-13,-8.82405415190643e-12,2.45928707381226e-11)
(-8.11613447718175e-14,-2.08044706718089e-11,2.47750580598164e-11)
(3.09358792714831e-13,-3.6683406410635e-11,2.35834904514691e-11)
(1.06635161504982e-13,-5.96860831201452e-11,2.06972188374296e-11)
(-7.61327438736625e-13,-9.49750302922623e-11,1.65048683724473e-11)
(-7.99192858051208e-13,-1.51237413282174e-10,1.1647363859389e-11)
(8.72943622085909e-13,-2.43989855809651e-10,7.14980131166393e-12)
(2.97702146419798e-12,-3.98264947221761e-10,4.15776908963508e-12)
(5.73205932433256e-12,-6.52639226993224e-10,2.92867187323118e-12)
(6.73065084277575e-12,-1.00539625002691e-09,1.69389432007149e-12)
(0,0,0)
(0,0,0)
(0,0,0)
(0,0,0)
(0,0,0)
(0,0,0)
(-2.58961751489618e-13,-8.67467009942787e-12,4.18231562109721e-11)
(-1.19511698558304e-12,-1.97916351936754e-11,4.14362460372395e-11)
(-1.47971344004046e-12,-3.41670328538166e-11,3.91480899288084e-11)
(-1.91067677047466e-12,-5.57602775059025e-11,3.51579184978548e-11)
(-1.88811496811e-12,-9.00900343223064e-11,2.93349536422981e-11)
(-3.99841165555859e-13,-1.46449684977547e-10,2.20268129873558e-11)
(2.56105641903403e-12,-2.40753799803349e-10,1.51776459258094e-11)
(6.67411769797003e-12,-3.97155562063635e-10,1.04365877448493e-11)
(1.0345513548853e-11,-6.51858681988086e-10,7.31238924284062e-12)
(1.20824268323694e-11,-1.00472969921971e-09,3.99664594741782e-12)
(0,0,0)
(0,0,0)
(0,0,0)
(0,0,0)
(0,0,0)
(0,0,0)
(-9.84218551656927e-13,-7.92389591333735e-12,6.46566787583429e-11)
(-2.20308371332109e-12,-1.7472903404922e-11,6.39771537974148e-11)
(-2.95662396905895e-12,-2.99919650026141e-11,6.14103743056085e-11)
(-3.31306033654587e-12,-4.96366940652001e-11,5.70274086437339e-11)
(-1.51496901375177e-12,-8.24549796072626e-11,5.04324220452001e-11)
(2.46475778055219e-12,-1.3852749108103e-10,4.19652898750581e-11)
(7.59173044100348e-12,-2.34900058026365e-10,3.31847861757238e-11)
(1.3394046372831e-11,-3.9424900879627e-10,2.51468189402192e-11)
(1.71939825304529e-11,-6.49482489328958e-10,1.76837521122651e-11)
(1.90722091145899e-11,-1.002075831791e-09,9.32758655434926e-12)
(0,0,0)
(0,0,0)
(0,0,0)
(0,0,0)
(0,0,0)
(0,0,0)
(-2.93084082438212e-13,-6.97376278622558e-12,9.8442963737773e-11)
(-8.48622529862447e-13,-1.48287843600053e-11,9.76430806676849e-11)
(-1.83072070319491e-12,-2.51825303262647e-11,9.53392995394201e-11)
(-2.07369283459066e-12,-4.22789435330122e-11,9.14874866947106e-11)
(6.00564344535155e-13,-7.23773064192851e-11,8.55840931883477e-11)
(6.30216941641354e-12,-1.2712722915951e-10,7.77837547659705e-11)
(1.43763078384027e-11,-2.24811289661992e-10,6.86341408382385e-11)
(2.13878702724342e-11,-3.87152795030278e-10,5.52766736158951e-11)
(2.47523916345285e-11,-6.42357848750895e-10,3.9244745727641e-11)
(2.54002370206083e-11,-9.93797996185713e-10,2.05239138297433e-11)
(0,0,0)
(0,0,0)
(0,0,0)
(0,0,0)
(0,0,0)
(0,0,0)
(1.18913231849196e-12,-5.90925222780015e-12,1.51095129571295e-10)
(1.52890318111795e-12,-1.21969968255098e-11,1.50325889141575e-10)
(7.44093879695388e-13,-2.04129290861959e-11,1.48434603247457e-10)
(5.7925849358402e-13,-3.48288440952e-11,1.45629625708747e-10)
(3.5598208175841e-12,-6.20104795082569e-11,1.4107675739904e-10)
(1.02505839386212e-11,-1.15157520347031e-10,1.34262632964011e-10)
(1.86734251595545e-11,-2.12931007788201e-10,1.23091017018868e-10)
(2.66472577800958e-11,-3.73119449671862e-10,1.03256474945668e-10)
(3.07716553142252e-11,-6.25261597284306e-10,7.49005957556479e-11)
(3.18913062954622e-11,-9.74696299759194e-10,3.97032392628813e-11)
(0,0,0)
(0,0,0)
(0,0,0)
(0,0,0)
(0,0,0)
(0,0,0)
(3.12912360714333e-12,-4.78214775672312e-12,2.37326679418931e-10)
(4.70145146140293e-12,-9.70682091518641e-12,2.37148477599192e-10)
(4.38872008954499e-12,-1.63200348880183e-11,2.3608536402562e-10)
(4.80939470724975e-12,-2.8434597866471e-11,2.34128710703901e-10)
(8.90106402951154e-12,-5.27315466165083e-11,2.30071605526642e-10)
(1.62345273980248e-11,-1.02059596177099e-10,2.22639626705545e-10)
(2.42790350776841e-11,-1.9513593154159e-10,2.06536336895879e-10)
(3.20750091347556e-11,-3.47418611937209e-10,1.78227792624346e-10)
(3.65413561150823e-11,-5.91919697302674e-10,1.32725506686653e-10)
(3.901022692523e-11,-9.36330710791658e-10,7.19341253461291e-11)
(0,0,0)
(0,0,0)
(0,0,0)
(0,0,0)
(0,0,0)
(0,0,0)
(4.07372894440135e-12,-3.8034784293135e-12,3.87745912312785e-10)
(6.27040152722332e-12,-7.60984517265211e-12,3.87517806743081e-10)
(7.14577962135815e-12,-1.32734324494589e-11,3.86345168525564e-10)
(8.50067221505751e-12,-2.35223044676975e-11,3.83997433375844e-10)
(1.2828448189936e-11,-4.47552877512485e-11,3.788419528844e-10)
(2.0151888668661e-11,-8.78246999487759e-11,3.68709766851926e-10)
(2.82372908623491e-11,-1.68113974597611e-10,3.47099037652479e-10)
(3.63030308676525e-11,-3.03591966361498e-10,3.05520118402816e-10)
(4.14124830331333e-11,-5.31988267093644e-10,2.36327940587878e-10)
(4.42667876576716e-11,-8.64263559183151e-10,1.33707642571657e-10)
(0,0,0)
(0,0,0)
(0,0,0)
(0,0,0)
(0,0,0)
(0,0,0)
(3.67392174091492e-12,-2.47441082454357e-12,6.40480886227892e-10)
(5.45227386194377e-12,-5.24228655598506e-12,6.40092111727167e-10)
(7.17801622919671e-12,-9.74442907652681e-12,6.38530858820297e-10)
(1.03028153445801e-11,-1.75987626107611e-11,6.35108177076354e-10)
(1.59481453158697e-11,-3.37772987292202e-11,6.27999140789133e-10)
(2.32391847037823e-11,-6.61779312658436e-11,6.13931796911002e-10)
(3.15066408879367e-11,-1.2660051506189e-10,5.84941155046344e-10)
(4.01776305606919e-11,-2.34524760159978e-10,5.28476799828371e-10)
(4.57542352051183e-11,-4.29019526117194e-10,4.27765110983545e-10)
(4.90725307832898e-11,-7.29801981344761e-10,2.57350734454023e-10)
(0,0,0)
(0,0,0)
(0,0,0)
(0,0,0)
(0,0,0)
(0,0,0)
(3.67957751295391e-12,-1.17257410462329e-12,9.94203430452027e-10)
(5.12206263756894e-12,-2.80079727157099e-12,9.93576167988361e-10)
(7.21630716725129e-12,-5.33035686106957e-12,9.91494430033995e-10)
(1.1561236262288e-11,-9.60003432869292e-12,9.86992538620212e-10)
(1.8282875286167e-11,-1.83250897326108e-11,9.78412272842812e-10)
(2.50021995404622e-11,-3.58992092304555e-11,9.61572349275699e-10)
(3.30503108914918e-11,-6.93093591057088e-11,9.27041370963444e-10)
(4.16295144988494e-11,-1.32954493891806e-10,8.58757722701984e-10)
(4.7804254496614e-11,-2.57637755547419e-10,7.26852402781902e-10)
(5.17950947255769e-11,-4.71569981472695e-10,4.70267302019947e-10)
(0,0,0)
(0,0,0)
(0,0,0)
(0,0,0)
(0,0,0)
(0,0,0)
(0,0,0)
(0,0,0)
(0,0,0)
(0,0,0)
(0,0,0)
(0,0,0)
(0,0,0)
(0,0,0)
(0,0,0)
(0,0,0)
(0,0,0)
(0,0,0)
(0,0,0)
(0,0,0)
(0,0,0)
(0,0,0)
(0,0,0)
(0,0,0)
(0,0,0)
(0,0,0)
(0,0,0)
(0,0,0)
(0,0,0)
(0,0,0)
(0,0,0)
(0,0,0)
(0,0,0)
(0,0,0)
(0,0,0)
(0,0,0)
(0,0,0)
(0,0,0)
(0,0,0)
(0,0,0)
(0,0,0)
(0,0,0)
(0,0,0)
(0,0,0)
(0,0,0)
(0,0,0)
(0,0,0)
(0,0,0)
(0,0,0)
(0,0,0)
(0,0,0)
(0,0,0)
(0,0,0)
(0,0,0)
(0,0,0)
(0,0,0)
(0,0,0)
(0,0,0)
(0,0,0)
(0,0,0)
(0,0,0)
(0,0,0)
(0,0,0)
(0,0,0)
(0,0,0)
(0,0,0)
(0,0,0)
(0,0,0)
(0,0,0)
(0,0,0)
(0,0,0)
(0,0,0)
(0,0,0)
(0,0,0)
(0,0,0)
(0,0,0)
(0,0,0)
(0,0,0)
(0,0,0)
(0,0,0)
(0,0,0)
(0,0,0)
(0,0,0)
(0,0,0)
(0,0,0)
(0,0,0)
(0,0,0)
(0,0,0)
(0,0,0)
(0,0,0)
(0,0,0)
(0,0,0)
(0,0,0)
(0,0,0)
(0,0,0)
(0,0,0)
(0,0,0)
(0,0,0)
(0,0,0)
(0,0,0)
(0,0,0)
(0,0,0)
(1.08422996608716e-13,-1.88807022745353e-11,2.32380667727906e-11)
(3.06009509778989e-13,-4.16132910391168e-11,2.19473659789516e-11)
(9.73333566790267e-13,-7.1864228568005e-11,2.00606169505603e-11)
(7.76625446750539e-13,-1.14691965587715e-10,1.71735288671119e-11)
(-5.41317403758967e-13,-1.78173404788707e-10,1.29184597131788e-11)
(-7.05994515033232e-13,-2.75981736065245e-10,7.92561686503313e-12)
(4.34727332807016e-13,-4.31613096258792e-10,3.12658960127693e-12)
(1.01537040647871e-12,-6.96599144634334e-10,4.62574793705969e-13)
(2.23193626858105e-12,-1.20307676128516e-09,3.40784294901626e-14)
(2.99800736677353e-12,-2.36184976029868e-09,3.49005242917265e-13)
(0,0,0)
(0,0,0)
(0,0,0)
(0,0,0)
(0,0,0)
(0,0,0)
(-2.18291203652574e-13,-1.79411703563737e-11,4.84616491973766e-11)
(9.75707854448508e-14,-4.04296170819784e-11,4.68110492526019e-11)
(6.79256849945141e-13,-6.92039139889154e-11,4.31446102209848e-11)
(3.73180012237289e-13,-1.10251167379088e-10,3.70041703532832e-11)
(-7.88818895636468e-13,-1.73142436188724e-10,2.86871310278471e-11)
(-1.08935861498081e-12,-2.71474240936742e-10,1.86094043317253e-11)
(6.28919837716145e-13,-4.29259953580004e-10,8.59182305926129e-12)
(3.09673352268563e-12,-6.96689952438993e-10,3.19277629445282e-12)
(6.18629187274819e-12,-1.20405200788695e-09,1.82150863184342e-12)
(7.75799435588502e-12,-2.3625307473801e-09,1.54848068503507e-12)
(0,0,0)
(0,0,0)
(0,0,0)
(0,0,0)
(0,0,0)
(0,0,0)
(-6.22825763846695e-13,-1.67960562685754e-11,7.91168167186833e-11)
(-1.22569266590048e-12,-3.76483468353368e-11,7.72933998600126e-11)
(-1.66460986027368e-12,-6.34229946387386e-11,7.22444893749012e-11)
(-2.21129535561569e-12,-1.01568046969116e-10,6.37845588306753e-11)
(-2.21502902826283e-12,-1.62682129543269e-10,5.1515335076656e-11)
(-1.47286800053194e-12,-2.61219468828949e-10,3.55198001657556e-11)
(1.448372823034e-12,-4.23742855570645e-10,1.9509474618532e-11)
(6.89176293248975e-12,-6.96437578524091e-10,1.16034167045225e-11)
(1.12850641849278e-11,-1.20504481680933e-09,8.23177012273745e-12)
(1.34252053508804e-11,-2.36299334812197e-09,5.00052083044337e-12)
(0,0,0)
(0,0,0)
(0,0,0)
(0,0,0)
(0,0,0)
(0,0,0)
(-1.25482671784124e-12,-1.50122151827387e-11,1.19753015644729e-10)
(-2.28042326643449e-12,-3.28445671966753e-11,1.17980727797906e-10)
(-3.38309298354155e-12,-5.49707479529853e-11,1.12743729785121e-10)
(-4.07582427019503e-12,-8.88486269253625e-11,1.03256528548756e-10)
(-3.12551003159453e-12,-1.45809495470196e-10,8.91689534007333e-11)
(-1.55000441615352e-13,-2.43318960487363e-10,7.02264712609526e-11)
(5.54092931211971e-12,-4.13111514435822e-10,4.98841387007447e-11)
(1.37608994348636e-11,-6.9454909878684e-10,3.70387547884448e-11)
(1.84255075107439e-11,-1.204202833396e-09,2.67646794100488e-11)
(2.01219600645037e-11,-2.36079050668326e-09,1.45739881333591e-11)
(0,0,0)
(0,0,0)
(0,0,0)
(0,0,0)
(0,0,0)
(0,0,0)
(-5.57711570775644e-13,-1.30548006555713e-11,1.79709636309067e-10)
(-1.17662893609514e-12,-2.73332201301544e-11,1.78096784528264e-10)
(-2.74850909855482e-12,-4.49935310481876e-11,1.73601726712807e-10)
(-3.62039876604276e-12,-7.34484230817279e-11,1.65056399161363e-10)
(-1.96592414410653e-12,-1.23358273794222e-10,1.52585923824436e-10)
(3.48207453166081e-12,-2.15691776015644e-10,1.37424633539958e-10)
(1.58534931869545e-11,-3.90159126311696e-10,1.243363115688e-10)
(2.33864528024602e-11,-6.86016394997209e-10,9.70115609042136e-11)
(2.63769720657983e-11,-1.19554715383894e-09,6.80484729238694e-11)
(2.68224544234047e-11,-2.34924515017677e-09,3.54012560655466e-11)
(0,0,0)
(0,0,0)
(0,0,0)
(0,0,0)
(0,0,0)
(0,0,0)
(8.31268277135489e-13,-1.08814775998687e-11,2.70785029541836e-10)
(9.30013164911701e-13,-2.17202356603e-11,2.69371106521362e-10)
(-5.43822779776654e-13,-3.49266190724678e-11,2.66153222575072e-10)
(-1.26211942542891e-12,-5.79474412556322e-11,2.60275683932541e-10)
(1.0950123608757e-12,-1.01169307123766e-10,2.51258077259382e-10)
(8.32427571379963e-12,-1.89781288691029e-10,2.38980169692062e-10)
(2.07128909861888e-11,-3.7175563187759e-10,2.2292232101171e-10)
(2.9302299235495e-11,-6.6468813113163e-10,1.85861188877858e-10)
(3.26271118252288e-11,-1.16776971678897e-09,1.33703308598743e-10)
(3.32289565909299e-11,-2.31722500842421e-09,7.03940880391385e-11)
(0,0,0)
(0,0,0)
(0,0,0)
(0,0,0)
(0,0,0)
(0,0,0)
(2.32865609947177e-12,-8.44046545497009e-12,4.16842802422643e-10)
(3.66758929244206e-12,-1.66217007547913e-11,4.16341643173101e-10)
(3.29877097270537e-12,-2.66278269688158e-11,4.14784339823888e-10)
(3.95420648572895e-12,-4.49275282102994e-11,4.11821140973786e-10)
(8.35678398536875e-12,-8.13734203055733e-11,4.06589785864823e-10)
(1.81029209793924e-11,-1.61293115164085e-10,3.96250964829153e-10)
(2.55656224052872e-11,-3.40922741462347e-10,3.66311874876689e-10)
(3.37506494965544e-11,-6.19899516326266e-10,3.20862580873657e-10)
(3.74013072462842e-11,-1.10905940033176e-09,2.37132078431685e-10)
(3.88772006634028e-11,-2.2496262962653e-09,1.27845183072161e-10)
(0,0,0)
(0,0,0)
(0,0,0)
(0,0,0)
(0,0,0)
(0,0,0)
(2.97276690933502e-12,-6.46955163639587e-12,6.75411316514662e-10)
(5.07548112807443e-12,-1.27238445713912e-11,6.75047799322326e-10)
(5.96451139814884e-12,-2.11888232487555e-11,6.73732262115105e-10)
(7.73261084956527e-12,-3.70944461267853e-11,6.71053408192684e-10)
(1.19826452003564e-11,-7.05498229983172e-11,6.65133413406858e-10)
(2.01158491852029e-11,-1.44334957990909e-10,6.51749587152398e-10)
(2.83027505763197e-11,-2.96398643831033e-10,6.17694158316237e-10)
(3.64280024808963e-11,-5.38470084665545e-10,5.43540397841672e-10)
(4.10640400730691e-11,-1.00143116185227e-09,4.19463882831347e-10)
(4.35128523903496e-11,-2.12259999601941e-09,2.38739327000821e-10)
(0,0,0)
(0,0,0)
(0,0,0)
(0,0,0)
(0,0,0)
(0,0,0)
(2.76085952171964e-12,-4.29124406463858e-12,1.17925763463446e-09)
(4.57203748440024e-12,-8.89889719220086e-12,1.17861116731979e-09)
(6.18662575768469e-12,-1.57314627176533e-11,1.1763222334957e-09)
(9.41312334973635e-12,-2.83527473470579e-11,1.17164726959485e-09)
(1.45632801974053e-11,-5.50467949320996e-11,1.16189452324673e-09)
(2.1951104533031e-11,-1.11670459349601e-10,1.14036437769987e-09)
(3.06798401497326e-11,-2.21630464413908e-10,1.09257864193971e-09)
(3.93190531373387e-11,-4.14020109498446e-10,9.94222634770563e-10)
(4.47868411648445e-11,-8.20403755998141e-10,8.18156985904736e-10)
(4.81912653653799e-11,-1.8837355269003e-09,5.12172088391043e-10)
(0,0,0)
(0,0,0)
(0,0,0)
(0,0,0)
(0,0,0)
(0,0,0)
(3.13426587199737e-12,-2.0695922385898e-12,2.33812587981937e-09)
(4.40300332036305e-12,-4.73627986382364e-12,2.33734433733526e-09)
(6.38784171996381e-12,-8.79376177368493e-12,2.33439422649648e-09)
(1.05414677109947e-11,-1.58403742829523e-11,2.32765940086699e-09)
(1.67977091206612e-11,-3.05785476076352e-11,2.31452906561024e-09)
(2.36339686222518e-11,-6.14802546905325e-11,2.28716160200658e-09)
(3.2024600047228e-11,-1.21024560622163e-10,2.22886518797125e-09)
(4.05803405271733e-11,-2.36009641425864e-10,2.1107637502021e-09)
(4.675159971115e-11,-5.12760205179615e-10,1.8774945608136e-09)
(5.04924152729247e-11,-1.37035032190519e-09,1.3674160040033e-09)
(0,0,0)
(0,0,0)
(0,0,0)
(0,0,0)
(0,0,0)
(0,0,0)
(0,0,0)
(0,0,0)
(0,0,0)
(0,0,0)
(0,0,0)
(0,0,0)
(0,0,0)
(0,0,0)
(0,0,0)
(0,0,0)
(0,0,0)
(0,0,0)
(0,0,0)
(0,0,0)
(0,0,0)
(0,0,0)
(0,0,0)
(0,0,0)
(0,0,0)
(0,0,0)
(0,0,0)
(0,0,0)
(0,0,0)
(0,0,0)
(0,0,0)
(0,0,0)
(0,0,0)
(0,0,0)
(0,0,0)
(0,0,0)
(0,0,0)
(0,0,0)
(0,0,0)
(0,0,0)
(0,0,0)
(0,0,0)
(0,0,0)
(0,0,0)
(0,0,0)
(0,0,0)
(0,0,0)
(0,0,0)
(0,0,0)
(0,0,0)
(0,0,0)
(0,0,0)
(0,0,0)
(0,0,0)
(0,0,0)
(0,0,0)
(0,0,0)
(0,0,0)
(0,0,0)
(0,0,0)
(0,0,0)
(0,0,0)
(0,0,0)
(0,0,0)
(0,0,0)
(0,0,0)
(0,0,0)
(0,0,0)
(0,0,0)
(0,0,0)
(0,0,0)
(0,0,0)
(0,0,0)
(0,0,0)
(0,0,0)
(0,0,0)
(0,0,0)
(0,0,0)
(0,0,0)
(0,0,0)
(0,0,0)
(0,0,0)
(0,0,0)
(0,0,0)
(0,0,0)
(0,0,0)
(0,0,0)
(0,0,0)
(0,0,0)
(0,0,0)
(0,0,0)
(0,0,0)
(0,0,0)
(0,0,0)
(0,0,0)
(0,0,0)
(0,0,0)
(0,0,0)
(0,0,0)
(0,0,0)
(0,0,0)
(0,0,0)
(4.59591872281536e-13,-2.62814587130025e-11,2.94344675327778e-11)
(1.00908458077072e-12,-5.75641668515666e-11,2.8059776123216e-11)
(1.20010707175981e-12,-9.8092972420645e-11,2.61223683877545e-11)
(5.90896392270739e-13,-1.53374332994359e-10,2.23605150462134e-11)
(-5.79443155898851e-13,-2.31895257896419e-10,1.57926367224538e-11)
(-4.14462379535431e-13,-3.46455764541198e-10,7.04644042249737e-12)
(7.45599461073519e-13,-5.13231442940874e-10,-1.1282574811863e-12)
(1.53467457536966e-12,-7.54871952413212e-10,-4.38675551174225e-12)
(2.89225605705868e-12,-1.10038288742054e-09,-3.60087293614937e-12)
(4.02799969092232e-12,-1.52252125784817e-09,-1.48776815305101e-12)
(0,0,0)
(0,0,0)
(0,0,0)
(0,0,0)
(0,0,0)
(0,0,0)
(2.87194653007822e-13,-2.49534595847086e-11,6.27094444959192e-11)
(9.82739569722567e-13,-5.54388504736386e-11,6.04384805711769e-11)
(1.03877736648078e-12,-9.38987315652979e-11,5.57455508095665e-11)
(7.09892866033078e-15,-1.46847757608133e-10,4.69971806043222e-11)
(-1.17139884508859e-12,-2.24178991541909e-10,3.34486857660312e-11)
(-1.3265494502224e-12,-3.39426287316853e-10,1.52131832535763e-11)
(5.10868592125658e-13,-5.10607652859075e-10,-3.04492092547608e-12)
(4.2156272716032e-12,-7.56650458607142e-10,-8.5234033793841e-12)
(7.45212874190527e-12,-1.10350211699831e-09,-6.13790020650343e-12)
(9.76907578301255e-12,-1.52506219665648e-09,-2.20966874106863e-12)
(0,0,0)
(0,0,0)
(0,0,0)
(0,0,0)
(0,0,0)
(0,0,0)
(-5.83249992974679e-13,-2.29487104091997e-11,1.04244128553917e-10)
(-9.8056181836119e-13,-5.06378297319367e-11,1.0147724136406e-10)
(-1.65692600121637e-12,-8.46043396435148e-11,9.42779580422005e-11)
(-2.6614916459923e-12,-1.32954734000341e-10,8.1060908217491e-11)
(-3.09212819047042e-12,-2.0661655703306e-10,6.00895614930579e-11)
(-3.36305079493329e-12,-3.22565434267833e-10,2.96118724388119e-11)
(-1.27691039687272e-12,-5.06173285351821e-10,-4.43207282904046e-12)
(8.3749297760495e-12,-7.61884475573842e-10,-8.83895732714271e-12)
(1.36743300648614e-11,-1.10979751414068e-09,-3.39101984188523e-12)
(1.62228847419002e-11,-1.52930462425211e-09,1.39629852012369e-13)
(0,0,0)
(0,0,0)
(0,0,0)
(0,0,0)
(0,0,0)
(0,0,0)
(-1.43995339890182e-12,-2.02222918426996e-11,1.58978064864537e-10)
(-2.55477231898745e-12,-4.33589712370105e-11,1.5558225699886e-10)
(-3.87310865259813e-12,-7.14377711833282e-11,1.46994774354366e-10)
(-5.38845296647678e-12,-1.11921559636005e-10,1.31403937079684e-10)
(-6.6342495670896e-12,-1.76238000869194e-10,1.06507758281744e-10)
(-7.43985235371222e-12,-2.88212627895258e-10,6.75536674370822e-11)
(-4.5660748994255e-12,-4.96378010245396e-10,1.51565323550702e-11)
(1.5502271024015e-11,-7.72662762031051e-10,1.38881691149382e-11)
(2.19605192306903e-11,-1.11827099140929e-09,1.69462511578352e-11)
(2.31505916907232e-11,-1.53273593379814e-09,1.1574214384588e-11)
(0,0,0)
(0,0,0)
(0,0,0)
(0,0,0)
(0,0,0)
(0,0,0)
(-1.11818284611214e-12,-1.69149909832374e-11,2.34071279751772e-10)
(-2.29455558953717e-12,-3.48593458929171e-11,2.30550915015688e-10)
(-4.27009352406611e-12,-5.58650277478273e-11,2.22585125716189e-10)
(-6.65090525502428e-12,-8.60512774487604e-11,2.08616487163852e-10)
(-8.99360052908266e-12,-1.34069770578159e-10,1.87697437790102e-10)
(-9.34009082274711e-12,-2.23626182941316e-10,1.62937840182691e-10)
(2.47747494165168e-11,-4.34806063269421e-10,1.72496244177991e-10)
(3.1021276917241e-11,-7.83367228520338e-10,1.13120159929856e-10)
(3.12467518757433e-11,-1.12058859812057e-09,7.67853711821228e-11)
(3.02035687359393e-11,-1.52561525416688e-09,4.00385628391117e-11)
(0,0,0)
(0,0,0)
(0,0,0)
(0,0,0)
(0,0,0)
(0,0,0)
(-1.9582084668382e-13,-1.3324271955427e-11,3.39720206016297e-10)
(-9.50637794659464e-13,-2.63423440509752e-11,3.36552192235591e-10)
(-2.96507624110148e-12,-4.04261207059756e-11,3.30817400549926e-10)
(-5.2644257963425e-12,-6.06110566583534e-11,3.21810018361179e-10)
(-6.42296689104702e-12,-9.48364470954273e-11,3.08800421433066e-10)
(-4.10604913264478e-12,-1.76339916389802e-10,2.92992303882168e-10)
(2.69411327052135e-11,-4.37087464666895e-10,2.98945722315628e-10)
(3.66715647085793e-11,-7.71120846322935e-10,2.36794848068256e-10)
(3.72260159282942e-11,-1.09415135939019e-09,1.6453888349336e-10)
(3.60243324702633e-11,-1.49054010449285e-09,8.47923607955385e-11)
(0,0,0)
(0,0,0)
(0,0,0)
(0,0,0)
(0,0,0)
(0,0,0)
(8.58901531007709e-13,-9.52137835067602e-12,4.92664023153307e-10)
(1.32703645770579e-12,-1.86552470434003e-11,4.90888749722564e-10)
(8.22966102835265e-13,-2.77453903360689e-11,4.88515818059953e-10)
(1.35247951122107e-12,-3.96762495216063e-11,4.86436000860033e-10)
(7.87200771401275e-12,-5.82082922917563e-11,4.87096483307848e-10)
(3.10838537584748e-11,-1.096727265714e-10,4.92959568274183e-10)
(2.64908187771682e-11,-4.04289936707119e-10,4.35213147450936e-10)
(3.60517202772916e-11,-7.20197405098449e-10,4.15747857777706e-10)
(3.90599641267582e-11,-1.02329460974976e-09,2.8925694417421e-10)
(3.96960834902375e-11,-1.4094093397792e-09,1.49007920838634e-10)
(0,0,0)
(0,0,0)
(0,0,0)
(0,0,0)
(0,0,0)
(0,0,0)
(1.15797653025595e-12,-6.68180758801278e-12,7.24195526137205e-10)
(2.56607095618875e-12,-1.34461464562105e-11,7.23365558245385e-10)
(3.18600478870481e-12,-2.07942635888521e-11,7.224923203619e-10)
(4.91090685689664e-12,-3.26858895229007e-11,7.22142782971559e-10)
(9.86344338781176e-12,-5.93540532245049e-11,7.23476055793477e-10)
(2.15067793803634e-11,-1.37870601739845e-10,7.26619391239882e-10)
(2.76883316337893e-11,-3.67469803397833e-10,7.09687118967054e-10)
(3.60545423229942e-11,-5.96563582453106e-10,6.05534809068736e-10)
(4.07611900497957e-11,-8.85396771702613e-10,4.4274048412564e-10)
(4.33877102726749e-11,-1.26123863933323e-09,2.39116157794626e-10)
(0,0,0)
(0,0,0)
(0,0,0)
(0,0,0)
(0,0,0)
(0,0,0)
(1.18567501022571e-12,-4.45971312125375e-12,1.06538902448197e-09)
(2.69835397993764e-12,-9.40365695821704e-12,1.06436061070814e-09)
(3.92388871517097e-12,-1.56373379805398e-11,1.0626194732183e-09)
(6.6534966338378e-12,-2.71114939989811e-11,1.0597431149767e-09)
(1.16251784201925e-11,-5.38033262319408e-11,1.05380207602883e-09)
(1.95466356338126e-11,-1.20148069751657e-10,1.03880595395535e-09)
(2.84299435268959e-11,-2.60271317706856e-10,9.93522063478315e-10)
(3.73742339295828e-11,-4.32990304619436e-10,8.73970631765608e-10)
(4.3128187860833e-11,-6.81049997606371e-10,6.78008684787584e-10)
(4.69781487611624e-11,-1.02116262938476e-09,3.90035012273093e-10)
(0,0,0)
(0,0,0)
(0,0,0)
(0,0,0)
(0,0,0)
(0,0,0)
(1.84621611691935e-12,-2.09569091011341e-12,1.48511542292779e-09)
(2.61683429496635e-12,-4.9701561245701e-12,1.48430722139969e-09)
(4.32890557622622e-12,-8.96208492835177e-12,1.48185143071727e-09)
(7.8314286844075e-12,-1.61154930864705e-11,1.47644010956239e-09)
(1.35866251170603e-11,-3.1993314049479e-11,1.46459449463589e-09)
(2.04501279665386e-11,-6.8396752116943e-11,1.43806655765731e-09)
(2.91014771945834e-11,-1.36833239113312e-10,1.37522661940204e-09)
(3.78398884886429e-11,-2.34196354309937e-10,1.24281118278964e-09)