/*--------------------------------*- C++ -*----------------------------------*\
| =========                 |                                                 |
| \\      /  F ield         | foam-extend: Open Source Cstd::filesystem::create_directory();FD                    |
|  \\    /   O peration     | Version:     4.0                                |
|   \\  /    A nd           | Web:         http://www.foam-extend.org         |
|    \\/     M anipulation  |                                                 |
\*---------------------------------------------------------------------------*/
FoamFile
{
    version 2.0;
    format ascii;
    class volVectorField;
    location "Data/1121";
    object      H;
}
// * * * * * * * * * * * * * * * * * * * * * * * * * * * * * * * * * * * * * //

dimensions      [0 1 -1 0 0 0 0];

internalField   nonuniform List<vector>
4096
(
(0,0,0)
(0,0,0)
(0,0,0)
(0,0,0)
(0,0,0)
(0,0,0)
(0,0,0)
(0,0,0)
(0,0,0)
(0,0,0)
(0,0,0)
(0,0,0)
(0,0,0)
(0,0,0)
(0,0,0)
(0,0,0)
(0,0,0)
(0,0,0)
(0,0,0)
(0,0,0)
(0,0,0)
(0,0,0)
(0,0,0)
(0,0,0)
(0,0,0)
(0,0,0)
(0,0,0)
(0,0,0)
(0,0,0)
(0,0,0)
(0,0,0)
(0,0,0)
(0,0,0)
(0,0,0)
(0,0,0)
(0,0,0)
(0,0,0)
(0,0,0)
(0,0,0)
(0,0,0)
(0,0,0)
(0,0,0)
(0,0,0)
(0,0,0)
(0,0,0)
(0,0,0)
(0,0,0)
(0,0,0)
(0,0,0)
(0,0,0)
(0,0,0)
(0,0,0)
(0,0,0)
(0,0,0)
(0,0,0)
(0,0,0)
(0,0,0)
(0,0,0)
(0,0,0)
(0,0,0)
(0,0,0)
(0,0,0)
(0,0,0)
(0,0,0)
(0,0,0)
(0,0,0)
(0,0,0)
(0,0,0)
(0,0,0)
(0,0,0)
(0,0,0)
(0,0,0)
(0,0,0)
(0,0,0)
(0,0,0)
(0,0,0)
(0,0,0)
(0,0,0)
(0,0,0)
(0,0,0)
(0,0,0)
(0,0,0)
(0,0,0)
(0,0,0)
(0,0,0)
(0,0,0)
(0,0,0)
(0,0,0)
(0,0,0)
(0,0,0)
(0,0,0)
(0,0,0)
(0,0,0)
(0,0,0)
(0,0,0)
(0,0,0)
(0,0,0)
(0,0,0)
(0,0,0)
(0,0,0)
(0,0,0)
(0,0,0)
(0,0,0)
(0,0,0)
(0,0,0)
(0,0,0)
(0,0,0)
(0,0,0)
(0,0,0)
(0,0,0)
(0,0,0)
(0,0,0)
(0,0,0)
(0,0,0)
(0,0,0)
(0,0,0)
(0,0,0)
(0,0,0)
(0,0,0)
(0,0,0)
(0,0,0)
(0,0,0)
(0,0,0)
(0,0,0)
(0,0,0)
(0,0,0)
(0,0,0)
(0,0,0)
(0,0,0)
(0,0,0)
(0,0,0)
(0,0,0)
(0,0,0)
(0,0,0)
(0,0,0)
(0,0,0)
(0,0,0)
(0,0,0)
(0,0,0)
(0,0,0)
(0,0,0)
(0,0,0)
(0,0,0)
(0,0,0)
(0,0,0)
(0,0,0)
(0,0,0)
(0,0,0)
(0,0,0)
(0,0,0)
(0,0,0)
(0,0,0)
(0,0,0)
(0,0,0)
(0,0,0)
(0,0,0)
(0,0,0)
(0,0,0)
(0,0,0)
(0,0,0)
(0,0,0)
(0,0,0)
(0,0,0)
(0,0,0)
(0,0,0)
(0,0,0)
(0,0,0)
(0,0,0)
(0,0,0)
(0,0,0)
(0,0,0)
(0,0,0)
(0,0,0)
(0,0,0)
(0,0,0)
(0,0,0)
(0,0,0)
(0,0,0)
(0,0,0)
(0,0,0)
(0,0,0)
(0,0,0)
(0,0,0)
(0,0,0)
(0,0,0)
(0,0,0)
(0,0,0)
(0,0,0)
(0,0,0)
(0,0,0)
(0,0,0)
(0,0,0)
(0,0,0)
(0,0,0)
(0,0,0)
(0,0,0)
(0,0,0)
(0,0,0)
(0,0,0)
(0,0,0)
(0,0,0)
(0,0,0)
(0,0,0)
(0,0,0)
(0,0,0)
(0,0,0)
(0,0,0)
(0,0,0)
(0,0,0)
(0,0,0)
(0,0,0)
(0,0,0)
(0,0,0)
(0,0,0)
(0,0,0)
(0,0,0)
(0,0,0)
(0,0,0)
(0,0,0)
(0,0,0)
(0,0,0)
(0,0,0)
(0,0,0)
(0,0,0)
(0,0,0)
(0,0,0)
(0,0,0)
(0,0,0)
(0,0,0)
(0,0,0)
(0,0,0)
(0,0,0)
(0,0,0)
(0,0,0)
(0,0,0)
(0,0,0)
(0,0,0)
(0,0,0)
(0,0,0)
(0,0,0)
(0,0,0)
(0,0,0)
(0,0,0)
(0,0,0)
(0,0,0)
(0,0,0)
(0,0,0)
(0,0,0)
(0,0,0)
(0,0,0)
(0,0,0)
(0,0,0)
(0,0,0)
(0,0,0)
(0,0,0)
(0,0,0)
(0,0,0)
(0,0,0)
(0,0,0)
(0,0,0)
(0,0,0)
(0,0,0)
(0,0,0)
(0,0,0)
(0,0,0)
(0,0,0)
(0,0,0)
(0,0,0)
(0,0,0)
(0,0,0)
(0,0,0)
(0,0,0)
(0,0,0)
(0,0,0)
(0,0,0)
(0,0,0)
(0,0,0)
(0,0,0)
(0,0,0)
(0,0,0)
(0,0,0)
(0,0,0)
(0,0,0)
(0,0,0)
(0,0,0)
(0,0,0)
(0,0,0)
(0,0,0)
(0,0,0)
(0,0,0)
(0,0,0)
(0,0,0)
(0,0,0)
(0,0,0)
(0,0,0)
(0,0,0)
(0,0,0)
(0,0,0)
(0,0,0)
(0,0,0)
(0,0,0)
(0,0,0)
(0,0,0)
(0,0,0)
(0,0,0)
(0,0,0)
(0,0,0)
(0,0,0)
(0,0,0)
(0,0,0)
(0,0,0)
(0,0,0)
(0,0,0)
(0,0,0)
(0,0,0)
(0,0,0)
(0,0,0)
(0,0,0)
(0,0,0)
(0,0,0)
(0,0,0)
(0,0,0)
(0,0,0)
(0,0,0)
(0,0,0)
(0,0,0)
(0,0,0)
(0,0,0)
(0,0,0)
(0,0,0)
(0,0,0)
(0,0,0)
(0,0,0)
(0,0,0)
(0,0,0)
(0,0,0)
(0,0,0)
(0,0,0)
(0,0,0)
(0,0,0)
(0,0,0)
(0,0,0)
(0,0,0)
(0,0,0)
(0,0,0)
(0,0,0)
(0,0,0)
(0,0,0)
(0,0,0)
(0,0,0)
(0,0,0)
(0,0,0)
(0,0,0)
(0,0,0)
(0,0,0)
(0,0,0)
(0,0,0)
(0,0,0)
(0,0,0)
(0,0,0)
(0,0,0)
(0,0,0)
(0,0,0)
(0,0,0)
(0,0,0)
(0,0,0)
(0,0,0)
(0,0,0)
(0,0,0)
(0,0,0)
(0,0,0)
(0,0,0)
(0,0,0)
(0,0,0)
(0,0,0)
(0,0,0)
(0,0,0)
(0,0,0)
(0,0,0)
(0,0,0)
(0,0,0)
(0,0,0)
(0,0,0)
(0,0,0)
(0,0,0)
(0,0,0)
(0,0,0)
(0,0,0)
(0,0,0)
(0,0,0)
(0,0,0)
(0,0,0)
(0,0,0)
(0,0,0)
(0,0,0)
(0,0,0)
(0,0,0)
(0,0,0)
(0,0,0)
(0,0,0)
(0,0,0)
(0,0,0)
(0,0,0)
(0,0,0)
(0,0,0)
(0,0,0)
(0,0,0)
(0,0,0)
(0,0,0)
(0,0,0)
(0,0,0)
(0,0,0)
(0,0,0)
(0,0,0)
(0,0,0)
(0,0,0)
(0,0,0)
(0,0,0)
(0,0,0)
(0,0,0)
(0,0,0)
(0,0,0)
(0,0,0)
(0,0,0)
(0,0,0)
(0,0,0)
(0,0,0)
(0,0,0)
(0,0,0)
(0,0,0)
(0,0,0)
(0,0,0)
(0,0,0)
(0,0,0)
(0,0,0)
(0,0,0)
(0,0,0)
(0,0,0)
(0,0,0)
(0,0,0)
(0,0,0)
(0,0,0)
(0,0,0)
(0,0,0)
(0,0,0)
(0,0,0)
(0,0,0)
(0,0,0)
(0,0,0)
(0,0,0)
(0,0,0)
(0,0,0)
(0,0,0)
(0,0,0)
(0,0,0)
(0,0,0)
(0,0,0)
(0,0,0)
(0,0,0)
(0,0,0)
(0,0,0)
(0,0,0)
(0,0,0)
(0,0,0)
(0,0,0)
(0,0,0)
(0,0,0)
(0,0,0)
(0,0,0)
(0,0,0)
(0,0,0)
(0,0,0)
(0,0,0)
(0,0,0)
(0,0,0)
(0,0,0)
(0,0,0)
(0,0,0)
(0,0,0)
(0,0,0)
(0,0,0)
(0,0,0)
(0,0,0)
(0,0,0)
(0,0,0)
(0,0,0)
(0,0,0)
(0,0,0)
(0,0,0)
(0,0,0)
(0,0,0)
(0,0,0)
(0,0,0)
(0,0,0)
(0,0,0)
(0,0,0)
(0,0,0)
(0,0,0)
(0,0,0)
(0,0,0)
(0,0,0)
(0,0,0)
(0,0,0)
(0,0,0)
(0,0,0)
(0,0,0)
(0,0,0)
(0,0,0)
(0,0,0)
(0,0,0)
(0,0,0)
(0,0,0)
(0,0,0)
(0,0,0)
(0,0,0)
(0,0,0)
(0,0,0)
(0,0,0)
(0,0,0)
(0,0,0)
(0,0,0)
(0,0,0)
(0,0,0)
(0,0,0)
(0,0,0)
(0,0,0)
(0,0,0)
(0,0,0)
(0,0,0)
(0,0,0)
(0,0,0)
(0,0,0)
(0,0,0)
(0,0,0)
(0,0,0)
(0,0,0)
(0,0,0)
(0,0,0)
(0,0,0)
(0,0,0)
(0,0,0)
(0,0,0)
(0,0,0)
(0,0,0)
(0,0,0)
(0,0,0)
(0,0,0)
(0,0,0)
(0,0,0)
(0,0,0)
(0,0,0)
(0,0,0)
(0,0,0)
(0,0,0)
(0,0,0)
(0,0,0)
(0,0,0)
(0,0,0)
(0,0,0)
(0,0,0)
(0,0,0)
(0,0,0)
(0,0,0)
(0,0,0)
(0,0,0)
(0,0,0)
(0,0,0)
(0,0,0)
(0,0,0)
(0,0,0)
(0,0,0)
(0,0,0)
(0,0,0)
(0,0,0)
(0,0,0)
(0,0,0)
(0,0,0)
(0,0,0)
(0,0,0)
(0,0,0)
(0,0,0)
(0,0,0)
(0,0,0)
(0,0,0)
(0,0,0)
(0,0,0)
(0,0,0)
(0,0,0)
(0,0,0)
(0,0,0)
(0,0,0)
(0,0,0)
(0,0,0)
(0,0,0)
(0,0,0)
(0,0,0)
(0,0,0)
(0,0,0)
(0,0,0)
(0,0,0)
(0,0,0)
(0,0,0)
(0,0,0)
(0,0,0)
(0,0,0)
(0,0,0)
(0,0,0)
(0,0,0)
(0,0,0)
(0,0,0)
(0,0,0)
(0,0,0)
(0,0,0)
(0,0,0)
(0,0,0)
(0,0,0)
(0,0,0)
(0,0,0)
(0,0,0)
(0,0,0)
(0,0,0)
(0,0,0)
(0,0,0)
(0,0,0)
(0,0,0)
(0,0,0)
(0,0,0)
(0,0,0)
(0,0,0)
(0,0,0)
(0,0,0)
(0,0,0)
(0,0,0)
(0,0,0)
(0,0,0)
(0,0,0)
(0,0,0)
(0,0,0)
(0,0,0)
(0,0,0)
(0,0,0)
(0,0,0)
(0,0,0)
(0,0,0)
(0,0,0)
(0,0,0)
(0,0,0)
(0,0,0)
(0,0,0)
(0,0,0)
(0,0,0)
(0,0,0)
(0,0,0)
(0,0,0)
(0,0,0)
(0,0,0)
(0,0,0)
(0,0,0)
(0,0,0)
(0,0,0)
(0,0,0)
(0,0,0)
(0,0,0)
(0,0,0)
(0,0,0)
(0,0,0)
(0,0,0)
(0,0,0)
(0,0,0)
(0,0,0)
(0,0,0)
(0,0,0)
(0,0,0)
(0,0,0)
(0,0,0)
(0,0,0)
(0,0,0)
(0,0,0)
(0,0,0)
(0,0,0)
(0,0,0)
(0,0,0)
(0,0,0)
(0,0,0)
(0,0,0)
(0,0,0)
(0,0,0)
(0,0,0)
(0,0,0)
(0,0,0)
(0,0,0)
(0,0,0)
(0,0,0)
(0,0,0)
(0,0,0)
(0,0,0)
(0,0,0)
(0,0,0)
(0,0,0)
(0,0,0)
(0,0,0)
(0,0,0)
(0,0,0)
(0,0,0)
(0,0,0)
(0,0,0)
(0,0,0)
(0,0,0)
(0,0,0)
(0,0,0)
(0,0,0)
(0,0,0)
(0,0,0)
(0,0,0)
(0,0,0)
(0,0,0)
(0,0,0)
(0,0,0)
(0,0,0)
(0,0,0)
(0,0,0)
(0,0,0)
(0,0,0)
(0,0,0)
(0,0,0)
(0,0,0)
(0,0,0)
(0,0,0)
(0,0,0)
(0,0,0)
(0,0,0)
(0,0,0)
(0,0,0)
(0,0,0)
(0,0,0)
(0,0,0)
(0,0,0)
(0,0,0)
(0,0,0)
(0,0,0)
(0,0,0)
(0,0,0)
(0,0,0)
(0,0,0)
(0,0,0)
(0,0,0)
(0,0,0)
(0,0,0)
(0,0,0)
(0,0,0)
(0,0,0)
(0,0,0)
(0,0,0)
(0,0,0)
(0,0,0)
(0,0,0)
(0,0,0)
(0,0,0)
(0,0,0)
(0,0,0)
(0,0,0)
(0,0,0)
(0,0,0)
(0,0,0)
(0,0,0)
(0,0,0)
(0,0,0)
(0,0,0)
(0,0,0)
(0,0,0)
(0,0,0)
(0,0,0)
(0,0,0)
(0,0,0)
(0,0,0)
(0,0,0)
(0,0,0)
(0,0,0)
(0,0,0)
(0,0,0)
(0,0,0)
(0,0,0)
(0,0,0)
(0,0,0)
(0,0,0)
(0,0,0)
(0,0,0)
(0,0,0)
(0,0,0)
(0,0,0)
(0,0,0)
(0,0,0)
(0,0,0)
(0,0,0)
(0,0,0)
(0,0,0)
(0,0,0)
(0,0,0)
(0,0,0)
(0,0,0)
(0,0,0)
(0,0,0)
(0,0,0)
(0,0,0)
(0,0,0)
(0,0,0)
(0,0,0)
(0,0,0)
(0,0,0)
(0,0,0)
(0,0,0)
(0,0,0)
(0,0,0)
(0,0,0)
(0,0,0)
(0,0,0)
(0,0,0)
(0,0,0)
(0,0,0)
(-5.64350475275787e-13,6.91076466697785e-12,-6.82463138396871e-12)
(-1.4671237204317e-12,1.39802918307251e-11,-6.25472169527313e-12)
(-2.13285758432375e-12,2.27204898393538e-11,-5.49995984742213e-12)
(-1.29810860547998e-12,3.45486496540983e-11,-4.47363099977477e-12)
(-4.3602455986536e-13,5.42740745071476e-11,-3.09962663317551e-12)
(8.32931232862866e-13,8.67146122763156e-11,-2.06469525175698e-12)
(1.38462194037713e-12,1.39686934558202e-10,-1.06875822612915e-12)
(1.40263233491948e-12,2.27432276456488e-10,-6.86564753117146e-13)
(2.2995416053471e-12,3.72403631164119e-10,-5.08130531531259e-13)
(2.11825823430328e-12,5.76751435303076e-10,-1.97329054043975e-13)
(0,0,0)
(0,0,0)
(0,0,0)
(0,0,0)
(0,0,0)
(0,0,0)
(-2.06785906799374e-13,6.40264762429685e-12,-1.4795253671652e-11)
(-1.39473724004862e-12,1.31355485846657e-11,-1.32799684599557e-11)
(-3.06385925405199e-12,2.14666808037233e-11,-1.152335742161e-11)
(-2.69400834691054e-12,3.33907617070493e-11,-9.8361318663519e-12)
(-1.72553980807741e-12,5.32848130913287e-11,-7.70892687009676e-12)
(-1.19947633194474e-13,8.57469701150135e-11,-5.6266233662882e-12)
(9.43314206545441e-13,1.3891902129067e-10,-3.52126076288384e-12)
(2.13488766877988e-12,2.27026454539736e-10,-2.2883141983322e-12)
(2.90024128618255e-12,3.72271174620804e-10,-1.3673432670812e-12)
(1.59573634026075e-12,5.76621803132258e-10,-5.74911258414982e-13)
(0,0,0)
(0,0,0)
(0,0,0)
(0,0,0)
(0,0,0)
(0,0,0)
(5.37244148164334e-13,5.43112485018714e-12,-2.29725948881398e-11)
(-6.50688889497216e-13,1.18346205506263e-11,-2.14648366606764e-11)
(-2.98612529899759e-12,1.95785907607149e-11,-1.93108058469102e-11)
(-3.51042420994855e-12,3.11085670884737e-11,-1.71005639129205e-11)
(-3.22163159304756e-12,5.08307436566238e-11,-1.42869439192701e-11)
(-1.82317275094814e-12,8.32614887906565e-11,-1.10861006791916e-11)
(-3.47325982055559e-13,1.37235148065929e-10,-8.0762731950593e-12)
(1.21964749264552e-12,2.26443184007865e-10,-5.60856947072893e-12)
(1.77321773021248e-12,3.72324382094187e-10,-3.65271330778538e-12)
(4.96867256820942e-13,5.76516279974535e-10,-1.765051393342e-12)
(0,0,0)
(0,0,0)
(0,0,0)
(0,0,0)
(0,0,0)
(0,0,0)
(1.11071111924369e-12,4.54046384252826e-12,-3.54695063272121e-11)
(-1.36253438740947e-13,1.02260146571121e-11,-3.4282481543811e-11)
(-2.30572206648487e-12,1.69994228424109e-11,-3.23265013889945e-11)
(-3.06180305556139e-12,2.76664981337202e-11,-3.00794694087619e-11)
(-3.60393493809641e-12,4.66845703243181e-11,-2.64485392812175e-11)
(-2.97382351952428e-12,7.92548170114879e-11,-2.20365150666249e-11)
(-1.33818136491347e-12,1.34351954178042e-10,-1.80915522975738e-11)
(-4.12237946224731e-13,2.25122404449983e-10,-1.3810608810967e-11)
(-9.37802020977568e-14,3.71431854427795e-10,-9.42315309962348e-12)
(-4.11774496285832e-13,5.75174439265486e-10,-4.81533331606493e-12)
(0,0,0)
(0,0,0)
(0,0,0)
(0,0,0)
(0,0,0)
(0,0,0)
(1.93425120086883e-12,3.44754753023198e-12,-5.56578777530188e-11)
(1.08569929283064e-12,8.02446201718294e-12,-5.4569840305553e-11)
(-7.29337400722593e-13,1.39403343079185e-11,-5.28585682891199e-11)
(-1.10284438494182e-12,2.3275093202786e-11,-5.0687629361084e-11)
(-1.64764098171174e-12,4.0989349394645e-11,-4.69684295674696e-11)
(-1.89258605435825e-12,7.35981793226983e-11,-4.22328415578815e-11)
(-7.94671197687158e-13,1.29596898653879e-10,-3.71513822986715e-11)
(-6.8539087232068e-13,2.21834896739195e-10,-2.94924550716796e-11)
(-5.07335571957485e-13,3.6816890463467e-10,-2.06133838214731e-11)
(9.09448192559689e-14,5.70897918287258e-10,-1.06249671049838e-11)
(0,0,0)
(0,0,0)
(0,0,0)
(0,0,0)
(0,0,0)
(0,0,0)
(1.68977075641218e-12,2.53062090693487e-12,-8.67744222397893e-11)
(1.46547738165669e-12,5.83854186100231e-12,-8.60877438030475e-11)
(1.12512006052856e-12,1.07056702303939e-11,-8.49389815860296e-11)
(2.41285992145605e-12,1.87638621468204e-11,-8.30762269587901e-11)
(2.59276450511941e-12,3.51151544113372e-11,-7.95591973602516e-11)
(1.92649847149399e-12,6.69909418599722e-11,-7.45100384707376e-11)
(1.7108250977373e-12,1.23570067726185e-10,-6.75139915065233e-11)
(2.45344513567517e-13,2.14824352341889e-10,-5.64032303895763e-11)
(-6.51882279670909e-13,3.59679990565654e-10,-4.1087074931802e-11)
(-1.07574025457248e-13,5.6114403681148e-10,-2.18285598372356e-11)
(0,0,0)
(0,0,0)
(0,0,0)
(0,0,0)
(0,0,0)
(0,0,0)
(-5.60628802427288e-13,1.95333390445743e-12,-1.38077802466947e-10)
(2.59647318368128e-13,4.18881177244073e-12,-1.37681854028884e-10)
(2.20058337410401e-12,7.89772941965069e-12,-1.36939902735949e-10)
(5.31206379415332e-12,1.46856098891101e-11,-1.35344774437694e-10)
(7.2813680300785e-12,2.94517613974241e-11,-1.32314458334449e-10)
(7.2114090690622e-12,5.88748173736794e-11,-1.26723168122439e-10)
(5.99903321925586e-12,1.12896107186152e-10,-1.16468892863062e-10)
(4.05341492776349e-12,2.00321056110897e-10,-1.00441177279015e-10)
(2.64781616582178e-12,3.41209416033325e-10,-7.53957474229042e-11)
(3.15060245700142e-12,5.40320499495566e-10,-4.11964642172766e-11)
(0,0,0)
(0,0,0)
(0,0,0)
(0,0,0)
(0,0,0)
(0,0,0)
(-2.23635635744134e-12,1.32987224581221e-12,-2.24840691749471e-10)
(-9.60131852126354e-13,2.90085248400076e-12,-2.24861730057708e-10)
(2.30083423732466e-12,5.91615913801163e-12,-2.24225719855089e-10)
(6.73729752483014e-12,1.18643477564838e-11,-2.22002399940173e-10)
(1.01723720827481e-11,2.47287800500763e-11,-2.18419759879414e-10)
(1.11281863413869e-11,5.0476417908848e-11,-2.11605664030977e-10)
(9.71571687236132e-12,9.73046967830005e-11,-1.98066855574184e-10)
(7.16863715755621e-12,1.75436873555862e-10,-1.74056977797841e-10)
(6.05404204957226e-12,3.0717988199333e-10,-1.34953550835654e-10)
(6.33435395052648e-12,5.00099870204413e-10,-7.67233197625499e-11)
(0,0,0)
(0,0,0)
(0,0,0)
(0,0,0)
(0,0,0)
(0,0,0)
(-3.42257316543766e-12,7.22818748275453e-13,-3.68987799696537e-10)
(-2.36391498348208e-12,1.74208988159248e-12,-3.69310165539319e-10)
(1.6845929253558e-12,3.8517677538149e-12,-3.68957489262051e-10)
(7.36612022116186e-12,8.59749261115214e-12,-3.66724678850726e-10)
(1.22291749029002e-11,1.8152401463011e-11,-3.62663444176979e-10)
(1.33886530502296e-11,3.7647569569097e-11,-3.54235360465764e-10)
(1.21420325887852e-11,7.33177398268172e-11,-3.36884656912168e-10)
(9.18709031533274e-12,1.35589268371303e-10,-3.03842883656407e-10)
(8.34757772710703e-12,2.48102804401063e-10,-2.45866943059085e-10)
(9.19623814539316e-12,4.230339838022e-10,-1.48117679143871e-10)
(0,0,0)
(0,0,0)
(0,0,0)
(0,0,0)
(0,0,0)
(0,0,0)
(-5.42797330803862e-12,3.69851157858921e-13,-5.73132999152375e-10)
(-4.93641851974445e-12,9.11239463880077e-13,-5.73550844738622e-10)
(4.68853875554695e-13,1.98479199986582e-12,-5.72983673593426e-10)
(6.87733225418246e-12,4.82129913035957e-12,-5.70392536643355e-10)
(1.26688508667466e-11,9.70690958233858e-12,-5.65533611091529e-10)
(1.47862828650617e-11,2.01635365291699e-11,-5.56021438207624e-10)
(1.39935885547419e-11,4.01133928074668e-11,-5.36371843299941e-10)
(1.07368142438341e-11,7.67748217246671e-11,-4.96490945662974e-10)
(9.80632395973511e-12,1.49328380696593e-10,-4.20594813868171e-10)
(1.12749302228125e-11,2.74056199962698e-10,-2.72587522167427e-10)
(0,0,0)
(0,0,0)
(0,0,0)
(0,0,0)
(0,0,0)
(0,0,0)
(0,0,0)
(0,0,0)
(0,0,0)
(0,0,0)
(0,0,0)
(0,0,0)
(0,0,0)
(0,0,0)
(0,0,0)
(0,0,0)
(0,0,0)
(0,0,0)
(0,0,0)
(0,0,0)
(0,0,0)
(0,0,0)
(0,0,0)
(0,0,0)
(0,0,0)
(0,0,0)
(0,0,0)
(0,0,0)
(0,0,0)
(0,0,0)
(0,0,0)
(0,0,0)
(0,0,0)
(0,0,0)
(0,0,0)
(0,0,0)
(0,0,0)
(0,0,0)
(0,0,0)
(0,0,0)
(0,0,0)
(0,0,0)
(0,0,0)
(0,0,0)
(0,0,0)
(0,0,0)
(0,0,0)
(0,0,0)
(0,0,0)
(0,0,0)
(0,0,0)
(0,0,0)
(0,0,0)
(0,0,0)
(0,0,0)
(0,0,0)
(0,0,0)
(0,0,0)
(0,0,0)
(0,0,0)
(0,0,0)
(0,0,0)
(0,0,0)
(0,0,0)
(0,0,0)
(0,0,0)
(0,0,0)
(0,0,0)
(0,0,0)
(0,0,0)
(0,0,0)
(0,0,0)
(0,0,0)
(0,0,0)
(0,0,0)
(0,0,0)
(0,0,0)
(0,0,0)
(0,0,0)
(0,0,0)
(0,0,0)
(0,0,0)
(0,0,0)
(0,0,0)
(0,0,0)
(0,0,0)
(0,0,0)
(0,0,0)
(0,0,0)
(0,0,0)
(0,0,0)
(0,0,0)
(0,0,0)
(0,0,0)
(0,0,0)
(0,0,0)
(0,0,0)
(0,0,0)
(0,0,0)
(0,0,0)
(0,0,0)
(0,0,0)
(-6.2614312128637e-13,1.23919220782979e-11,-1.21837432946811e-11)
(-1.37714232222794e-12,2.55944884828061e-11,-1.1594510852775e-11)
(-1.90537739634026e-12,4.15078031702596e-11,-1.03210777730781e-11)
(-1.51422502504264e-12,6.35929004231031e-11,-8.37983278043697e-12)
(-4.81694525467538e-13,9.82877459262502e-11,-5.73449423809035e-12)
(8.04636368602501e-13,1.53754427393545e-10,-3.41483978503849e-12)
(1.77034173499296e-12,2.43526190248837e-10,-1.48652459939236e-12)
(1.63002002985955e-12,3.95548079195466e-10,-5.68568089301834e-13)
(2.12119667105746e-12,6.86387410116682e-10,-3.82958141968551e-13)
(2.05056135053316e-12,1.35841794597384e-09,-2.79271871648887e-13)
(0,0,0)
(0,0,0)
(0,0,0)
(0,0,0)
(0,0,0)
(0,0,0)
(-7.50548344386396e-13,1.17054119241794e-11,-2.66095881500053e-11)
(-1.85042024434982e-12,2.40927484827935e-11,-2.49353104068162e-11)
(-2.8629947662962e-12,3.93814125948559e-11,-2.23144330312918e-11)
(-2.53901872459528e-12,6.08653858847082e-11,-1.88207675776424e-11)
(-1.35377387717048e-12,9.54887072549257e-11,-1.40178645262931e-11)
(2.60171087772126e-13,1.51559898705758e-10,-8.96110665015185e-12)
(1.39424086671955e-12,2.42313464393089e-10,-4.20427431884189e-12)
(1.79718726949178e-12,3.95435449823811e-10,-1.88986002400938e-12)
(2.05460180455754e-12,6.87026835075061e-10,-1.05071197874696e-12)
(1.12634823975885e-12,1.35875027839742e-09,-6.38147718556034e-13)
(0,0,0)
(0,0,0)
(0,0,0)
(0,0,0)
(0,0,0)
(0,0,0)
(-7.98530716392012e-14,9.94087188687231e-12,-4.21543906028465e-11)
(-1.19611380974841e-12,2.12358572109703e-11,-4.04002732838894e-11)
(-2.61719931467493e-12,3.54906962232996e-11,-3.68607506479729e-11)
(-2.8819752488462e-12,5.58029446728702e-11,-3.19839711975893e-11)
(-2.27630150086922e-12,8.99408946993519e-11,-2.56864929141825e-11)
(-8.26328455961779e-13,1.46548673989949e-10,-1.7964980076049e-11)
(6.81641814484516e-14,2.39862970549767e-10,-1.0091663528488e-11)
(5.84570887575768e-13,3.95356638769503e-10,-6.10943226331737e-12)
(7.78083482016636e-13,6.87889350222633e-10,-4.42010891465102e-12)
(7.36565723909475e-14,1.35923367583112e-09,-2.54315590598626e-12)
(0,0,0)
(0,0,0)
(0,0,0)
(0,0,0)
(0,0,0)
(0,0,0)
(1.01660264813803e-12,8.07193194455923e-12,-6.52903403127066e-11)
(1.09319046371906e-13,1.74811388680554e-11,-6.335957693998e-11)
(-1.49366551223149e-12,2.99354645517048e-11,-5.96955746043779e-11)
(-2.30132825216902e-12,4.85451847035542e-11,-5.46107515855351e-11)
(-2.32073822302529e-12,8.10108889459411e-11,-4.73079415033645e-11)
(-1.26214859976013e-12,1.37660022271092e-10,-3.74238075927733e-11)
(-8.64069327404381e-13,2.35057903855272e-10,-2.68241290195304e-11)
(-1.51218594682822e-12,3.95170286866615e-10,-2.00407663445994e-11)
(-1.43865019232851e-12,6.88086786085019e-10,-1.46200735996441e-11)
(-9.50586834045226e-13,1.35866796026354e-09,-8.03175703060443e-12)
(0,0,0)
(0,0,0)
(0,0,0)
(0,0,0)
(0,0,0)
(0,0,0)
(1.76314037669976e-12,5.99138193976166e-12,-1.00142971527393e-10)
(1.56034743257531e-12,1.33780474956035e-11,-9.83840626279529e-11)
(3.34387748761538e-13,2.38657067489282e-11,-9.51235643028976e-11)
(-3.10813122584801e-13,3.97507546205144e-11,-9.04002979274504e-11)
(-5.09034007968307e-13,6.8925135267269e-11,-8.38095949368262e-11)
(-3.66807850888617e-13,1.23634227490468e-10,-7.5607878540574e-11)
(-2.42676749693669e-12,2.24100082062721e-10,-6.78536364595252e-11)
(-2.55391772516175e-12,3.91969620961555e-10,-5.23607015167939e-11)
(-2.00683821936738e-12,6.84571473677073e-10,-3.65177604157683e-11)
(-7.80140810259179e-13,1.35341996942816e-09,-1.90126868563852e-11)
(0,0,0)
(0,0,0)
(0,0,0)
(0,0,0)
(0,0,0)
(0,0,0)
(1.58037932214761e-12,4.18163754876121e-12,-1.52717053707157e-10)
(1.96644525320125e-12,9.58712584677944e-12,-1.51917593994661e-10)
(2.07030624403228e-12,1.80003577488456e-11,-1.49889867099786e-10)
(2.97408258062416e-12,3.1169241275401e-11,-1.46014795724043e-10)
(3.20699862952468e-12,5.68741394340028e-11,-1.4054611878616e-10)
(3.04657599357807e-12,1.09450260779944e-10,-1.33010636359358e-10)
(1.27402452081159e-12,2.15362454535095e-10,-1.22416082798118e-10)
(-5.67514713211972e-13,3.81459386663596e-10,-1.01974220410215e-10)
(-1.43982284185642e-12,6.70832729408357e-10,-7.37160937847861e-11)
(-1.11259654649278e-12,1.33724839422904e-09,-3.89481869759533e-11)
(0,0,0)
(0,0,0)
(0,0,0)
(0,0,0)
(0,0,0)
(0,0,0)
(-3.33115581844731e-13,2.93560096239595e-12,-2.38936490660536e-10)
(8.05655313872217e-13,6.57931400322946e-12,-2.38799292399194e-10)
(2.58702535748813e-12,1.30128592421093e-11,-2.37908302971691e-10)
(5.10300982353428e-12,2.37774148131823e-11,-2.3547579123704e-10)
(6.41305916542049e-12,4.5466091540541e-11,-2.31789162335037e-10)
(5.35553327453628e-12,9.21592335201399e-11,-2.2446813978731e-10)
(5.5627280383216e-12,1.96006765385009e-10,-2.05837275149692e-10)
(3.89216762673328e-12,3.56099552233715e-10,-1.80310526520461e-10)
(2.47806699986992e-12,6.38467683680394e-10,-1.33964061976207e-10)
(2.17476753124578e-12,1.30002588586198e-09,-7.24360527739243e-11)
(0,0,0)
(0,0,0)
(0,0,0)
(0,0,0)
(0,0,0)
(0,0,0)
(-1.60826455166847e-12,1.91756201352077e-12,-3.89192466648053e-10)
(-4.37379452335998e-13,4.35208263633114e-12,-3.89721965999033e-10)
(2.14190570660599e-12,9.60971901518271e-12,-3.89444376562409e-10)
(6.42151260940361e-12,1.91493793997098e-11,-3.87014150659742e-10)
(9.93465482135831e-12,3.8928262055657e-11,-3.82822944507503e-10)
(1.04182262243532e-11,8.20210761975939e-11,-3.73733739857141e-10)
(9.69279605220071e-12,1.69898088001622e-10,-3.5277883908623e-10)
(7.91281537982139e-12,3.0961150681687e-10,-3.10251480884464e-10)
(6.90088856886928e-12,5.77238150234267e-10,-2.39728227657143e-10)
(6.67692058976857e-12,1.22811078393362e-09,-1.36638794495768e-10)
(0,0,0)
(0,0,0)
(0,0,0)
(0,0,0)
(0,0,0)
(0,0,0)
(-2.74723973223973e-12,1.21747356436167e-12,-6.79793136198483e-10)
(-1.88574084303632e-12,2.74948566218143e-12,-6.80606586670132e-10)
(1.31875826798134e-12,6.33005370789524e-12,-6.80616641700899e-10)
(7.08107902820929e-12,1.40581780689225e-11,-6.78170831368355e-10)
(1.22465830723679e-11,2.97528485021011e-11,-6.7236081832188e-10)
(1.35219825365444e-11,6.30984307268574e-11,-6.58962795822519e-10)
(1.23046063523784e-11,1.26867617915407e-10,-6.30118772573486e-10)
(1.0025596364643e-11,2.38045700825203e-10,-5.72924490078395e-10)
(9.37273751630253e-12,4.73492415192282e-10,-4.71824046780039e-10)
(1.00563428412931e-11,1.09124985178807e-09,-2.95759735866817e-10)
(0,0,0)
(0,0,0)
(0,0,0)
(0,0,0)
(0,0,0)
(0,0,0)
(-4.64027656393288e-12,7.58045752514034e-13,-1.35179606291729e-09)
(-4.59235020106042e-12,1.47382532055783e-12,-1.35265458456951e-09)
(-1.37491074651215e-13,3.32101898354183e-12,-1.3526971480121e-09)
(6.83970583271658e-12,7.88813057046195e-12,-1.34992278746822e-09)
(1.2863587565177e-11,1.6401061208128e-11,-1.34235826170388e-09)
(1.53002244865451e-11,3.44688898282605e-11,-1.32587647700272e-09)
(1.42260837252344e-11,6.91210918670471e-11,-1.29150999735559e-09)
(1.16155041737064e-11,1.35576174956341e-10,-1.22283723977709e-09)
(1.11274129555826e-11,2.96381894444591e-10,-1.08896955149729e-09)
(1.2743608018127e-11,7.95171652077263e-10,-7.94304870561925e-10)
(0,0,0)
(0,0,0)
(0,0,0)
(0,0,0)
(0,0,0)
(0,0,0)
(0,0,0)
(0,0,0)
(0,0,0)
(0,0,0)
(0,0,0)
(0,0,0)
(0,0,0)
(0,0,0)
(0,0,0)
(0,0,0)
(0,0,0)
(0,0,0)
(0,0,0)
(0,0,0)
(0,0,0)
(0,0,0)
(0,0,0)
(0,0,0)
(0,0,0)
(0,0,0)
(0,0,0)
(0,0,0)
(0,0,0)
(0,0,0)
(0,0,0)
(0,0,0)
(0,0,0)
(0,0,0)
(0,0,0)
(0,0,0)
(0,0,0)
(0,0,0)
(0,0,0)
(0,0,0)
(0,0,0)
(0,0,0)
(0,0,0)
(0,0,0)
(0,0,0)
(0,0,0)
(0,0,0)
(0,0,0)
(0,0,0)
(0,0,0)
(0,0,0)
(0,0,0)
(0,0,0)
(0,0,0)
(0,0,0)
(0,0,0)
(0,0,0)
(0,0,0)
(0,0,0)
(0,0,0)
(0,0,0)
(0,0,0)
(0,0,0)
(0,0,0)
(0,0,0)
(0,0,0)
(0,0,0)
(0,0,0)
(0,0,0)
(0,0,0)
(0,0,0)
(0,0,0)
(0,0,0)
(0,0,0)
(0,0,0)
(0,0,0)
(0,0,0)
(0,0,0)
(0,0,0)
(0,0,0)
(0,0,0)
(0,0,0)
(0,0,0)
(0,0,0)
(0,0,0)
(0,0,0)
(0,0,0)
(0,0,0)
(0,0,0)
(0,0,0)
(0,0,0)
(0,0,0)
(0,0,0)
(0,0,0)
(0,0,0)
(0,0,0)
(0,0,0)
(0,0,0)
(0,0,0)
(0,0,0)
(0,0,0)
(0,0,0)
(-5.28865408968832e-13,1.57900735933148e-11,-1.67029190028929e-11)
(-1.14883540241412e-12,3.33813594069848e-11,-1.60442403141264e-11)
(-1.72023181313108e-12,5.4175963503214e-11,-1.43163924535869e-11)
(-1.43204902854473e-12,8.38934075301879e-11,-1.18327216560547e-11)
(-2.31030765699362e-15,1.2626920528746e-10,-8.06284431111018e-12)
(1.07084987100459e-12,1.8940782530093e-10,-3.61949897112531e-12)
(2.06511108021778e-12,2.85157370529208e-10,6.46844604985333e-14)
(1.55703945415519e-12,4.24544833796706e-10,1.40612376934872e-12)
(1.37808544224966e-12,6.22276985779052e-10,9.04404407268363e-13)
(1.43895705555223e-12,8.64970888507822e-10,1.17637084941323e-13)
(0,0,0)
(0,0,0)
(0,0,0)
(0,0,0)
(0,0,0)
(0,0,0)
(-6.60286049937391e-13,1.5168480366309e-11,-3.7276759311396e-11)
(-1.61440634870832e-12,3.13836700015465e-11,-3.5278455090658e-11)
(-2.4659438487886e-12,5.11497332660537e-11,-3.15706167370016e-11)
(-2.27948056386053e-12,7.97266093706745e-11,-2.63409554869283e-11)
(-8.62719197169603e-13,1.21964135379315e-10,-1.83437361411886e-11)
(5.14563472261137e-13,1.8641932587545e-10,-8.39632343941824e-12)
(1.53032041386212e-12,2.84805197168743e-10,7.25347322297758e-13)
(1.03685028024993e-12,4.26011609647543e-10,3.27085958118503e-12)
(7.79522396230721e-13,6.24181992621329e-10,2.31746167136014e-12)
(4.80308781123226e-15,8.66573908372315e-10,8.427779332797e-13)
(0,0,0)
(0,0,0)
(0,0,0)
(0,0,0)
(0,0,0)
(0,0,0)
(3.49695511459226e-14,1.31241379484174e-11,-5.89787250369819e-11)
(-9.80918102101937e-13,2.73057031417687e-11,-5.65588640232151e-11)
(-1.93874709325751e-12,4.51725616076279e-11,-5.12607187909415e-11)
(-1.92169356308325e-12,7.12760699467316e-11,-4.35522892083785e-11)
(-1.06780858571932e-12,1.12299595725333e-10,-3.21318695533337e-11)
(1.89006714889962e-13,1.78181170179076e-10,-1.62616918327834e-11)
(8.90999611806787e-13,2.83835994709918e-10,1.17278134552415e-12)
(-9.18400558644552e-13,4.29464460747135e-10,3.6402414713457e-12)
(-1.29630538876707e-12,6.27824467666044e-10,1.04218816878116e-12)
(-1.90378376648233e-12,8.69412491969884e-10,-2.46096013594213e-13)
(0,0,0)
(0,0,0)
(0,0,0)
(0,0,0)
(0,0,0)
(0,0,0)
(1.1663892796673e-12,1.05121190312906e-11,-8.76165682683328e-11)
(5.48408083915476e-13,2.17836454006696e-11,-8.49022844538597e-11)
(-5.08730728643605e-13,3.67818518993053e-11,-7.93656702738232e-11)
(-8.09708251574263e-13,5.9145625227108e-11,-7.118785277246e-11)
(-1.19118454421617e-13,9.58835299852636e-11,-5.8085440053054e-11)
(2.16396760769853e-12,1.6048731918221e-10,-3.77135381525084e-11)
(3.31038979009344e-12,2.80273968981259e-10,-9.96887104449866e-12)
(-3.73221278716408e-12,4.37080648103551e-10,-8.65817452883494e-12)
(-4.51165435305509e-12,6.33242324314162e-10,-9.96357282550378e-12)
(-3.73435302908569e-12,8.72146776044532e-10,-6.67502942103421e-12)
(0,0,0)
(0,0,0)
(0,0,0)
(0,0,0)
(0,0,0)
(0,0,0)
(1.81397586875486e-12,7.3399628622136e-12,-1.28430400955736e-10)
(2.09077075632002e-12,1.58679624627271e-11,-1.26227089826537e-10)
(1.47647037308075e-12,2.77330241612203e-11,-1.21666574887474e-10)
(1.67999723149272e-12,4.47457338549993e-11,-1.14544432982539e-10)
(3.34024543001859e-12,7.30578037543206e-11,-1.03763050985134e-10)
(6.06291677803425e-12,1.26308871194611e-10,-9.087177511287e-11)
(-9.1820749120196e-12,2.49515697470332e-10,-9.56968864683272e-11)
(-7.88662452875491e-12,4.46368471928601e-10,-6.10349804015303e-11)
(-5.77316750890333e-12,6.36342768974127e-10,-4.10011087136354e-11)
(-3.62125246808137e-12,8.69617040209422e-10,-2.13684527421019e-11)
(0,0,0)
(0,0,0)
(0,0,0)
(0,0,0)
(0,0,0)
(0,0,0)
(2.02695619606048e-12,4.59804939144617e-12,-1.89001359880443e-10)
(2.94653020191021e-12,1.05812781046635e-11,-1.87773751415614e-10)
(3.1827333747278e-12,1.92141489792476e-11,-1.84752749028254e-10)
(4.89723210579991e-12,3.10068040459446e-11,-1.79682918751652e-10)
(7.07956409549519e-12,5.16899076121344e-11,-1.72361932752911e-10)
(9.74304969227279e-12,1.00724513621684e-10,-1.62768651189803e-10)
(1.87851283216646e-13,2.57021946402143e-10,-1.59773908619729e-10)
(-3.46580690937626e-12,4.41098153031135e-10,-1.2707285647838e-10)
(-3.8426839224484e-12,6.2334448111368e-10,-8.86661637620026e-11)
(-2.8382751555582e-12,8.5230884104584e-10,-4.58403914073643e-11)
(0,0,0)
(0,0,0)
(0,0,0)
(0,0,0)
(0,0,0)
(0,0,0)
(5.47725106026388e-13,2.68529330939277e-12,-2.80079918168639e-10)
(2.14189725355693e-12,6.34115172526057e-12,-2.79497807916579e-10)
(3.55765384917572e-12,1.22326651885097e-11,-2.78155210908615e-10)
(6.04441633546106e-12,1.96801974595587e-11,-2.76493002644216e-10)
(5.62986610256345e-12,3.12063170837834e-11,-2.76176157617414e-10)
(-3.13717404070527e-12,6.1757376242748e-11,-2.78022742961743e-10)
(6.14465679269767e-12,2.31580750545736e-10,-2.40234746466962e-10)
(4.03374849906041e-12,4.11631041300477e-10,-2.29715082115664e-10)
(2.17959124397939e-12,5.84375695009093e-10,-1.60459911501056e-10)
(1.65381668571396e-12,8.08369299961377e-10,-8.29207123879835e-11)
(0,0,0)
(0,0,0)
(0,0,0)
(0,0,0)
(0,0,0)
(0,0,0)
(-3.78676751266502e-13,1.16283837722799e-12,-4.15359903640509e-10)
(8.87628084950803e-13,3.59097555996857e-12,-4.15933726881489e-10)
(2.99134511085129e-12,8.61601722718678e-12,-4.15915155826434e-10)
(7.32150778866054e-12,1.6181794304579e-11,-4.1521018601022e-10)
(1.00208637241611e-11,3.20624580637605e-11,-4.15198071275992e-10)
(8.38597092407995e-12,7.76802300129859e-11,-4.15343900578212e-10)
(1.01959079373033e-11,2.09870413452782e-10,-4.02949056245064e-10)
(8.95536814305022e-12,3.40730005249155e-10,-3.43222595397514e-10)
(7.55719044968926e-12,5.06400810953899e-10,-2.51191253626283e-10)
(6.89905823986396e-12,7.24983510873377e-10,-1.35994940600872e-10)
(0,0,0)
(0,0,0)
(0,0,0)
(0,0,0)
(0,0,0)
(0,0,0)
(-1.47436144916281e-12,7.34960216811125e-13,-6.12661456103655e-10)
(-6.00025470796474e-13,2.42222338464223e-12,-6.13362086443951e-10)
(1.88198265992726e-12,6.12194503411501e-12,-6.13614053042379e-10)
(7.44111348006666e-12,1.3369459530301e-11,-6.12621138813284e-10)
(1.22003478676026e-11,2.89339429284689e-11,-6.08971795453047e-10)
(1.33075001861878e-11,6.73458176259962e-11,-5.98877182092001e-10)
(1.28568499053979e-11,1.47795783183157e-10,-5.7063395904463e-10)
(1.13946789348218e-11,2.46929962964048e-10,-5.01295737332613e-10)
(1.04189473510311e-11,3.8992981006909e-10,-3.89349585211047e-10)
(1.03748066851318e-11,5.87984241206447e-10,-2.24576857876494e-10)
(0,0,0)
(0,0,0)
(0,0,0)
(0,0,0)
(0,0,0)
(0,0,0)
(-3.02370915953959e-12,6.86692178475153e-13,-8.5612380215429e-10)
(-3.07596143838696e-12,1.52305542419442e-12,-8.56477271252691e-10)
(4.09167365455195e-13,3.51017833421219e-12,-8.56817976949278e-10)
(7.16331063817588e-12,7.86275725749987e-12,-8.55053218952097e-10)
(1.27828640727055e-11,1.688821582013e-11,-8.48462013731569e-10)
(1.54026346672182e-11,3.79119022825566e-11,-8.32299083412716e-10)
(1.46744180142528e-11,7.74425705843717e-11,-7.94392190207493e-10)