/*--------------------------------*- C++ -*----------------------------------*\
| =========                 |                                                 |
| \\      /  F ield         | foam-extend: Open Source CFD                    |
|  \\    /   O peration     | Version:     4.0                                |
|   \\  /    A nd           | Web:         http://www.foam-extend.org         |
|    \\/     M anipulation  |                                                 |
\*---------------------------------------------------------------------------*/
FoamFile
{
    version 2.0;
    format ascii;
    class volVectorField;
    location "3207";
    object      H;
}
// * * * * * * * * * * * * * * * * * * * * * * * * * * * * * * * * * * * * * //

dimensions      [0 1 -1 0 0 0 0];

internalField   nonuniform List<vector>
4096
(
(0,0,0)
(0,0,0)
(0,0,0)
(0,0,0)
(0,0,0)
(0,0,0)
(0,0,0)
(0,0,0)
(0,0,0)
(0,0,0)
(0,0,0)
(0,0,0)
(0,0,0)
(0,0,0)
(0,0,0)
(0,0,0)
(0,0,0)
(0,0,0)
(0,0,0)
(0,0,0)
(0,0,0)
(0,0,0)
(0,0,0)
(0,0,0)
(0,0,0)
(0,0,0)
(0,0,0)
(0,0,0)
(0,0,0)
(0,0,0)
(0,0,0)
(0,0,0)
(0,0,0)
(0,0,0)
(0,0,0)
(0,0,0)
(0,0,0)
(0,0,0)
(0,0,0)
(0,0,0)
(0,0,0)
(0,0,0)
(0,0,0)
(0,0,0)
(0,0,0)
(0,0,0)
(0,0,0)
(0,0,0)
(0,0,0)
(0,0,0)
(0,0,0)
(0,0,0)
(0,0,0)
(0,0,0)
(0,0,0)
(0,0,0)
(0,0,0)
(0,0,0)
(0,0,0)
(0,0,0)
(0,0,0)
(0,0,0)
(0,0,0)
(0,0,0)
(0,0,0)
(0,0,0)
(0,0,0)
(0,0,0)
(0,0,0)
(0,0,0)
(0,0,0)
(0,0,0)
(0,0,0)
(0,0,0)
(0,0,0)
(0,0,0)
(0,0,0)
(0,0,0)
(0,0,0)
(0,0,0)
(0,0,0)
(0,0,0)
(0,0,0)
(0,0,0)
(0,0,0)
(0,0,0)
(0,0,0)
(0,0,0)
(0,0,0)
(0,0,0)
(0,0,0)
(0,0,0)
(0,0,0)
(0,0,0)
(0,0,0)
(0,0,0)
(0,0,0)
(0,0,0)
(0,0,0)
(0,0,0)
(0,0,0)
(0,0,0)
(0,0,0)
(0,0,0)
(0,0,0)
(0,0,0)
(0,0,0)
(0,0,0)
(0,0,0)
(0,0,0)
(0,0,0)
(0,0,0)
(0,0,0)
(0,0,0)
(0,0,0)
(0,0,0)
(0,0,0)
(0,0,0)
(0,0,0)
(0,0,0)
(0,0,0)
(0,0,0)
(0,0,0)
(0,0,0)
(0,0,0)
(0,0,0)
(0,0,0)
(0,0,0)
(0,0,0)
(0,0,0)
(0,0,0)
(0,0,0)
(0,0,0)
(0,0,0)
(0,0,0)
(0,0,0)
(0,0,0)
(0,0,0)
(0,0,0)
(0,0,0)
(0,0,0)
(0,0,0)
(0,0,0)
(0,0,0)
(0,0,0)
(0,0,0)
(0,0,0)
(0,0,0)
(0,0,0)
(0,0,0)
(0,0,0)
(0,0,0)
(0,0,0)
(0,0,0)
(0,0,0)
(0,0,0)
(0,0,0)
(0,0,0)
(0,0,0)
(0,0,0)
(0,0,0)
(0,0,0)
(0,0,0)
(0,0,0)
(0,0,0)
(0,0,0)
(0,0,0)
(0,0,0)
(0,0,0)
(0,0,0)
(0,0,0)
(0,0,0)
(0,0,0)
(0,0,0)
(0,0,0)
(0,0,0)
(0,0,0)
(0,0,0)
(0,0,0)
(0,0,0)
(0,0,0)
(0,0,0)
(0,0,0)
(0,0,0)
(0,0,0)
(0,0,0)
(0,0,0)
(0,0,0)
(0,0,0)
(0,0,0)
(0,0,0)
(0,0,0)
(0,0,0)
(0,0,0)
(0,0,0)
(0,0,0)
(0,0,0)
(0,0,0)
(0,0,0)
(0,0,0)
(0,0,0)
(0,0,0)
(0,0,0)
(0,0,0)
(0,0,0)
(0,0,0)
(0,0,0)
(0,0,0)
(0,0,0)
(0,0,0)
(0,0,0)
(0,0,0)
(0,0,0)
(0,0,0)
(0,0,0)
(0,0,0)
(0,0,0)
(0,0,0)
(0,0,0)
(0,0,0)
(0,0,0)
(0,0,0)
(0,0,0)
(0,0,0)
(0,0,0)
(0,0,0)
(0,0,0)
(0,0,0)
(0,0,0)
(0,0,0)
(0,0,0)
(0,0,0)
(0,0,0)
(0,0,0)
(0,0,0)
(0,0,0)
(0,0,0)
(0,0,0)
(0,0,0)
(0,0,0)
(0,0,0)
(0,0,0)
(0,0,0)
(0,0,0)
(0,0,0)
(0,0,0)
(0,0,0)
(0,0,0)
(0,0,0)
(0,0,0)
(0,0,0)
(0,0,0)
(0,0,0)
(0,0,0)
(0,0,0)
(0,0,0)
(0,0,0)
(0,0,0)
(0,0,0)
(0,0,0)
(0,0,0)
(0,0,0)
(0,0,0)
(0,0,0)
(0,0,0)
(0,0,0)
(0,0,0)
(0,0,0)
(0,0,0)
(0,0,0)
(0,0,0)
(0,0,0)
(0,0,0)
(0,0,0)
(0,0,0)
(0,0,0)
(0,0,0)
(0,0,0)
(0,0,0)
(0,0,0)
(0,0,0)
(0,0,0)
(0,0,0)
(0,0,0)
(0,0,0)
(0,0,0)
(0,0,0)
(0,0,0)
(0,0,0)
(0,0,0)
(0,0,0)
(0,0,0)
(0,0,0)
(0,0,0)
(0,0,0)
(0,0,0)
(0,0,0)
(0,0,0)
(0,0,0)
(0,0,0)
(0,0,0)
(0,0,0)
(0,0,0)
(0,0,0)
(0,0,0)
(0,0,0)
(0,0,0)
(0,0,0)
(0,0,0)
(0,0,0)
(0,0,0)
(0,0,0)
(0,0,0)
(0,0,0)
(0,0,0)
(0,0,0)
(0,0,0)
(0,0,0)
(0,0,0)
(0,0,0)
(0,0,0)
(0,0,0)
(0,0,0)
(0,0,0)
(0,0,0)
(0,0,0)
(0,0,0)
(0,0,0)
(0,0,0)
(0,0,0)
(0,0,0)
(0,0,0)
(0,0,0)
(0,0,0)
(0,0,0)
(0,0,0)
(0,0,0)
(0,0,0)
(0,0,0)
(0,0,0)
(0,0,0)
(0,0,0)
(0,0,0)
(0,0,0)
(0,0,0)
(0,0,0)
(0,0,0)
(0,0,0)
(0,0,0)
(0,0,0)
(0,0,0)
(0,0,0)
(0,0,0)
(0,0,0)
(0,0,0)
(0,0,0)
(0,0,0)
(0,0,0)
(0,0,0)
(0,0,0)
(0,0,0)
(0,0,0)
(0,0,0)
(0,0,0)
(0,0,0)
(0,0,0)
(0,0,0)
(0,0,0)
(0,0,0)
(0,0,0)
(0,0,0)
(0,0,0)
(0,0,0)
(0,0,0)
(0,0,0)
(0,0,0)
(0,0,0)
(0,0,0)
(0,0,0)
(0,0,0)
(0,0,0)
(0,0,0)
(0,0,0)
(0,0,0)
(0,0,0)
(0,0,0)
(0,0,0)
(0,0,0)
(0,0,0)
(0,0,0)
(0,0,0)
(0,0,0)
(0,0,0)
(0,0,0)
(0,0,0)
(0,0,0)
(0,0,0)
(0,0,0)
(0,0,0)
(0,0,0)
(0,0,0)
(0,0,0)
(0,0,0)
(0,0,0)
(0,0,0)
(0,0,0)
(0,0,0)
(0,0,0)
(0,0,0)
(0,0,0)
(0,0,0)
(0,0,0)
(0,0,0)
(0,0,0)
(0,0,0)
(0,0,0)
(0,0,0)
(0,0,0)
(0,0,0)
(0,0,0)
(0,0,0)
(0,0,0)
(0,0,0)
(0,0,0)
(0,0,0)
(0,0,0)
(0,0,0)
(0,0,0)
(0,0,0)
(0,0,0)
(0,0,0)
(0,0,0)
(0,0,0)
(0,0,0)
(0,0,0)
(0,0,0)
(0,0,0)
(0,0,0)
(0,0,0)
(0,0,0)
(0,0,0)
(0,0,0)
(0,0,0)
(0,0,0)
(0,0,0)
(0,0,0)
(0,0,0)
(0,0,0)
(0,0,0)
(0,0,0)
(0,0,0)
(0,0,0)
(0,0,0)
(0,0,0)
(0,0,0)
(0,0,0)
(0,0,0)
(0,0,0)
(0,0,0)
(0,0,0)
(0,0,0)
(0,0,0)
(0,0,0)
(0,0,0)
(0,0,0)
(0,0,0)
(0,0,0)
(0,0,0)
(0,0,0)
(0,0,0)
(0,0,0)
(0,0,0)
(0,0,0)
(0,0,0)
(0,0,0)
(0,0,0)
(0,0,0)
(0,0,0)
(0,0,0)
(0,0,0)
(0,0,0)
(0,0,0)
(0,0,0)
(0,0,0)
(0,0,0)
(0,0,0)
(0,0,0)
(0,0,0)
(0,0,0)
(0,0,0)
(0,0,0)
(0,0,0)
(0,0,0)
(0,0,0)
(0,0,0)
(0,0,0)
(0,0,0)
(0,0,0)
(0,0,0)
(0,0,0)
(0,0,0)
(0,0,0)
(0,0,0)
(0,0,0)
(0,0,0)
(0,0,0)
(0,0,0)
(0,0,0)
(0,0,0)
(0,0,0)
(0,0,0)
(0,0,0)
(0,0,0)
(0,0,0)
(0,0,0)
(0,0,0)
(0,0,0)
(0,0,0)
(0,0,0)
(0,0,0)
(0,0,0)
(0,0,0)
(0,0,0)
(0,0,0)
(0,0,0)
(0,0,0)
(0,0,0)
(0,0,0)
(0,0,0)
(0,0,0)
(0,0,0)
(0,0,0)
(0,0,0)
(0,0,0)
(0,0,0)
(0,0,0)
(0,0,0)
(0,0,0)
(0,0,0)
(0,0,0)
(0,0,0)
(0,0,0)
(0,0,0)
(0,0,0)
(0,0,0)
(0,0,0)
(0,0,0)
(0,0,0)
(0,0,0)
(0,0,0)
(0,0,0)
(0,0,0)
(0,0,0)
(0,0,0)
(0,0,0)
(0,0,0)
(0,0,0)
(0,0,0)
(0,0,0)
(0,0,0)
(0,0,0)
(0,0,0)
(0,0,0)
(0,0,0)
(0,0,0)
(0,0,0)
(0,0,0)
(0,0,0)
(0,0,0)
(0,0,0)
(0,0,0)
(0,0,0)
(0,0,0)
(0,0,0)
(0,0,0)
(0,0,0)
(0,0,0)
(0,0,0)
(0,0,0)
(0,0,0)
(0,0,0)
(0,0,0)
(0,0,0)
(0,0,0)
(0,0,0)
(0,0,0)
(0,0,0)
(0,0,0)
(0,0,0)
(0,0,0)
(0,0,0)
(0,0,0)
(0,0,0)
(0,0,0)
(0,0,0)
(0,0,0)
(0,0,0)
(0,0,0)
(0,0,0)
(0,0,0)
(0,0,0)
(0,0,0)
(0,0,0)
(0,0,0)
(0,0,0)
(0,0,0)
(0,0,0)
(0,0,0)
(0,0,0)
(0,0,0)
(0,0,0)
(0,0,0)
(0,0,0)
(0,0,0)
(0,0,0)
(0,0,0)
(0,0,0)
(0,0,0)
(0,0,0)
(0,0,0)
(0,0,0)
(0,0,0)
(0,0,0)
(0,0,0)
(0,0,0)
(0,0,0)
(0,0,0)
(0,0,0)
(0,0,0)
(0,0,0)
(0,0,0)
(0,0,0)
(0,0,0)
(0,0,0)
(0,0,0)
(0,0,0)
(0,0,0)
(0,0,0)
(0,0,0)
(0,0,0)
(0,0,0)
(0,0,0)
(0,0,0)
(0,0,0)
(0,0,0)
(0,0,0)
(0,0,0)
(0,0,0)
(0,0,0)
(0,0,0)
(0,0,0)
(0,0,0)
(0,0,0)
(0,0,0)
(0,0,0)
(0,0,0)
(0,0,0)
(0,0,0)
(0,0,0)
(0,0,0)
(0,0,0)
(0,0,0)
(0,0,0)
(0,0,0)
(0,0,0)
(0,0,0)
(0,0,0)
(0,0,0)
(0,0,0)
(0,0,0)
(0,0,0)
(0,0,0)
(0,0,0)
(0,0,0)
(0,0,0)
(0,0,0)
(0,0,0)
(0,0,0)
(0,0,0)
(0,0,0)
(0,0,0)
(0,0,0)
(0,0,0)
(0,0,0)
(0,0,0)
(0,0,0)
(0,0,0)
(0,0,0)
(0,0,0)
(0,0,0)
(0,0,0)
(0,0,0)
(0,0,0)
(0,0,0)
(0,0,0)
(0,0,0)
(0,0,0)
(0,0,0)
(0,0,0)
(0,0,0)
(0,0,0)
(0,0,0)
(0,0,0)
(0,0,0)
(0,0,0)
(0,0,0)
(0,0,0)
(0,0,0)
(0,0,0)
(0,0,0)
(0,0,0)
(0,0,0)
(0,0,0)
(0,0,0)
(0,0,0)
(0,0,0)
(0,0,0)
(0,0,0)
(0,0,0)
(0,0,0)
(0,0,0)
(0,0,0)
(0,0,0)
(0,0,0)
(0,0,0)
(0,0,0)
(0,0,0)
(0,0,0)
(0,0,0)
(0,0,0)
(0,0,0)
(0,0,0)
(0,0,0)
(0,0,0)
(0,0,0)
(0,0,0)
(0,0,0)
(0,0,0)
(0,0,0)
(0,0,0)
(0,0,0)
(0,0,0)
(0,0,0)
(0,0,0)
(0,0,0)
(0,0,0)
(0,0,0)
(0,0,0)
(0,0,0)
(0,0,0)
(0,0,0)
(0,0,0)
(0,0,0)
(0,0,0)
(0,0,0)
(0,0,0)
(0,0,0)
(0,0,0)
(0,0,0)
(0,0,0)
(0,0,0)
(0,0,0)
(0,0,0)
(0,0,0)
(0,0,0)
(0,0,0)
(0,0,0)
(0,0,0)
(0,0,0)
(0,0,0)
(0,0,0)
(0,0,0)
(0,0,0)
(0,0,0)
(0,0,0)
(0,0,0)
(0,0,0)
(0,0,0)
(0,0,0)
(0,0,0)
(0,0,0)
(0,0,0)
(0,0,0)
(0,0,0)
(0,0,0)
(0,0,0)
(0,0,0)
(0,0,0)
(0,0,0)
(0,0,0)
(0,0,0)
(0,0,0)
(0,0,0)
(0,0,0)
(0,0,0)
(0,0,0)
(0,0,0)
(0,0,0)
(0,0,0)
(0,0,0)
(0,0,0)
(0,0,0)
(0,0,0)
(0,0,0)
(0,0,0)
(0,0,0)
(0,0,0)
(0,0,0)
(0,0,0)
(0,0,0)
(0,0,0)
(0,0,0)
(0,0,0)
(0,0,0)
(0,0,0)
(0,0,0)
(0,0,0)
(0,0,0)
(0,0,0)
(-5.77819316276288e-14,5.92034539379663e-12,-7.6713452506848e-12)
(2.4615606713315e-13,1.30709554754737e-11,-7.41690150953015e-12)
(5.95039638524817e-13,2.26561521258044e-11,-6.34969729746627e-12)
(6.54856088533387e-13,3.64694866863527e-11,-5.0231357561565e-12)
(1.87541153567328e-12,5.91228134504693e-11,-3.51390508100008e-12)
(3.65394063067394e-12,9.46153844317299e-11,-2.00821462814772e-12)
(5.55691145244743e-12,1.53410172368513e-10,-1.38200065715449e-12)
(5.24748737104148e-12,2.509180940232e-10,-8.74278254336849e-13)
(4.80703518646873e-12,4.13331277114632e-10,-3.39447261242746e-13)
(4.6436526949019e-12,6.39882420394367e-10,-1.32251947320968e-13)
(0,0,0)
(0,0,0)
(0,0,0)
(0,0,0)
(0,0,0)
(0,0,0)
(-1.26195092560026e-12,5.75851308993924e-12,-1.56995406059885e-11)
(-7.70516944671658e-13,1.24682062607201e-11,-1.53392336249397e-11)
(1.01145224752629e-12,2.17808275413373e-11,-1.40749825522632e-11)
(2.03400448434068e-12,3.53152149973029e-11,-1.20453019129093e-11)
(3.74292747960397e-12,5.78093281272743e-11,-9.492504847495e-12)
(5.97239320816479e-12,9.40520297741109e-11,-6.60673890221573e-12)
(8.44516931017075e-12,1.53363099876037e-10,-4.40775535569116e-12)
(8.72660072643414e-12,2.51080852887269e-10,-2.74645856825008e-12)
(8.16109591423578e-12,4.13870661444912e-10,-1.51972029734727e-12)
(7.13441371531253e-12,6.40459387888081e-10,-7.80475510697649e-13)
(0,0,0)
(0,0,0)
(0,0,0)
(0,0,0)
(0,0,0)
(0,0,0)
(-1.52683504859387e-12,5.34668510184612e-12,-2.63276273199732e-11)
(-6.88705428950656e-13,1.15432558914619e-11,-2.60647517507911e-11)
(2.91754714212326e-12,2.00953769844461e-11,-2.47770630441932e-11)
(5.39630409884892e-12,3.29978371505838e-11,-2.21363650250617e-11)
(7.71077755551164e-12,5.48509957460323e-11,-1.85690810602161e-11)
(9.64404066105843e-12,9.15564696390199e-11,-1.45292057885174e-11)
(1.11474839935715e-11,1.51833304535698e-10,-1.03738579172018e-11)
(1.0609657126199e-11,2.50768533970935e-10,-7.2078902257422e-12)
(9.70461901161967e-12,4.14073382372603e-10,-4.82840082675719e-12)
(8.50503385243647e-12,6.40187047452483e-10,-2.56251174089527e-12)
(0,0,0)
(0,0,0)
(0,0,0)
(0,0,0)
(0,0,0)
(0,0,0)
(-6.03106647122915e-13,4.51620816228502e-12,-4.10863601674696e-11)
(4.44424706402034e-13,9.94941046365589e-12,-4.08427854080652e-11)
(4.63721989372761e-12,1.75628921792583e-11,-3.98166500154128e-11)
(7.98573671440057e-12,2.97150582325377e-11,-3.70084533824633e-11)
(1.10861636629023e-11,5.08157152080563e-11,-3.29095141028771e-11)
(1.30478712678957e-11,8.73462348963899e-11,-2.79772877014663e-11)
(1.40400496830407e-11,1.48711397314549e-10,-2.23055996741201e-11)
(1.22593354846317e-11,2.49362218943314e-10,-1.73754395195191e-11)
(1.02346663777918e-11,4.12909209782762e-10,-1.23278178887178e-11)
(8.19949021719859e-12,6.3832014977159e-10,-6.56580031510613e-12)
(0,0,0)
(0,0,0)
(0,0,0)
(0,0,0)
(0,0,0)
(0,0,0)
(-2.79758445496924e-13,3.62451019806342e-12,-6.3839808675763e-11)
(1.94402189028636e-12,8.25955979989019e-12,-6.35460871802044e-11)
(7.48362040875844e-12,1.47212152452089e-11,-6.25854408234265e-11)
(1.17721606270007e-11,2.57382535076779e-11,-6.00319370621344e-11)
(1.52867629592605e-11,4.56621062928491e-11,-5.59126115617661e-11)
(1.59203622390549e-11,8.1703652629946e-11,-5.0820707213643e-11)
(1.48813459405321e-11,1.44234865138374e-10,-4.46903963142878e-11)
(1.3172821040825e-11,2.46083322737712e-10,-3.61412962578887e-11)
(1.08241248376662e-11,4.08948125042765e-10,-2.56365675626806e-11)
(8.59840231892947e-12,6.33295508968493e-10,-1.34326945672938e-11)
(0,0,0)
(0,0,0)
(0,0,0)
(0,0,0)
(0,0,0)
(0,0,0)
(1.81382199166663e-13,2.9917888828578e-12,-1.0031403214038e-10)
(3.26372052207923e-12,6.97180898089705e-12,-1.00498720862846e-10)
(9.64392056023643e-12,1.23109347032426e-11,-9.99426180628432e-11)
(1.48985287286659e-11,2.16005620151807e-11,-9.77546682440828e-11)
(1.80691377942047e-11,3.9905652799678e-11,-9.34778723375863e-11)
(1.76971514852607e-11,7.49342270570677e-11,-8.75263229812834e-11)
(1.64861276388198e-11,1.38132807032042e-10,-7.92016727883856e-11)
(1.49344063201608e-11,2.38716526409034e-10,-6.63672430531392e-11)
(1.175132787545e-11,3.99288734338091e-10,-4.83770639797025e-11)
(9.6902895431457e-12,6.21929256528024e-10,-2.56853769479877e-11)
(0,0,0)
(0,0,0)
(0,0,0)
(0,0,0)
(0,0,0)
(0,0,0)
(1.38195905301685e-12,2.83257871746591e-12,-1.58400816019518e-10)
(4.06862937475277e-12,5.95406861771628e-12,-1.58414986467069e-10)
(9.29207230842783e-12,1.01494208994843e-11,-1.58047517391435e-10)
(1.46677522326487e-11,1.73992877678395e-11,-1.56449550830748e-10)
(1.75200298130328e-11,3.34627368288654e-11,-1.52859200367148e-10)
(1.78487266782475e-11,6.57097686209112e-11,-1.46175147228144e-10)
(1.92235720925085e-11,1.26439337115555e-10,-1.34337557636093e-10)
(1.86957531681958e-11,2.22899424474297e-10,-1.1572716525827e-10)
(1.51595085770582e-11,3.78289074277106e-10,-8.63376509886328e-11)
(1.36830575104832e-11,5.97481852492882e-10,-4.68040768320173e-11)
(0,0,0)
(0,0,0)
(0,0,0)
(0,0,0)
(0,0,0)
(0,0,0)
(2.82472828549489e-12,2.73177329461327e-12,-2.55684167366432e-10)
(5.72556036823002e-12,4.85366605914196e-12,-2.55367072036913e-10)
(1.04545542188463e-11,8.30849234868708e-12,-2.5480430213921e-10)
(1.51447314868905e-11,1.42545719984311e-11,-2.53310064955995e-10)
(1.89997431256692e-11,2.78246810910056e-11,-2.50038716797206e-10)
(2.15457286446007e-11,5.62995551255117e-11,-2.42395297993748e-10)
(2.34288440201782e-11,1.09227665973019e-10,-2.26949621121384e-10)
(2.32615827130699e-11,1.95074967789115e-10,-1.98601083571643e-10)
(1.99091112548064e-11,3.39849545340905e-10,-1.53030967411666e-10)
(1.83124888460727e-11,5.5161684534394e-10,-8.65302613325773e-11)
(0,0,0)
(0,0,0)
(0,0,0)
(0,0,0)
(0,0,0)
(0,0,0)
(3.80505375627614e-12,2.24443346023936e-12,-4.20000135709389e-10)
(6.74966284216281e-12,3.55095687755426e-12,-4.19244779928282e-10)
(1.16102574479612e-11,6.45072488695791e-12,-4.18064556786183e-10)
(1.56051635886781e-11,1.11050189373108e-11,-4.15145076573562e-10)
(2.0965268529364e-11,2.09175972297788e-11,-4.10235011391461e-10)
(2.5164075053081e-11,4.24908939842198e-11,-4.00037010975239e-10)
(2.69835526283483e-11,8.23599600946437e-11,-3.79694513972698e-10)
(2.7891655193071e-11,1.50904880761914e-10,-3.41532916761792e-10)
(2.56969873955009e-11,2.74277272471509e-10,-2.75006743951865e-10)
(2.40156432255082e-11,4.6573629698236e-10,-1.64673279273287e-10)
(0,0,0)
(0,0,0)
(0,0,0)
(0,0,0)
(0,0,0)
(0,0,0)
(4.48038914545124e-12,1.22842216213127e-12,-6.46413467983335e-10)
(7.5419399182417e-12,1.6679582491681e-12,-6.45267962048994e-10)
(1.21701434842882e-11,3.4883340690039e-12,-6.44116924735462e-10)
(1.52379286965994e-11,6.24078228304624e-12,-6.40447084426111e-10)
(2.11145051771677e-11,1.13081639735679e-11,-6.34328156547385e-10)
(2.67267466672689e-11,2.28826411452325e-11,-6.22665147141464e-10)
(2.97984913871073e-11,4.49741159627717e-11,-5.99136281387188e-10)
(3.18635803080278e-11,8.56629685553499e-11,-5.531605704114e-10)
(3.00383911894144e-11,1.6485634053456e-10,-4.65784225375475e-10)
(2.74374688805131e-11,3.00987984555234e-10,-3.00096810933298e-10)
(0,0,0)
(0,0,0)
(0,0,0)
(0,0,0)
(0,0,0)
(0,0,0)
(0,0,0)
(0,0,0)
(0,0,0)
(0,0,0)
(0,0,0)
(0,0,0)
(0,0,0)
(0,0,0)
(0,0,0)
(0,0,0)
(0,0,0)
(0,0,0)
(0,0,0)
(0,0,0)
(0,0,0)
(0,0,0)
(0,0,0)
(0,0,0)
(0,0,0)
(0,0,0)
(0,0,0)
(0,0,0)
(0,0,0)
(0,0,0)
(0,0,0)
(0,0,0)
(0,0,0)
(0,0,0)
(0,0,0)
(0,0,0)
(0,0,0)
(0,0,0)
(0,0,0)
(0,0,0)
(0,0,0)
(0,0,0)
(0,0,0)
(0,0,0)
(0,0,0)
(0,0,0)
(0,0,0)
(0,0,0)
(0,0,0)
(0,0,0)
(0,0,0)
(0,0,0)
(0,0,0)
(0,0,0)
(0,0,0)
(0,0,0)
(0,0,0)
(0,0,0)
(0,0,0)
(0,0,0)
(0,0,0)
(0,0,0)
(0,0,0)
(0,0,0)
(0,0,0)
(0,0,0)
(0,0,0)
(0,0,0)
(0,0,0)
(0,0,0)
(0,0,0)
(0,0,0)
(0,0,0)
(0,0,0)
(0,0,0)
(0,0,0)
(0,0,0)
(0,0,0)
(0,0,0)
(0,0,0)
(0,0,0)
(0,0,0)
(0,0,0)
(0,0,0)
(0,0,0)
(0,0,0)
(0,0,0)
(0,0,0)
(0,0,0)
(0,0,0)
(0,0,0)
(0,0,0)
(0,0,0)
(0,0,0)
(0,0,0)
(0,0,0)
(0,0,0)
(0,0,0)
(0,0,0)
(0,0,0)
(0,0,0)
(0,0,0)
(-1.50393368925777e-13,1.11596253258441e-11,-1.37974580386963e-11)
(-2.18298930181417e-13,2.44494693795868e-11,-1.32464000857828e-11)
(1.43802681682892e-13,4.18490798780765e-11,-1.1884462836375e-11)
(2.99897102411878e-13,6.67883131512203e-11,-9.65116364452579e-12)
(1.683206405972e-12,1.07258513524591e-10,-6.81479453750892e-12)
(3.59108131735111e-12,1.7026559549709e-10,-3.62073068286337e-12)
(5.09626154221367e-12,2.71708835774431e-10,-1.28546860401895e-12)
(4.54989751367418e-12,4.41875488213605e-10,-9.98320279592337e-14)
(4.06045554185853e-12,7.66831869287359e-10,2.90109153820527e-13)
(3.93443325339116e-12,1.50796642538697e-09,8.81957205944178e-14)
(0,0,0)
(0,0,0)
(0,0,0)
(0,0,0)
(0,0,0)
(0,0,0)
(-1.21042991855677e-12,1.05775882092632e-11,-2.94486058968845e-11)
(-1.10981764807614e-12,2.29892830158006e-11,-2.85309634085762e-11)
(6.67222165043704e-13,3.96215469498737e-11,-2.63292766635179e-11)
(1.79858526564212e-12,6.42490975521917e-11,-2.231141757609e-11)
(3.81549391557484e-12,1.04721873792052e-10,-1.68979510606198e-11)
(6.26896979671442e-12,1.685624188106e-10,-1.04121830134534e-11)
(8.31366786291813e-12,2.71190940960392e-10,-4.67056789114145e-12)
(7.81218137224642e-12,4.42297482248543e-10,-1.60651753837735e-12)
(7.21913020039159e-12,7.67775006811197e-10,-5.47309348647007e-13)
(6.62627864028245e-12,1.508634255395e-09,-4.36439101288549e-13)
(0,0,0)
(0,0,0)
(0,0,0)
(0,0,0)
(0,0,0)
(0,0,0)
(-9.59233678214006e-13,9.56554582420262e-12,-5.06962802323531e-11)
(-3.82548707738771e-13,2.0840112838879e-11,-4.93310010518993e-11)
(2.80933392820271e-12,3.58558692976736e-11,-4.60643730613872e-11)
(5.1117990520431e-12,5.92660974626001e-11,-4.050154646488e-11)
(7.70618282173503e-12,9.87362435592545e-11,-3.28077469113309e-11)
(9.69892753237306e-12,1.63204140925143e-10,-2.31475008153413e-11)
(1.11034235232764e-11,2.68700737349111e-10,-1.31178723334206e-11)
(9.63648275464876e-12,4.42896429791413e-10,-7.82436620325423e-12)
(8.60290251548778e-12,7.69172682126824e-10,-5.3490448572593e-12)
(7.80941979234956e-12,1.50917389832071e-09,-3.0394908583192e-12)
(0,0,0)
(0,0,0)
(0,0,0)
(0,0,0)
(0,0,0)
(0,0,0)
(4.50165576942109e-14,7.8326504025113e-12,-7.88634722764311e-11)
(1.10813997751345e-12,1.7589700421693e-11,-7.76469378093368e-11)
(4.67070019481977e-12,3.09782644061531e-11,-7.41699442175559e-11)
(7.86360215967928e-12,5.2323089113689e-11,-6.77124652855903e-11)
(1.13075461766925e-11,8.9388780513797e-11,-5.85154203810885e-11)
(1.30187655070164e-11,1.53236688966234e-10,-4.666758729384e-11)
(1.35864217046121e-11,2.63198091247382e-10,-3.36213638202411e-11)
(1.04906100594753e-11,4.4286558337926e-10,-2.55982634247756e-11)
(8.43373354476359e-12,7.69311943460355e-10,-1.85603235263063e-11)
(6.65833070598444e-12,1.50780654820408e-09,-9.95681892055917e-12)
(0,0,0)
(0,0,0)
(0,0,0)
(0,0,0)
(0,0,0)
(0,0,0)
(5.92413741498579e-14,6.05408904146291e-12,-1.18433928006624e-10)
(2.27112635250074e-12,1.39063430924481e-11,-1.17984537886405e-10)
(7.34039718942995e-12,2.51034924520449e-11,-1.15371595228297e-10)
(1.1790526619118e-11,4.32796504358609e-11,-1.09442379128898e-10)
(1.59513121043311e-11,7.631250292785e-11,-1.00836590536256e-10)
(1.65594769125239e-11,1.37802685851884e-10,-9.08921734454289e-11)
(1.24343039905119e-11,2.51712311347339e-10,-8.19978380190908e-11)
(1.0034888674432e-11,4.39654961208667e-10,-6.41650955122412e-11)
(8.27964254670322e-12,7.64494901206032e-10,-4.45575949296008e-11)
(6.53196019164349e-12,1.50040739878695e-09,-2.2865632179862e-11)
(0,0,0)
(0,0,0)
(0,0,0)
(0,0,0)
(0,0,0)
(0,0,0)
(5.25281087025306e-13,5.16610220185623e-12,-1.80323833500321e-10)
(3.72535808525253e-12,1.10173719526041e-11,-1.80439007514135e-10)
(9.61748454523026e-12,1.95703164047823e-11,-1.79063506343352e-10)
(1.48230070695218e-11,3.41733462425752e-11,-1.74765157182829e-10)
(1.85605044087278e-11,6.34141102160836e-11,-1.6764476940328e-10)
(1.85969597284754e-11,1.23187188131183e-10,-1.57959598811083e-10)
(1.53451678201022e-11,2.43390992675628e-10,-1.44734527655783e-10)
(1.2761329181378e-11,4.28758063868485e-10,-1.20646728105604e-10)
(1.00593009046649e-11,7.48428922993892e-10,-8.64736025433205e-11)
(8.45231663094855e-12,1.48107115059706e-09,-4.54346915455934e-11)
(0,0,0)
(0,0,0)
(0,0,0)
(0,0,0)
(0,0,0)
(0,0,0)
(1.49693492341938e-12,4.6747598521551e-12,-2.78108648359149e-10)
(4.80156285769526e-12,8.86512094862285e-12,-2.78212711813155e-10)
(9.53503429854136e-12,1.52130473939528e-11,-2.77822534449408e-10)
(1.42221175384506e-11,2.63525870079742e-11,-2.7546794181567e-10)
(1.64740324119175e-11,5.1004181101334e-11,-2.70862590334206e-10)
(1.54213505816182e-11,1.04505480229506e-10,-2.62009478807323e-10)
(1.78248508572102e-11,2.23243569483919e-10,-2.39090328732956e-10)
(1.71306955836158e-11,4.01143043184195e-10,-2.09280934014321e-10)
(1.40654633566221e-11,7.11829008444094e-10,-1.54291311503553e-10)
(1.2743987827743e-11,1.43855120645735e-09,-8.30488951491353e-11)
(0,0,0)
(0,0,0)
(0,0,0)
(0,0,0)
(0,0,0)
(0,0,0)
(2.99497279035037e-12,4.34944706390357e-12,-4.46644694989579e-10)
(6.46549965211627e-12,7.40392958250179e-12,-4.46381485582452e-10)
(1.08180844973633e-11,1.25066769652145e-11,-4.46086420778677e-10)
(1.5022936389216e-11,2.1945204365954e-11,-4.44367536848119e-10)
(1.82634081834139e-11,4.4260396174027e-11,-4.40517134523676e-10)
(1.99087129135573e-11,9.39304971400574e-11,-4.30579668420173e-10)
(2.194801234886e-11,1.9482314767721e-10,-4.05712054700835e-10)
(2.18615535801508e-11,3.4897354718296e-10,-3.548351317983e-10)
(1.89806780452718e-11,6.42704023704502e-10,-2.72196927140602e-10)
(1.76627758746991e-11,1.35731101700947e-09,-1.54511174152602e-10)
(0,0,0)
(0,0,0)
(0,0,0)
(0,0,0)
(0,0,0)
(0,0,0)
(4.06570927327689e-12,3.67760259443656e-12,-7.73590645584117e-10)
(7.45243832845087e-12,5.77684877663074e-12,-7.72363774893101e-10)
(1.16531680532971e-11,9.91006756407707e-12,-7.70798960471516e-10)
(1.55593350608506e-11,1.76225190769544e-11,-7.67260523349793e-10)
(2.03767013693618e-11,3.47159333809944e-11,-7.60681877990204e-10)
(2.44298308895128e-11,7.27049499155626e-11,-7.45490541843922e-10)
(2.62077995493281e-11,1.45278867968765e-10,-7.11438567625601e-10)
(2.66073945896962e-11,2.67925739723318e-10,-6.4399840614691e-10)
(2.47844546538727e-11,5.25922133862484e-10,-5.27090682178704e-10)
(2.40906763791122e-11,1.20364329416117e-09,-3.28727503161332e-10)
(0,0,0)
(0,0,0)
(0,0,0)
(0,0,0)
(0,0,0)
(0,0,0)
(4.56330537324147e-12,1.9760944580432e-12,-1.5146987094427e-09)
(8.05886085387756e-12,3.00380425426381e-12,-1.51312433080743e-09)
(1.19886372439382e-11,5.65348791869837e-12,-1.51116662960788e-09)
(1.535978310092e-11,1.02665317105708e-11,-1.50628180846475e-09)
(2.07596597448072e-11,1.93769899946555e-11,-1.49739396173996e-09)
(2.60805220582111e-11,3.98188336986809e-11,-1.47870133561968e-09)
(2.87968963740629e-11,7.89354990712505e-11,-1.43820941437367e-09)
(3.01502038274905e-11,1.52473543130458e-10,-1.35802632624573e-09)
(2.92073172817936e-11,3.28276840519272e-10,-1.20377771285792e-09)
(2.83286425025524e-11,8.75133801948001e-10,-8.7467463399242e-10)
(0,0,0)
(0,0,0)
(0,0,0)
(0,0,0)
(0,0,0)
(0,0,0)
(0,0,0)
(0,0,0)
(0,0,0)
(0,0,0)
(0,0,0)
(0,0,0)
(0,0,0)
(0,0,0)
(0,0,0)
(0,0,0)
(0,0,0)
(0,0,0)
(0,0,0)
(0,0,0)
(0,0,0)
(0,0,0)
(0,0,0)
(0,0,0)
(0,0,0)
(0,0,0)
(0,0,0)
(0,0,0)
(0,0,0)
(0,0,0)
(0,0,0)
(0,0,0)
(0,0,0)
(0,0,0)
(0,0,0)
(0,0,0)
(0,0,0)
(0,0,0)
(0,0,0)
(0,0,0)
(0,0,0)
(0,0,0)
(0,0,0)
(0,0,0)
(0,0,0)
(0,0,0)
(0,0,0)
(0,0,0)
(0,0,0)
(0,0,0)
(0,0,0)
(0,0,0)
(0,0,0)
(0,0,0)
(0,0,0)
(0,0,0)
(0,0,0)
(0,0,0)
(0,0,0)
(0,0,0)
(0,0,0)
(0,0,0)
(0,0,0)
(0,0,0)
(0,0,0)
(0,0,0)
(0,0,0)
(0,0,0)
(0,0,0)
(0,0,0)
(0,0,0)
(0,0,0)
(0,0,0)
(0,0,0)
(0,0,0)
(0,0,0)
(0,0,0)
(0,0,0)
(0,0,0)
(0,0,0)
(0,0,0)
(0,0,0)
(0,0,0)
(0,0,0)
(0,0,0)
(0,0,0)
(0,0,0)
(0,0,0)
(0,0,0)
(0,0,0)
(0,0,0)
(0,0,0)
(0,0,0)
(0,0,0)
(0,0,0)
(0,0,0)
(0,0,0)
(0,0,0)
(0,0,0)
(0,0,0)
(0,0,0)
(0,0,0)
(-1.19414205572059e-13,1.56468061293288e-11,-1.94388542936211e-11)
(-1.20049816120046e-13,3.30644526902142e-11,-1.84534476863627e-11)
(1.38036419001115e-13,5.58681120854774e-11,-1.67357426773486e-11)
(2.74359401254089e-15,8.82547356999474e-11,-1.33946582664911e-11)
(1.02578228405431e-12,1.38835127214067e-10,-8.68864890772294e-12)
(2.95899592517903e-12,2.14513231117434e-10,-3.49808893665211e-12)
(4.42851977957873e-12,3.24029295076922e-10,9.24270013244206e-13)
(3.73796229669856e-12,4.80356932244257e-10,2.67762348640614e-12)
(3.31923145173424e-12,7.04048725322524e-10,2.22019201180202e-12)
(3.35479896507689e-12,9.75065305026369e-10,9.57959878251008e-13)
(0,0,0)
(0,0,0)
(0,0,0)
(0,0,0)
(0,0,0)
(0,0,0)
(-1.1160300218839e-12,1.49169399468863e-11,-4.06795645764263e-11)
(-1.16233421643908e-12,3.16239741086025e-11,-3.92183273636854e-11)
(4.15040728149895e-13,5.31717944780006e-11,-3.61306026402569e-11)
(1.3681188403405e-12,8.44251291846322e-11,-2.99104998764163e-11)
(3.31535610169972e-12,1.34749085035164e-10,-2.06418347984933e-11)
(5.88563255952497e-12,2.11382579361931e-10,-9.10685685767402e-12)
(7.73982112113049e-12,3.23886130054901e-10,1.8046506648715e-12)
(6.15402564025652e-12,4.82438052069057e-10,4.93184347240998e-12)
(5.7105846378183e-12,7.06654682801956e-10,3.26548373434738e-12)
(5.65019661353097e-12,9.76960730262476e-10,1.13503587372343e-12)
(0,0,0)
(0,0,0)
(0,0,0)
(0,0,0)
(0,0,0)
(0,0,0)
(-5.91617438679564e-13,1.3568140620026e-11,-6.99984571209043e-11)
(-3.98764280136942e-13,2.85656049532982e-11,-6.73918973398213e-11)
(2.12411222359674e-12,4.76674425308079e-11,-6.24381296867547e-11)
(4.36100784700236e-12,7.64227077764092e-11,-5.40824937078963e-11)
(7.39339977080151e-12,1.24613942388445e-10,-4.07197920775199e-11)
(9.6367510095972e-12,2.02026221502543e-10,-2.15312956187114e-11)
(1.13125634947721e-11,3.22679080511244e-10,1.66968046108975e-13)
(7.19200782068888e-12,4.87072577800833e-10,3.65757488924547e-12)
(6.15408718404077e-12,7.11656440201913e-10,3.96318171502993e-13)
(6.13727904999278e-12,9.80582970754529e-10,-1.03412708095319e-12)
(0,0,0)
(0,0,0)
(0,0,0)
(0,0,0)
(0,0,0)
(0,0,0)
(6.07043451242678e-13,1.09635484313191e-11,-1.06359873940212e-10)
(1.31450371580259e-12,2.36012286475668e-11,-1.0377895770869e-10)
(4.08799321622713e-12,3.99634558540814e-11,-9.83197006851175e-11)
(7.70999593192034e-12,6.43634743434596e-11,-8.87943324231014e-11)
(1.25359906756882e-11,1.06879446120459e-10,-7.278709719976e-11)
(1.5406545148656e-11,1.81669151062072e-10,-4.7461186546366e-11)
(1.70491012094339e-11,3.18274254300736e-10,-1.3401682058756e-11)
(6.66329233130814e-12,4.9572924369987e-10,-1.17821502400055e-11)
(4.64727119416639e-12,7.18273796501641e-10,-1.34588926719233e-11)
(4.10066120125281e-12,9.83810653348179e-10,-8.78786580181588e-12)
(0,0,0)
(0,0,0)
(0,0,0)
(0,0,0)
(0,0,0)
(0,0,0)
(4.97838092831662e-13,8.36861662993065e-12,-1.54802340476462e-10)
(2.54715483506568e-12,1.79912387498902e-11,-1.53431319817344e-10)
(6.94435713595617e-12,3.0732031233974e-11,-1.49130460681663e-10)
(1.22910422198231e-11,4.87569392818522e-11,-1.4036213157894e-10)
(1.89052877268791e-11,8.07705089613089e-11,-1.26434846895035e-10)
(2.2280639205831e-11,1.41986307561164e-10,-1.09541009703665e-10)
(2.92288015429475e-12,2.82566450014236e-10,-1.14371698221449e-10)
(1.32428543173991e-12,5.05588219220245e-10,-7.46277558228135e-11)
(2.65365801082518e-12,7.2114863695156e-10,-5.10960795234392e-11)
(3.00257620130022e-12,9.79850925468709e-10,-2.6428067520456e-11)
(0,0,0)
(0,0,0)
(0,0,0)
(0,0,0)
(0,0,0)
(0,0,0)
(1.13179745077637e-12,6.62369883919914e-12,-2.26217609171038e-10)
(4.50210791818035e-12,1.28808298604405e-11,-2.25677030810134e-10)
(9.67640439570134e-12,2.1491690593983e-11,-2.23092068265307e-10)
(1.55233785257688e-11,3.32856579235124e-11,-2.17447726301441e-10)
(2.12852629305671e-11,5.63855560806359e-11,-2.08446246091827e-10)
(2.40535964744981e-11,1.13014832246141e-10,-1.9597942507329e-10)
(1.14047914626739e-11,2.92313882283801e-10,-1.91033677065792e-10)
(6.20322430249331e-12,5.02330511403752e-10,-1.5382468416222e-10)
(5.62030445730635e-12,7.06262962784309e-10,-1.07816576054263e-10)
(5.53756922455416e-12,9.58708813771529e-10,-5.56947032587092e-11)
(0,0,0)
(0,0,0)
(0,0,0)
(0,0,0)
(0,0,0)
(0,0,0)
(1.92631116738873e-12,5.24076878848021e-12,-3.2921433291425e-10)
(5.87257685815178e-12,8.89218543108198e-12,-3.29336697722235e-10)
(9.88681209370852e-12,1.44304195882242e-11,-3.28915164059036e-10)
(1.4024148699102e-11,2.08885367524901e-11,-3.27458969651863e-10)
(1.4364705812405e-11,3.3265026856198e-11,-3.27431050268869e-10)
(3.07718359722351e-12,6.75993366356549e-11,-3.29774407720312e-10)
(1.64358779449655e-11,2.66928371327767e-10,-2.81353429964421e-10)
(1.43105690731403e-11,4.72055161607278e-10,-2.734170801791e-10)
(1.19480317424604e-11,6.62612494209227e-10,-1.90647462642327e-10)
(1.09352821262853e-11,9.08047911239388e-10,-9.82095237337726e-11)
(0,0,0)
(0,0,0)
(0,0,0)
(0,0,0)
(0,0,0)
(0,0,0)
(3.40360785361625e-12,4.43996511815094e-12,-4.83130888453876e-10)
(7.79751565437365e-12,6.90564886654661e-12,-4.83187416831983e-10)
(1.16958099671541e-11,1.09884387342619e-11,-4.83319375852547e-10)
(1.54952193546179e-11,1.75380463202783e-11,-4.83190129471417e-10)
(1.78704048722769e-11,3.56903205323875e-11,-4.84506448847399e-10)
(1.62666464189483e-11,8.9034482834172e-11,-4.85672658511205e-10)
(2.06153691543074e-11,2.45538038975293e-10,-4.70741269266273e-10)
(2.02711563815697e-11,3.91827929082764e-10,-4.00225446162952e-10)
(1.80768148991561e-11,5.7337645903565e-10,-2.91078306475034e-10)
(1.68193245711642e-11,8.12366935644114e-10,-1.56677625455867e-10)
(0,0,0)
(0,0,0)
(0,0,0)
(0,0,0)
(0,0,0)
(0,0,0)
(4.5403467180249e-12,3.68126891103299e-12,-7.0790711256466e-10)
(8.66066842883042e-12,5.50230571132422e-12,-7.06785675135725e-10)
(1.23713105782177e-11,8.89696444926469e-12,-7.0557531582255e-10)
(1.63366770671448e-11,1.57901291105408e-11,-7.03418577674733e-10)
(2.05243086099689e-11,3.34294034189585e-11,-6.99698884401332e-10)
(2.32639728880008e-11,7.81514617377435e-11,-6.88596093164573e-10)
(2.51110069685394e-11,1.72406547486494e-10,-6.55642651473007e-10)
(2.51518672127173e-11,2.83266220608005e-10,-5.73551517890479e-10)
(2.40665689810237e-11,4.39931295418192e-10,-4.42447979914048e-10)
(2.38726654305522e-11,6.56345565153408e-10,-2.53333548927017e-10)
(0,0,0)
(0,0,0)
(0,0,0)
(0,0,0)
(0,0,0)
(0,0,0)
(4.96502119481519e-12,1.98689553470237e-12,-9.78639856880861e-10)
(9.10496390873132e-12,2.99498834453591e-12,-9.7719052340522e-10)
(1.27573040195995e-11,5.34574909814782e-12,-9.75491091449697e-10)
(1.67384680869519e-11,9.88974463653577e-12,-9.71426138193684e-10)
(2.14440236193229e-11,2.00773789522619e-11,-9.6354994612958e-10)
(2.54074345099807e-11,4.42519713513665e-11,-9.44894064782485e-10)
(2.75493073180443e-11,8.97989275587529e-11,-9.007435367794e-10)
(2.83751335687131e-11,1.52607717565618e-10,-8.10352908181054e-10)
(2.83810789358435e-11,2.51540915381074e-10,-6.5686878731383e-10)