/*--------------------------------*- C++ -*----------------------------------*\
| =========                 |                                                 |
| \\      /  F ield         | foam-extend: Open Source CFD                    |
|  \\    /   O peration     | Version:     4.0                                |
|   \\  /    A nd           | Web:         http://www.foam-extend.org         |
|    \\/     M anipulation  |                                                 |
\*---------------------------------------------------------------------------*/
FoamFile
{
    version 2.0;
    format ascii;
    class volVectorField;
    location "3538";
    object      E;
}
// * * * * * * * * * * * * * * * * * * * * * * * * * * * * * * * * * * * * * //

dimensions      [0 1 -1 0 0 0 0];

internalField   nonuniform List<vector>
4096
(
(0,0,0)
(0,0,0)
(0,0,0)
(0,0,0)
(0,0,0)
(0,0,0)
(0,0,0)
(0,0,0)
(0,0,0)
(0,0,0)
(0,0,0)
(0,0,0)
(0,0,0)
(0,0,0)
(0,0,0)
(0,0,0)
(0,0,0)
(0,0,0)
(0,0,0)
(0,0,0)
(0,0,0)
(0,0,0)
(0,0,0)
(0,0,0)
(0,0,0)
(0,0,0)
(0,0,0)
(0,0,0)
(0,0,0)
(0,0,0)
(0,0,0)
(0,0,0)
(0,0,0)
(0,0,0)
(0,0,0)
(0,0,0)
(0,0,0)
(0,0,0)
(0,0,0)
(0,0,0)
(0,0,0)
(0,0,0)
(0,0,0)
(0,0,0)
(0,0,0)
(0,0,0)
(0,0,0)
(0,0,0)
(0,0,0)
(0,0,0)
(0,0,0)
(0,0,0)
(0,0,0)
(0,0,0)
(0,0,0)
(0,0,0)
(0,0,0)
(0,0,0)
(0,0,0)
(0,0,0)
(0,0,0)
(0,0,0)
(0,0,0)
(0,0,0)
(0,0,0)
(0,0,0)
(0,0,0)
(0,0,0)
(0,0,0)
(0,0,0)
(0,0,0)
(0,0,0)
(0,0,0)
(0,0,0)
(0,0,0)
(0,0,0)
(0,0,0)
(0,0,0)
(0,0,0)
(0,0,0)
(0,0,0)
(0,0,0)
(0,0,0)
(0,0,0)
(0,0,0)
(0,0,0)
(0,0,0)
(0,0,0)
(0,0,0)
(0,0,0)
(0,0,0)
(0,0,0)
(0,0,0)
(0,0,0)
(0,0,0)
(0,0,0)
(0,0,0)
(0,0,0)
(0,0,0)
(0,0,0)
(0,0,0)
(0,0,0)
(0,0,0)
(0,0,0)
(0,0,0)
(0,0,0)
(0,0,0)
(0,0,0)
(0,0,0)
(0,0,0)
(0,0,0)
(0,0,0)
(0,0,0)
(0,0,0)
(0,0,0)
(0,0,0)
(0,0,0)
(0,0,0)
(0,0,0)
(0,0,0)
(0,0,0)
(0,0,0)
(0,0,0)
(0,0,0)
(0,0,0)
(0,0,0)
(0,0,0)
(0,0,0)
(0,0,0)
(0,0,0)
(0,0,0)
(0,0,0)
(0,0,0)
(0,0,0)
(0,0,0)
(0,0,0)
(0,0,0)
(0,0,0)
(0,0,0)
(0,0,0)
(0,0,0)
(0,0,0)
(0,0,0)
(0,0,0)
(0,0,0)
(0,0,0)
(0,0,0)
(0,0,0)
(0,0,0)
(0,0,0)
(0,0,0)
(0,0,0)
(0,0,0)
(0,0,0)
(0,0,0)
(0,0,0)
(0,0,0)
(0,0,0)
(0,0,0)
(0,0,0)
(0,0,0)
(0,0,0)
(0,0,0)
(0,0,0)
(0,0,0)
(0,0,0)
(0,0,0)
(0,0,0)
(0,0,0)
(0,0,0)
(0,0,0)
(0,0,0)
(0,0,0)
(0,0,0)
(0,0,0)
(0,0,0)
(0,0,0)
(0,0,0)
(0,0,0)
(0,0,0)
(0,0,0)
(0,0,0)
(0,0,0)
(0,0,0)
(0,0,0)
(0,0,0)
(0,0,0)
(0,0,0)
(0,0,0)
(0,0,0)
(0,0,0)
(0,0,0)
(0,0,0)
(0,0,0)
(0,0,0)
(0,0,0)
(0,0,0)
(0,0,0)
(0,0,0)
(0,0,0)
(0,0,0)
(0,0,0)
(0,0,0)
(0,0,0)
(0,0,0)
(0,0,0)
(0,0,0)
(0,0,0)
(0,0,0)
(0,0,0)
(0,0,0)
(0,0,0)
(0,0,0)
(0,0,0)
(0,0,0)
(0,0,0)
(0,0,0)
(0,0,0)
(0,0,0)
(0,0,0)
(0,0,0)
(0,0,0)
(0,0,0)
(0,0,0)
(0,0,0)
(0,0,0)
(0,0,0)
(0,0,0)
(0,0,0)
(0,0,0)
(0,0,0)
(0,0,0)
(0,0,0)
(0,0,0)
(0,0,0)
(0,0,0)
(0,0,0)
(0,0,0)
(0,0,0)
(0,0,0)
(0,0,0)
(0,0,0)
(0,0,0)
(0,0,0)
(0,0,0)
(0,0,0)
(0,0,0)
(0,0,0)
(0,0,0)
(0,0,0)
(0,0,0)
(0,0,0)
(0,0,0)
(0,0,0)
(0,0,0)
(0,0,0)
(0,0,0)
(0,0,0)
(0,0,0)
(0,0,0)
(0,0,0)
(0,0,0)
(0,0,0)
(0,0,0)
(0,0,0)
(0,0,0)
(0,0,0)
(0,0,0)
(0,0,0)
(0,0,0)
(0,0,0)
(0,0,0)
(0,0,0)
(0,0,0)
(0,0,0)
(0,0,0)
(0,0,0)
(0,0,0)
(0,0,0)
(0,0,0)
(0,0,0)
(0,0,0)
(0,0,0)
(0,0,0)
(0,0,0)
(0,0,0)
(0,0,0)
(0,0,0)
(0,0,0)
(0,0,0)
(0,0,0)
(0,0,0)
(0,0,0)
(0,0,0)
(0,0,0)
(0,0,0)
(0,0,0)
(0,0,0)
(0,0,0)
(0,0,0)
(0,0,0)
(0,0,0)
(0,0,0)
(0,0,0)
(0,0,0)
(0,0,0)
(0,0,0)
(0,0,0)
(0,0,0)
(0,0,0)
(0,0,0)
(0,0,0)
(0,0,0)
(0,0,0)
(0,0,0)
(0,0,0)
(0,0,0)
(0,0,0)
(0,0,0)
(0,0,0)
(0,0,0)
(0,0,0)
(0,0,0)
(0,0,0)
(0,0,0)
(0,0,0)
(0,0,0)
(0,0,0)
(0,0,0)
(0,0,0)
(0,0,0)
(0,0,0)
(0,0,0)
(0,0,0)
(0,0,0)
(0,0,0)
(0,0,0)
(0,0,0)
(0,0,0)
(0,0,0)
(0,0,0)
(0,0,0)
(0,0,0)
(0,0,0)
(0,0,0)
(0,0,0)
(0,0,0)
(0,0,0)
(0,0,0)
(0,0,0)
(0,0,0)
(0,0,0)
(0,0,0)
(0,0,0)
(0,0,0)
(0,0,0)
(0,0,0)
(0,0,0)
(0,0,0)
(0,0,0)
(0,0,0)
(0,0,0)
(0,0,0)
(0,0,0)
(0,0,0)
(0,0,0)
(0,0,0)
(0,0,0)
(0,0,0)
(0,0,0)
(0,0,0)
(0,0,0)
(0,0,0)
(0,0,0)
(0,0,0)
(0,0,0)
(0,0,0)
(0,0,0)
(0,0,0)
(0,0,0)
(0,0,0)
(0,0,0)
(0,0,0)
(0,0,0)
(0,0,0)
(0,0,0)
(0,0,0)
(0,0,0)
(0,0,0)
(0,0,0)
(0,0,0)
(0,0,0)
(0,0,0)
(0,0,0)
(0,0,0)
(0,0,0)
(0,0,0)
(0,0,0)
(0,0,0)
(0,0,0)
(0,0,0)
(0,0,0)
(0,0,0)
(0,0,0)
(0,0,0)
(0,0,0)
(0,0,0)
(0,0,0)
(0,0,0)
(0,0,0)
(0,0,0)
(0,0,0)
(0,0,0)
(0,0,0)
(0,0,0)
(0,0,0)
(0,0,0)
(0,0,0)
(0,0,0)
(0,0,0)
(0,0,0)
(0,0,0)
(0,0,0)
(0,0,0)
(0,0,0)
(0,0,0)
(0,0,0)
(0,0,0)
(0,0,0)
(0,0,0)
(0,0,0)
(0,0,0)
(0,0,0)
(0,0,0)
(0,0,0)
(0,0,0)
(0,0,0)
(0,0,0)
(0,0,0)
(0,0,0)
(0,0,0)
(0,0,0)
(0,0,0)
(0,0,0)
(0,0,0)
(0,0,0)
(0,0,0)
(0,0,0)
(0,0,0)
(0,0,0)
(0,0,0)
(0,0,0)
(0,0,0)
(0,0,0)
(0,0,0)
(0,0,0)
(0,0,0)
(0,0,0)
(0,0,0)
(0,0,0)
(0,0,0)
(0,0,0)
(0,0,0)
(0,0,0)
(0,0,0)
(0,0,0)
(0,0,0)
(0,0,0)
(0,0,0)
(0,0,0)
(0,0,0)
(0,0,0)
(0,0,0)
(0,0,0)
(0,0,0)
(0,0,0)
(0,0,0)
(0,0,0)
(0,0,0)
(0,0,0)
(0,0,0)
(0,0,0)
(0,0,0)
(0,0,0)
(0,0,0)
(0,0,0)
(0,0,0)
(0,0,0)
(0,0,0)
(0,0,0)
(0,0,0)
(0,0,0)
(0,0,0)
(0,0,0)
(0,0,0)
(0,0,0)
(0,0,0)
(0,0,0)
(0,0,0)
(0,0,0)
(0,0,0)
(0,0,0)
(0,0,0)
(0,0,0)
(0,0,0)
(0,0,0)
(0,0,0)
(0,0,0)
(0,0,0)
(0,0,0)
(0,0,0)
(0,0,0)
(0,0,0)
(0,0,0)
(0,0,0)
(0,0,0)
(0,0,0)
(0,0,0)
(0,0,0)
(0,0,0)
(0,0,0)
(0,0,0)
(0,0,0)
(0,0,0)
(0,0,0)
(0,0,0)
(0,0,0)
(0,0,0)
(0,0,0)
(0,0,0)
(0,0,0)
(0,0,0)
(0,0,0)
(0,0,0)
(0,0,0)
(0,0,0)
(0,0,0)
(0,0,0)
(0,0,0)
(0,0,0)
(0,0,0)
(0,0,0)
(0,0,0)
(0,0,0)
(0,0,0)
(0,0,0)
(0,0,0)
(0,0,0)
(0,0,0)
(0,0,0)
(0,0,0)
(0,0,0)
(0,0,0)
(0,0,0)
(0,0,0)
(0,0,0)
(0,0,0)
(0,0,0)
(0,0,0)
(0,0,0)
(0,0,0)
(0,0,0)
(0,0,0)
(0,0,0)
(0,0,0)
(0,0,0)
(0,0,0)
(0,0,0)
(0,0,0)
(0,0,0)
(0,0,0)
(0,0,0)
(0,0,0)
(0,0,0)
(0,0,0)
(0,0,0)
(0,0,0)
(0,0,0)
(0,0,0)
(0,0,0)
(0,0,0)
(0,0,0)
(0,0,0)
(0,0,0)
(0,0,0)
(0,0,0)
(0,0,0)
(0,0,0)
(0,0,0)
(0,0,0)
(0,0,0)
(0,0,0)
(0,0,0)
(0,0,0)
(0,0,0)
(0,0,0)
(0,0,0)
(0,0,0)
(0,0,0)
(0,0,0)
(0,0,0)
(0,0,0)
(0,0,0)
(0,0,0)
(0,0,0)
(0,0,0)
(0,0,0)
(0,0,0)
(0,0,0)
(0,0,0)
(0,0,0)
(0,0,0)
(0,0,0)
(0,0,0)
(0,0,0)
(0,0,0)
(0,0,0)
(0,0,0)
(0,0,0)
(0,0,0)
(0,0,0)
(0,0,0)
(0,0,0)
(0,0,0)
(0,0,0)
(0,0,0)
(0,0,0)
(0,0,0)
(0,0,0)
(0,0,0)
(0,0,0)
(0,0,0)
(0,0,0)
(0,0,0)
(0,0,0)
(0,0,0)
(0,0,0)
(0,0,0)
(0,0,0)
(0,0,0)
(0,0,0)
(0,0,0)
(0,0,0)
(0,0,0)
(0,0,0)
(0,0,0)
(0,0,0)
(0,0,0)
(0,0,0)
(0,0,0)
(0,0,0)
(0,0,0)
(0,0,0)
(0,0,0)
(0,0,0)
(0,0,0)
(0,0,0)
(0,0,0)
(0,0,0)
(0,0,0)
(0,0,0)
(0,0,0)
(0,0,0)
(0,0,0)
(0,0,0)
(0,0,0)
(0,0,0)
(0,0,0)
(0,0,0)
(0,0,0)
(0,0,0)
(0,0,0)
(0,0,0)
(0,0,0)
(0,0,0)
(0,0,0)
(0,0,0)
(0,0,0)
(0,0,0)
(0,0,0)
(0,0,0)
(0,0,0)
(0,0,0)
(0,0,0)
(0,0,0)
(0,0,0)
(0,0,0)
(0,0,0)
(0,0,0)
(0,0,0)
(0,0,0)
(0,0,0)
(0,0,0)
(0,0,0)
(0,0,0)
(0,0,0)
(0,0,0)
(0,0,0)
(0,0,0)
(0,0,0)
(0,0,0)
(0,0,0)
(0,0,0)
(0,0,0)
(0,0,0)
(0,0,0)
(0,0,0)
(0,0,0)
(0,0,0)
(0,0,0)
(0,0,0)
(0,0,0)
(0,0,0)
(0,0,0)
(0,0,0)
(0,0,0)
(0,0,0)
(0,0,0)
(0,0,0)
(0,0,0)
(0,0,0)
(0,0,0)
(0,0,0)
(0,0,0)
(0,0,0)
(0,0,0)
(0,0,0)
(0,0,0)
(0,0,0)
(0,0,0)
(0,0,0)
(0,0,0)
(0,0,0)
(0,0,0)
(0,0,0)
(0,0,0)
(0,0,0)
(0,0,0)
(0,0,0)
(0,0,0)
(0,0,0)
(0,0,0)
(0,0,0)
(0,0,0)
(0,0,0)
(0,0,0)
(0,0,0)
(0,0,0)
(0,0,0)
(0,0,0)
(0,0,0)
(0,0,0)
(0,0,0)
(0,0,0)
(0,0,0)
(0,0,0)
(0,0,0)
(0,0,0)
(0,0,0)
(0,0,0)
(0,0,0)
(0,0,0)
(0,0,0)
(0,0,0)
(0,0,0)
(0,0,0)
(0,0,0)
(0,0,0)
(0,0,0)
(0,0,0)
(0,0,0)
(0,0,0)
(0,0,0)
(0,0,0)
(0,0,0)
(0,0,0)
(0,0,0)
(0,0,0)
(0,0,0)
(0,0,0)
(0,0,0)
(0,0,0)
(0,0,0)
(0,0,0)
(0,0,0)
(0,0,0)
(0,0,0)
(0,0,0)
(0,0,0)
(0,0,0)
(0,0,0)
(0,0,0)
(0,0,0)
(0,0,0)
(0,0,0)
(0,0,0)
(0,0,0)
(0,0,0)
(0,0,0)
(0,0,0)
(0,0,0)
(0,0,0)
(0,0,0)
(0,0,0)
(0,0,0)
(0,0,0)
(0,0,0)
(0,0,0)
(0,0,0)
(0,0,0)
(0,0,0)
(0,0,0)
(0,0,0)
(0,0,0)
(0,0,0)
(0,0,0)
(0,0,0)
(0,0,0)
(0,0,0)
(-202571.848153296,107624.067396721,94947.780756574)
(-214233.547542819,103212.677603098,205968.650696293)
(-241279.726535725,94009.0099578705,353239.367274143)
(-292404.079713355,79507.1202502418,566136.326737267)
(-384494.518646369,59883.13389705,890747.711486586)
(-549764.773918887,37330.7258359637,1403181.75956952)
(-849001.202674974,16789.3944185479,2235393.56782596)
(-1389800.16114474,4206.64648895959,3620987.08248176)
(-2292124.66851721,53.9847964898654,5913057.76620243)
(-3193522.39134023,-300.653196471744,9106880.81073922)
(0,0,0)
(0,0,0)
(0,0,0)
(0,0,0)
(0,0,0)
(0,0,0)
(-214294.266798739,231439.064495584,90479.2696998751)
(-226087.408944529,223085.554253655,196693.801993849)
(-253569.749914189,205548.185458887,338724.376407019)
(-305866.473637179,177524.735589555,546573.234704883)
(-400507.293734145,138747.364326573,868216.298009505)
(-569753.263141607,92602.3037307557,1382697.98325631)
(-872293.487841963,48889.8925342606,2222890.97298256)
(-1411030.69812465,21218.8648764587,3616909.45271966)
(-2306267.11246694,10402.8156673437,5912827.73431581)
(-3200111.37663241,5318.94759900977,9107319.51015264)
(0,0,0)
(0,0,0)
(0,0,0)
(0,0,0)
(0,0,0)
(0,0,0)
(-241083.723688358,390408.730896601,82114.0572873413)
(-253111.364790704,379202.912445198,179108.063886506)
(-281451.351357191,355415.227064249,310692.37363834)
(-336311.003164305,316695.910866837,507832.201525361)
(-436983.577909441,261434.22640189,822128.917359472)
(-616737.103731754,192339.146660238,1339129.17816175)
(-929692.258244351,122337.191679673,2195374.1372607)
(-1463893.33363645,74305.3695411208,3606180.96623244)
(-2340317.24606136,49022.331883462,5907878.69607774)
(-3215539.44949466,26554.770754446,9102182.322417)
(0,0,0)
(0,0,0)
(0,0,0)
(0,0,0)
(0,0,0)
(0,0,0)
(-290942.317489656,610495.44995977,70855.5984264871)
(-303179.360351113,597987.727535133,155250.143687667)
(-332607.431965574,571308.668864786,271964.133852697)
(-391254.907172177,527320.001950784,452594.949940918)
(-501896.419843919,462819.49495212,753106.101234621)
(-701815.927986096,377997.269084262,1269263.90679668)
(-1039619.41472021,283814.127316956,2147406.3858796)
(-1566142.24863054,206949.78347772,3580904.22057352)
(-2402715.49702039,147092.664449159,5885549.38502815)
(-3242767.82802325,79112.5526585325,9075759.43114753)
(0,0,0)
(0,0,0)
(0,0,0)
(0,0,0)
(0,0,0)
(0,0,0)
(-380260.932700829,932462.670180071,58293.7124805211)
(-392424.545937641,920250.628438968,128455.357514324)
(-422418.606053926,894272.012559353,227910.619873682)
(-484261.354554871,851384.900611533,388107.075767806)
(-605211.319593516,787798.920527546,668338.969785895)
(-830093.133477379,701303.016522527,1175126.35582499)
(-1206979.17169629,595362.341585167,2070557.31325307)
(-1721754.75960628,478204.504954084,3521057.35138302)
(-2493307.65366614,343762.175801969,5817695.49369646)
(-3282063.07189193,182183.311684662,8996687.80656227)
(0,0,0)
(0,0,0)
(0,0,0)
(0,0,0)
(0,0,0)
(0,0,0)
(-541461.611716211,1427836.78620964,46087.4956866496)
(-553009.102167796,1416942.07281143,102405.153481982)
(-582019.694358255,1393764.52505616,184932.335343429)
(-643256.852416693,1355121.61297932,324452.475392322)
(-765475.017991788,1295869.89928969,581856.514621975)
(-994600.066744043,1208593.69219771,1069165.90569084)
(-1372638.46698321,1083729.11919425,1953437.59506497)
(-1864063.87843742,909038.391092213,3386667.58736428)
(-2591401.00562881,665631.34823489,5656199.42056021)
(-3331484.26146902,355336.55255278,8814530.44116107)
(0,0,0)
(0,0,0)
(0,0,0)
(0,0,0)
(0,0,0)
(0,0,0)
(-837342.012249983,2229973.34883299,35205.4496266314)
(-847569.712856151,2220538.44469141,79178.7906028102)
(-873589.932079257,2200282.47079245,146250.776945785)
(-929510.958200178,2165688.48983303,265194.85829225)
(-1043021.70164215,2109488.40507861,494598.054145477)
(-1258275.48477687,2017215.96115647,944251.269963601)
(-1613053.43975415,1862269.85853732,1778763.9703747)
(-2059910.7650971,1604490.14121481,3143222.9853492)
(-2737562.50858097,1200538.84085469,5345878.00131032)
(-3412113.69381767,654109.028275304,8459219.21940556)
(0,0,0)
(0,0,0)
(0,0,0)
(0,0,0)
(0,0,0)
(0,0,0)
(-1378373.92396781,3582545.26124758,25802.0115532069)
(-1386568.98172217,3573961.05535461,58948.3826121841)
(-1407524.015612,3555051.35210641,111703.516910243)
(-1453002.21422983,3521298.49031083,209095.730662256)
(-1546290.44957962,3462428.89280521,402445.692515281)
(-1725208.39071393,3355589.78235102,789280.262034641)
(-2022310.88428383,3152922.14256698,1520938.86228877)
(-2384058.43924338,2770288.53001817,2739198.91272881)
(-3002946.91310353,2143214.12652398,4799470.54016304)
(-3566317.62836425,1214774.62096087,7805122.57584169)
(0,0,0)
(0,0,0)
(0,0,0)
(0,0,0)
(0,0,0)
(0,0,0)
(-2284308.04755246,5849570.35496846,17282.9538315799)
(-2289898.94270745,5840968.27784413,40174.6740494924)
(-2304143.61575444,5821244.77128984,78124.8706204514)
(-2334726.76604151,5783771.68035597,150378.446616794)
(-2396340.71393889,5713374.98577587,295773.067585041)
(-2512133.99817937,5576890.4503054,586606.397810051)
(-2706619.68081739,5307955.53439226,1138192.68680216)
(-2995558.14718654,4791999.18725038,2112040.17675651)
(-3492460.14867007,3876725.55549006,3870988.89646038)
(-3835286.88819942,2330859.22756563,6590191.17805505)
(0,0,0)
(0,0,0)
(0,0,0)
(0,0,0)
(0,0,0)
(0,0,0)
(-3189907.02777341,9030687.59551661,8789.78722524507)
(-3192688.20875558,9021738.157821,20708.1160039352)
(-3199773.21788096,9000714.58783586,41011.5173388902)
(-3214796.53144665,8959312.44593178,80267.2832098001)
(-3244609.32756875,8878739.7722569,159511.824297531)
(-3300378.16282969,8719045.64214065,317734.795291906)
(-3397715.03416586,8401260.88912909,622144.474720908)
(-3561722.16882973,7779255.87094648,1196609.95985451)
(-3834400.24822445,6582890.52413122,2324845.23943773)
(-3861588.52126256,4258400.73460882,4258892.25365715)
(0,0,0)
(0,0,0)
(0,0,0)
(0,0,0)
(0,0,0)
(0,0,0)
(0,0,0)
(0,0,0)
(0,0,0)
(0,0,0)
(0,0,0)
(0,0,0)
(0,0,0)
(0,0,0)
(0,0,0)
(0,0,0)
(0,0,0)
(0,0,0)
(0,0,0)
(0,0,0)
(0,0,0)
(0,0,0)
(0,0,0)
(0,0,0)
(0,0,0)
(0,0,0)
(0,0,0)
(0,0,0)
(0,0,0)
(0,0,0)
(0,0,0)
(0,0,0)
(0,0,0)
(0,0,0)
(0,0,0)
(0,0,0)
(0,0,0)
(0,0,0)
(0,0,0)
(0,0,0)
(0,0,0)
(0,0,0)
(0,0,0)
(0,0,0)
(0,0,0)
(0,0,0)
(0,0,0)
(0,0,0)
(0,0,0)
(0,0,0)
(0,0,0)
(0,0,0)
(0,0,0)
(0,0,0)
(0,0,0)
(0,0,0)
(0,0,0)
(0,0,0)
(0,0,0)
(0,0,0)
(0,0,0)
(0,0,0)
(0,0,0)
(0,0,0)
(0,0,0)
(0,0,0)
(0,0,0)
(0,0,0)
(0,0,0)
(0,0,0)
(0,0,0)
(0,0,0)
(0,0,0)
(0,0,0)
(0,0,0)
(0,0,0)
(0,0,0)
(0,0,0)
(0,0,0)
(0,0,0)
(0,0,0)
(0,0,0)
(0,0,0)
(0,0,0)
(0,0,0)
(0,0,0)
(0,0,0)
(0,0,0)
(0,0,0)
(0,0,0)
(0,0,0)
(0,0,0)
(0,0,0)
(0,0,0)
(0,0,0)
(0,0,0)
(0,0,0)
(0,0,0)
(0,0,0)
(0,0,0)
(0,0,0)
(0,0,0)
(29948625.7084837,95968.1343800858,83273.7903431592)
(29929078.5330414,91469.1401021204,178932.051017167)
(29884106.8956042,81847.0663758689,302137.843861513)
(29800079.1386922,66126.4145620705,473967.692253997)
(29650596.6346504,43936.5980437981,725379.422273546)
(29384793.2252234,17398.488155826,1103862.41633553)
(28897222.9463515,-6447.58759286052,1694525.33626196)
(27933689.7358031,-17005.791885758,2718480.71256006)
(25759586.6851326,-14113.1222681347,5011321.96253859)
(19855280.0323309,-6918.37711922213,12299877.3973469)
(0,0,0)
(0,0,0)
(0,0,0)
(0,0,0)
(0,0,0)
(0,0,0)
(29928651.3568832,204760.025184282,78701.9668740886)
(29909066.1849907,196224.932035846,169232.062365372)
(29863689.0454032,177831.153792464,286428.660991585)
(29778085.0431072,147181.280670846,451861.759498673)
(29624508.3861573,102336.060147288,698886.098863966)
(29351232.24402,45673.6137089489,1080064.94750939)
(28856174.5613662,-8463.19886456144,1684051.99093326)
(27896638.5072189,-31619.9589988167,2721436.4340629)
(25736568.3647131,-23663.0353596672,5018590.35133442)
(19845225.9759114,-10113.4254656752,12306887.5284972)
(0,0,0)
(0,0,0)
(0,0,0)
(0,0,0)
(0,0,0)
(0,0,0)
(29883352.7981746,340624.240214593,70138.7444668084)
(29863692.3833968,329225.672247379,150773.737427896)
(29817464.1797772,304354.220359775,255774.621086461)
(29728174.4168228,261841.332700589,407068.630429888)
(29563960.1582905,196586.682858219,642313.752879214)
(29268271.8324506,107331.122771496,1026086.78899455)
(28744851.6888908,12459.2034400789,1661059.92091499)
(27794410.9585534,-27929.8551249509,2729505.00621151)
(25677091.7415119,-13385.2378208656,5032257.70245949)
(19820540.4822927,-662.893989176103,12317166.7205559)
(0,0,0)
(0,0,0)
(0,0,0)
(0,0,0)
(0,0,0)
(0,0,0)
(29800205.2017529,521237.050064584,58679.152267595)
(29780576.3280451,508768.465246522,125820.152232406)
(29733248.5060034,481500.502806969,213257.413176434)
(29638113.2611028,434315.001607833,341855.057354462)
(29454314.1818539,359519.771260667,553150.848614377)
(29107964.1500136,249750.39787209,931390.976874266)
(28497423.2653584,116453.96650633,1620793.01508968)
(27561745.7693301,51292.6581577924,2744121.96520661)
(25556922.0744661,56438.090729291,5045100.54653)
(19774379.0196665,39794.5704622978,12317935.7157491)
(0,0,0)
(0,0,0)
(0,0,0)
(0,0,0)
(0,0,0)
(0,0,0)
(29653915.8316315,771326.219465572,46173.5476268883)
(29634764.8069417,759715.869295069,98476.2720590995)
(29587213.275805,734697.702680513,166086.671686977)
(29487086.8051323,692385.62162441,267107.373343331)
(29280883.5205882,627523.829337863,443447.956444701)
(28858601.863312,536761.647420294,798181.191467433)
(28052757.7311178,429642.076453559,1555695.66006635)
(27130554.2074736,335829.585137463,2749289.24736702)
(25368724.8929717,245601.87303146,5028532.39978704)
(19705805.3998111,132728.88980193,12278169.0901044)
(0,0,0)
(0,0,0)
(0,0,0)
(0,0,0)
(0,0,0)
(0,0,0)
(29393764.7016878,1131965.03646151,34574.3509601186)
(29375911.0016902,1122386.71178024,73422.8859771071)
(29330608.4940044,1102151.67247423,123780.209180975)
(29232326.628502,1068780.53506621,202241.29618086)
(29023769.3582966,1018237.25461508,352722.975975365)
(28589437.4947921,944807.199210489,691079.344009099)
(27773440.3302726,843172.459156229,1461909.64541088)
(26891969.132729,713064.559305952,2659081.14143612)
(25208627.4313765,519370.347127503,4915723.71169503)
(19627259.2706803,274662.937305705,12145485.613402)
(0,0,0)
(0,0,0)
(0,0,0)
(0,0,0)
(0,0,0)
(0,0,0)
(28911212.9454317,1688832.16156112,25017.3985788519)
(28895666.0880817,1681415.5065362,53192.2842452323)
(28855557.001153,1666197.95416288,90438.5506845591)
(28766384.3360508,1642042.3233409,151720.949519011)
(28571949.8293602,1606099.39968459,279326.754807394)
(28156673.7500952,1550177.95953444,589446.240971477)
(27365318.5286407,1452878.83015561,1331807.38293738)
(26569849.4994438,1280194.74296021,2465356.41610244)
(24971571.5203939,935030.370013196,4671001.84560191)
(19493239.9806142,499861.47385927,11870889.1159768)
(0,0,0)
(0,0,0)
(0,0,0)
(0,0,0)
(0,0,0)
(0,0,0)
(27946867.7133504,2676368.69114475,17661.3144583983)
(27934577.6984583,2670350.03670379,38019.5854704948)
(27902648.392787,2658165.2153778,66319.3972167288)
(27830633.1982622,2639318.56077962,115847.228646177)
(27670443.6276457,2612149.97825123,223502.054214318)
(27318226.383595,2568514.36234523,492170.358454925)
(26625633.6143841,2468443.71329499,1159100.45800781)
(26106958.3134997,2158592.11579636,2120125.81378865)
(24493331.4723923,1653535.29424782,4235781.98541838)
(19183010.199666,945752.516571956,11371002.5960357)
(0,0,0)
(0,0,0)
(0,0,0)
(0,0,0)
(0,0,0)
(0,0,0)
(25767214.8513428,4943553.43288714,11731.8407226327)
(25758938.8803515,4937724.82472206,25958.7110056059)
(25737620.9375527,4925200.19128718,47598.663149231)
(25690530.4384613,4903327.08753679,88772.4132493961)
(25590291.8243277,4864750.33204531,179979.002548808)
(25386351.9602214,4788324.1927609,392122.695092738)
(25018675.6761503,4616529.172687,849181.360093299)
(24502179.2854737,4225506.83731414,1614968.68727554)
(23044063.2958394,3534540.83496772,3527879.18340641)
(18239226.4291421,2304469.34370875,10425088.5202883)
(0,0,0)
(0,0,0)
(0,0,0)
(0,0,0)
(0,0,0)
(0,0,0)
(19858077.5416015,12219997.1287533,6011.21611908857)
(19853983.6265544,12213858.9578458,13644.7290454304)
(19843522.0985415,12199973.3411547,26015.7441156699)
(19820905.3697268,12173647.5060252,50432.9058141198)
(19774328.2640576,12122954.9862934,103730.141299962)
(19682690.4401083,12019028.6414525,220396.57103072)
(19512976.6964706,11798560.0933284,458113.40111305)
(19187948.7387381,11340542.673459,923846.138760707)
(18239986.8022077,10416930.9892204,2297508.41543622)
(14830767.3204132,8119811.39128371,8120250.00754569)
(0,0,0)
(0,0,0)
(0,0,0)
(0,0,0)
(0,0,0)
(0,0,0)
(0,0,0)
(0,0,0)
(0,0,0)
(0,0,0)
(0,0,0)
(0,0,0)
(0,0,0)
(0,0,0)
(0,0,0)
(0,0,0)
(0,0,0)
(0,0,0)
(0,0,0)
(0,0,0)
(0,0,0)
(0,0,0)
(0,0,0)
(0,0,0)
(0,0,0)
(0,0,0)
(0,0,0)
(0,0,0)
(0,0,0)
(0,0,0)
(0,0,0)
(0,0,0)
(0,0,0)
(0,0,0)
(0,0,0)
(0,0,0)
(0,0,0)
(0,0,0)
(0,0,0)
(0,0,0)
(0,0,0)
(0,0,0)
(0,0,0)
(0,0,0)
(0,0,0)
(0,0,0)
(0,0,0)
(0,0,0)
(0,0,0)
(0,0,0)
(0,0,0)
(0,0,0)
(0,0,0)
(0,0,0)
(0,0,0)
(0,0,0)
(0,0,0)
(0,0,0)
(0,0,0)
(0,0,0)
(0,0,0)
(0,0,0)
(0,0,0)
(0,0,0)
(0,0,0)
(0,0,0)
(0,0,0)
(0,0,0)
(0,0,0)
(0,0,0)
(0,0,0)
(0,0,0)
(0,0,0)
(0,0,0)
(0,0,0)
(0,0,0)
(0,0,0)
(0,0,0)
(0,0,0)
(0,0,0)
(0,0,0)
(0,0,0)
(0,0,0)
(0,0,0)
(0,0,0)
(0,0,0)
(0,0,0)
(0,0,0)
(0,0,0)
(0,0,0)
(0,0,0)
(0,0,0)
(0,0,0)
(0,0,0)
(0,0,0)
(0,0,0)
(0,0,0)
(0,0,0)
(0,0,0)
(0,0,0)
(0,0,0)
(0,0,0)
(-521621.7722429,76109.6523721469,63698.3469942123)
(-543202.91233621,71561.0593003388,133979.251711134)
(-592027.965361237,61518.1114071609,218156.519909274)
(-680854.513420613,44201.4487162973,324449.241945674)
(-832782.070399677,17928.403497968,459460.062137675)
(-1086167.38407962,-16103.927305606,616085.117386195)
(-1500463.09227767,-47426.7445144692,730758.419169753)
(-2156088.61870206,-53982.3579655631,544079.650280277)
(-3096139.86418154,-37113.6505691635,-893519.631196602)
(-3795180.82077435,-16995.3681278101,-7556502.89132367)
(0,0,0)
(0,0,0)
(0,0,0)
(0,0,0)
(0,0,0)
(0,0,0)
(-544466.181815378,159671.826771862,59115.8829386354)
(-565665.768080941,151068.950765376,123900.463184998)
(-613986.429128712,131765.773463829,200888.794300045)
(-702910.285125717,97374.0440849872,298272.045804033)
(-857136.751280291,41888.1892256327,425517.916153748)
(-1117396.74308333,-37223.8292545153,584827.323845828)
(-1541417.41359426,-119750.008153812,724303.081085321)
(-2190721.93193556,-133797.832726346,561039.513640395)
(-3113497.96045188,-83134.9883786364,-873312.304745157)
(-3801294.33087214,-34805.5935732749,-7539421.25387626)
(0,0,0)
(0,0,0)
(0,0,0)
(0,0,0)
(0,0,0)
(0,0,0)
(-595551.011424863,257655.351615527,50480.8033957218)
(-616033.426254327,246277.024202627,104559.058249469)
(-663427.946081822,220270.619301561,166506.856910491)
(-753147.089702907,171913.260698009,242849.665462911)
(-915336.695118667,87038.2957526681,346556.930984835)
(-1202416.23814027,-52911.5888014339,502493.279762389)
(-1678357.11457352,-234921.311239455,710433.904952118)
(-2310676.78260766,-260557.978882367,611842.310908965)
(-3166194.55629829,-133564.412973995,-824881.448045535)
(-3818219.7898265,-46842.9077804783,-7504523.34307938)
(0,0,0)
(0,0,0)
(0,0,0)
(0,0,0)
(0,0,0)
(0,0,0)
(-686678.122333279,375049.626482599,39049.5678589575)
(-706064.412827804,363032.892499873,78494.9590744477)
(-752087.292436968,335509.828131582,118152.067324594)
(-843639.146814975,283327.451864647,158050.802715482)
(-1023883.77802206,186087.293711307,206760.28327263)
(-1389690.8867888,338.984511812444,320725.265401632)
(-2103892.63469039,-328306.926608545,684987.299459221)
(-2703224.80840089,-380018.281527013,738978.698474559)
(-3298149.08872042,-131884.591205665,-738069.441467295)
(-3854466.00930488,-28859.3764666325,-7457647.42517006)
(0,0,0)
(0,0,0)
(0,0,0)
(0,0,0)
(0,0,0)
(0,0,0)
(-839634.002671362,511139.273301368,27020.7061238879)
(-857411.179699201,500839.02336245,50951.0805421108)
(-900871.87417402,478069.011093759,66037.5661985997)
(-992447.508282869,437569.909092727,60889.9410255862)
(-1194023.86594163,370320.174403172,21124.9655032729)
(-1710089.86399123,267458.851995562,-7742.65603754706)
(-3397262.54471694,150104.975235225,633426.23659315)
(-4030709.96710206,97049.988072373,987182.660209239)
(-3556785.47047828,85363.8887444682,-634994.937650967)
(-3913804.06042032,54109.1644297583,-7428793.49967601)
(0,0,0)
(0,0,0)
(0,0,0)
(0,0,0)
(0,0,0)
(0,0,0)
(-1091628.04056818,649348.765620108,16743.7685771786)
(-1107207.37797811,642077.07806505,28184.6121827431)
(-1146162.39006274,626975.012455388,25610.0135280025)
(-1231309.71871887,602673.668452186,-6296.87997095602)
(-1427278.43371077,566254.338092925,-81622.7330134417)
(-1942050.90739519,511850.765197131,-124965.72538779)
(-3547011.32304891,434789.940437248,580361.481371417)
(-4127262.67498107,390737.132369089,975466.663424552)
(-3676959.09193899,282193.981418195,-666216.387294022)
(-3972989.27127101,140590.085187151,-7482888.24746014)
(0,0,0)
(0,0,0)
(0,0,0)
(0,0,0)
(0,0,0)
(0,0,0)
(-1503593.06765151,724215.595590094,9499.70175305678)
(-1516424.43533623,720091.689617745,13136.1322580986)
(-1549165.0549787,713031.675109179,1362.04437575658)
(-1623355.62372758,706016.757936534,-42680.5666903213)
(-1803277.71554548,704327.900717903,-135966.065769859)
(-2307388.41212482,711464.063715904,-201956.683428703)
(-3981392.17042679,712884.529834983,536219.944880926)
(-4517488.11185374,817051.354565036,866803.852622345)
(-3858606.19192387,456634.312821415,-807898.247823108)
(-4070605.81349739,189579.634126204,-7623481.48401086)
(0,0,0)
(0,0,0)
(0,0,0)
(0,0,0)
(0,0,0)
(0,0,0)
(-2161067.19596011,496273.039085791,5437.98445458357)
(-2170761.47951215,494283.029990291,6146.34069233948)
(-2195736.62324319,492731.097761763,-5607.54729021235)
(-2253900.26581762,498801.73714536,-44298.5437794302)
(-2402793.24140594,531574.704132694,-128747.95950267)
(-2865308.42683366,636275.188513845,-200463.755232257)
(-4693842.051609,861141.381408231,640315.577827409)
(-3825879.31388242,553503.544976131,506261.533438274)
(-4003121.32824447,204017.277549474,-1075108.1120131)
(-4221646.67925969,1849.18407971743,-7813160.26440109)
(0,0,0)
(0,0,0)
(0,0,0)
(0,0,0)
(0,0,0)
(0,0,0)
(-3104134.71055876,-966332.293659523,3515.41328658083)
(-3110435.73297443,-967950.518373737,4684.09361636814)
(-3126414.74695143,-969554.187277298,565.58179942542)
(-3162180.46456371,-966927.902235052,-11433.3571552947)
(-3244189.59518646,-951850.288828125,-23966.4260404179)
(-3440299.21245764,-915918.388008641,24438.8418007352)
(-3869083.00809738,-889699.991355431,332599.417451862)
(-4009550.18831253,-1089229.13267529,156622.087529255)
(-4378324.66336487,-1269955.70380162,-1277456.45327557)
(-4447435.34044516,-1104222.99941561,-7815161.98155317)
(0,0,0)
(0,0,0)
(0,0,0)
(0,0,0)
(0,0,0)
(0,0,0)
(-3801263.35560873,-7639371.1314645,1940.2536550079)
(-3804325.33328946,-7641351.5541709,3210.76793579565)
(-3811967.96918199,-7644711.10319062,3418.27021241586)
(-3828511.20380366,-7648380.25822307,3847.71837060979)
(-3863739.25050023,-7652453.48649795,12078.9492380823)
(-3937596.34917794,-7664683.3188551,50691.1880104502)
(-4074119.85807545,-7715396.94536086,133045.215201748)
(-4226011.12239199,-7848400.82485892,-24262.7128449025)
(-4448727.1429711,-7823944.9246649,-1111999.02816311)
(-4293130.89044441,-6711571.17917341,-6711192.11890799)
(0,0,0)
(0,0,0)
(0,0,0)
(0,0,0)
(0,0,0)
(0,0,0)
(0,0,0)
(0,0,0)
(0,0,0)
(0,0,0)
(0,0,0)
(0,0,0)
(0,0,0)
(0,0,0)
(0,0,0)
(0,0,0)
(0,0,0)
(0,0,0)
(0,0,0)
(0,0,0)
(0,0,0)
(0,0,0)
(0,0,0)
(0,0,0)
(0,0,0)
(0,0,0)
(0,0,0)
(0,0,0)
(0,0,0)
(0,0,0)
(0,0,0)
(0,0,0)
(0,0,0)
(0,0,0)
(0,0,0)
(0,0,0)
(0,0,0)
(0,0,0)
(0,0,0)
(0,0,0)
(0,0,0)
(0,0,0)
(0,0,0)
(0,0,0)
(0,0,0)
(0,0,0)
(0,0,0)
(0,0,0)
(0,0,0)
(0,0,0)
(0,0,0)
(0,0,0)
(0,0,0)
(0,0,0)
(0,0,0)
(0,0,0)
(0,0,0)
(0,0,0)
(0,0,0)
(0,0,0)
(0,0,0)
(0,0,0)
(0,0,0)
(0,0,0)
(0,0,0)
(0,0,0)
(0,0,0)
(0,0,0)
(0,0,0)
(0,0,0)
(0,0,0)
(0,0,0)
(0,0,0)
(0,0,0)
(0,0,0)
(0,0,0)
(0,0,0)
(0,0,0)
(0,0,0)
(0,0,0)
(0,0,0)
(0,0,0)
(0,0,0)
(0,0,0)
(0,0,0)
(0,0,0)
(0,0,0)
(0,0,0)
(0,0,0)
(0,0,0)
(0,0,0)
(0,0,0)
(0,0,0)
(0,0,0)
(0,0,0)
(0,0,0)
(0,0,0)
(0,0,0)
(0,0,0)
(0,0,0)
(0,0,0)
(0,0,0)
(-617098.918617644,53347.63210437,42129.5142703745)
(-635409.938271153,49145.671817883,85190.8683874381)
(-675806.769828278,39577.6753239524,129391.997530528)
(-746225.482171502,22176.0851476201,172586.881133794)
(-859831.350406752,-6407.89281833247,206044.053959203)
(-1034394.51969946,-47351.0624941305,201622.252073171)
(-1285264.12409482,-88408.1293501146,74831.413240441)
(-1596273.59769978,-88623.4847400196,-396360.123021815)
(-1844921.88941342,-54491.2341425412,-1593086.86364736)
(-1603066.55551398,-23136.5791753803,-3762064.54973232)
(0,0,0)
(0,0,0)
(0,0,0)
(0,0,0)
(0,0,0)
(0,0,0)
(-637831.959384846,108783.195622114,37930.2140517212)
(-655110.252237017,100883.481545783,75636.8884799009)
(-693255.284105393,82427.6905212866,112055.728259252)
(-759954.609133433,47183.0501885605,144093.087226022)
(-868378.839093726,-16292.8341285173,165220.116349636)
(-1037913.54573388,-122275.110580311,160660.967086372)
(-1287146.32945326,-256740.890898741,74722.6444940013)
(-1588710.87931197,-253754.278655672,-362157.614213943)
(-1832675.96653529,-135803.425588854,-1561667.41668421)
(-1595517.81253573,-51713.5311751088,-3738866.98302098)
(0,0,0)
(0,0,0)
(0,0,0)
(0,0,0)
(0,0,0)
(0,0,0)
(-683413.123544561,166646.983295466,29998.3244463491)
(-698693.373851191,156355.052846571,57186.7007424235)
(-732354.677802149,131685.555255504,76855.5677285309)
(-791320.656588164,81498.4918664002,80713.6929359466)
(-888884.090439011,-21462.9165342434,59431.1706620147)
(-1051464.885694,-240192.81094835,26397.5185837577)
(-1326117.38858489,-660467.677115072,77884.5788114585)
(-1589327.67125333,-653111.83454647,-244106.976652088)
(-1803089.37499466,-265514.657099464,-1477500.92644511)
(-1577207.41365794,-83103.1464167509,-3687123.68737205)
(0,0,0)
(0,0,0)
(0,0,0)
(0,0,0)
(0,0,0)
(0,0,0)
(-761838.325165454,222155.90767699,19651.2784506607)
(-774313.175996157,211752.910862449,32502.1836031432)
(-801422.806329585,186797.35011345,26725.9026378172)
(-847908.237008081,134599.503718322,-22106.0190209976)
(-924356.976237502,15971.0400978994,-159066.777437697)
(-1075268.5705646,-320117.647383338,-393564.257226913)
(-1621658.17758723,-1621768.15400559,85501.7625604441)
(-1706836.40053664,-1707623.38526443,143624.905414136)
(-1734383.74346666,-390635.047301816,-1295020.04963728)
(-1540279.33529005,-88270.1252161053,-3604039.74485284)
(0,0,0)
(0,0,0)
(0,0,0)
(0,0,0)
(0,0,0)
(0,0,0)
(-885767.365952899,259056.124726556,9233.14623197159)
(-894962.787367911,250990.769990235,7546.89477289743)
(-913913.291748155,232764.727860712,-25379.0654002192)
(-941297.617019062,198674.981717624,-140604.434663326)
(-960665.627090716,136967.081629079,-494958.715045422)
(-865562.511613944,35324.4978696979,-1694928.21267575)