/*--------------------------------*- C++ -*----------------------------------*\
| =========                 |                                                 |
| \\      /  F ield         | foam-extend: Open Source CFD                    |
|  \\    /   O peration     | Version:     4.0                                |
|   \\  /    A nd           | Web:         http://www.foam-extend.org         |
|    \\/     M anipulation  |                                                 |
\*---------------------------------------------------------------------------*/
FoamFile
{
    version 2.0;
    format ascii;
    class volVectorField;
    location "754";
    object      E;
}
// * * * * * * * * * * * * * * * * * * * * * * * * * * * * * * * * * * * * * //

dimensions      [0 1 -1 0 0 0 0];

internalField   nonuniform List<vector>
4096
(
(0,0,0)
(0,0,0)
(0,0,0)
(0,0,0)
(0,0,0)
(0,0,0)
(0,0,0)
(0,0,0)
(0,0,0)
(0,0,0)
(0,0,0)
(0,0,0)
(0,0,0)
(0,0,0)
(0,0,0)
(0,0,0)
(0,0,0)
(0,0,0)
(0,0,0)
(0,0,0)
(0,0,0)
(0,0,0)
(0,0,0)
(0,0,0)
(0,0,0)
(0,0,0)
(0,0,0)
(0,0,0)
(0,0,0)
(0,0,0)
(0,0,0)
(0,0,0)
(0,0,0)
(0,0,0)
(0,0,0)
(0,0,0)
(0,0,0)
(0,0,0)
(0,0,0)
(0,0,0)
(0,0,0)
(0,0,0)
(0,0,0)
(0,0,0)
(0,0,0)
(0,0,0)
(0,0,0)
(0,0,0)
(0,0,0)
(0,0,0)
(0,0,0)
(0,0,0)
(0,0,0)
(0,0,0)
(0,0,0)
(0,0,0)
(0,0,0)
(0,0,0)
(0,0,0)
(0,0,0)
(0,0,0)
(0,0,0)
(0,0,0)
(0,0,0)
(0,0,0)
(0,0,0)
(0,0,0)
(0,0,0)
(0,0,0)
(0,0,0)
(0,0,0)
(0,0,0)
(0,0,0)
(0,0,0)
(0,0,0)
(0,0,0)
(0,0,0)
(0,0,0)
(0,0,0)
(0,0,0)
(0,0,0)
(0,0,0)
(0,0,0)
(0,0,0)
(0,0,0)
(0,0,0)
(0,0,0)
(0,0,0)
(0,0,0)
(0,0,0)
(0,0,0)
(0,0,0)
(0,0,0)
(0,0,0)
(0,0,0)
(0,0,0)
(0,0,0)
(0,0,0)
(0,0,0)
(0,0,0)
(0,0,0)
(0,0,0)
(0,0,0)
(0,0,0)
(0,0,0)
(0,0,0)
(0,0,0)
(0,0,0)
(0,0,0)
(0,0,0)
(0,0,0)
(0,0,0)
(0,0,0)
(0,0,0)
(0,0,0)
(0,0,0)
(0,0,0)
(0,0,0)
(0,0,0)
(0,0,0)
(0,0,0)
(0,0,0)
(0,0,0)
(0,0,0)
(0,0,0)
(0,0,0)
(0,0,0)
(0,0,0)
(0,0,0)
(0,0,0)
(0,0,0)
(0,0,0)
(0,0,0)
(0,0,0)
(0,0,0)
(0,0,0)
(0,0,0)
(0,0,0)
(0,0,0)
(0,0,0)
(0,0,0)
(0,0,0)
(0,0,0)
(0,0,0)
(0,0,0)
(0,0,0)
(0,0,0)
(0,0,0)
(0,0,0)
(0,0,0)
(0,0,0)
(0,0,0)
(0,0,0)
(0,0,0)
(0,0,0)
(0,0,0)
(0,0,0)
(0,0,0)
(0,0,0)
(0,0,0)
(0,0,0)
(0,0,0)
(0,0,0)
(0,0,0)
(0,0,0)
(0,0,0)
(0,0,0)
(0,0,0)
(0,0,0)
(0,0,0)
(0,0,0)
(0,0,0)
(0,0,0)
(0,0,0)
(0,0,0)
(0,0,0)
(0,0,0)
(0,0,0)
(0,0,0)
(0,0,0)
(0,0,0)
(0,0,0)
(0,0,0)
(0,0,0)
(0,0,0)
(0,0,0)
(0,0,0)
(0,0,0)
(0,0,0)
(0,0,0)
(0,0,0)
(0,0,0)
(0,0,0)
(0,0,0)
(0,0,0)
(0,0,0)
(0,0,0)
(0,0,0)
(0,0,0)
(0,0,0)
(0,0,0)
(0,0,0)
(0,0,0)
(0,0,0)
(0,0,0)
(0,0,0)
(0,0,0)
(0,0,0)
(0,0,0)
(0,0,0)
(0,0,0)
(0,0,0)
(0,0,0)
(0,0,0)
(0,0,0)
(0,0,0)
(0,0,0)
(0,0,0)
(0,0,0)
(0,0,0)
(0,0,0)
(0,0,0)
(0,0,0)
(0,0,0)
(0,0,0)
(0,0,0)
(0,0,0)
(0,0,0)
(0,0,0)
(0,0,0)
(0,0,0)
(0,0,0)
(0,0,0)
(0,0,0)
(0,0,0)
(0,0,0)
(0,0,0)
(0,0,0)
(0,0,0)
(0,0,0)
(0,0,0)
(0,0,0)
(0,0,0)
(0,0,0)
(0,0,0)
(0,0,0)
(0,0,0)
(0,0,0)
(0,0,0)
(0,0,0)
(0,0,0)
(0,0,0)
(0,0,0)
(0,0,0)
(0,0,0)
(0,0,0)
(0,0,0)
(0,0,0)
(0,0,0)
(0,0,0)
(0,0,0)
(0,0,0)
(0,0,0)
(0,0,0)
(0,0,0)
(0,0,0)
(0,0,0)
(0,0,0)
(0,0,0)
(0,0,0)
(0,0,0)
(0,0,0)
(0,0,0)
(0,0,0)
(0,0,0)
(0,0,0)
(0,0,0)
(0,0,0)
(0,0,0)
(0,0,0)
(0,0,0)
(0,0,0)
(0,0,0)
(0,0,0)
(0,0,0)
(0,0,0)
(0,0,0)
(0,0,0)
(0,0,0)
(0,0,0)
(0,0,0)
(0,0,0)
(0,0,0)
(0,0,0)
(0,0,0)
(0,0,0)
(0,0,0)
(0,0,0)
(0,0,0)
(0,0,0)
(0,0,0)
(0,0,0)
(0,0,0)
(0,0,0)
(0,0,0)
(0,0,0)
(0,0,0)
(0,0,0)
(0,0,0)
(0,0,0)
(0,0,0)
(0,0,0)
(0,0,0)
(0,0,0)
(0,0,0)
(0,0,0)
(0,0,0)
(0,0,0)
(0,0,0)
(0,0,0)
(0,0,0)
(0,0,0)
(0,0,0)
(0,0,0)
(0,0,0)
(0,0,0)
(0,0,0)
(0,0,0)
(0,0,0)
(0,0,0)
(0,0,0)
(0,0,0)
(0,0,0)
(0,0,0)
(0,0,0)
(0,0,0)
(0,0,0)
(0,0,0)
(0,0,0)
(0,0,0)
(0,0,0)
(0,0,0)
(0,0,0)
(0,0,0)
(0,0,0)
(0,0,0)
(0,0,0)
(0,0,0)
(0,0,0)
(0,0,0)
(0,0,0)
(0,0,0)
(0,0,0)
(0,0,0)
(0,0,0)
(0,0,0)
(0,0,0)
(0,0,0)
(0,0,0)
(0,0,0)
(0,0,0)
(0,0,0)
(0,0,0)
(0,0,0)
(0,0,0)
(0,0,0)
(0,0,0)
(0,0,0)
(0,0,0)
(0,0,0)
(0,0,0)
(0,0,0)
(0,0,0)
(0,0,0)
(0,0,0)
(0,0,0)
(0,0,0)
(0,0,0)
(0,0,0)
(0,0,0)
(0,0,0)
(0,0,0)
(0,0,0)
(0,0,0)
(0,0,0)
(0,0,0)
(0,0,0)
(0,0,0)
(0,0,0)
(0,0,0)
(0,0,0)
(0,0,0)
(0,0,0)
(0,0,0)
(0,0,0)
(0,0,0)
(0,0,0)
(0,0,0)
(0,0,0)
(0,0,0)
(0,0,0)
(0,0,0)
(0,0,0)
(0,0,0)
(0,0,0)
(0,0,0)
(0,0,0)
(0,0,0)
(0,0,0)
(0,0,0)
(0,0,0)
(0,0,0)
(0,0,0)
(0,0,0)
(0,0,0)
(0,0,0)
(0,0,0)
(0,0,0)
(0,0,0)
(0,0,0)
(0,0,0)
(0,0,0)
(0,0,0)
(0,0,0)
(0,0,0)
(0,0,0)
(0,0,0)
(0,0,0)
(0,0,0)
(0,0,0)
(0,0,0)
(0,0,0)
(0,0,0)
(0,0,0)
(0,0,0)
(0,0,0)
(0,0,0)
(0,0,0)
(0,0,0)
(0,0,0)
(0,0,0)
(0,0,0)
(0,0,0)
(0,0,0)
(0,0,0)
(0,0,0)
(0,0,0)
(0,0,0)
(0,0,0)
(0,0,0)
(0,0,0)
(0,0,0)
(0,0,0)
(0,0,0)
(0,0,0)
(0,0,0)
(0,0,0)
(0,0,0)
(0,0,0)
(0,0,0)
(0,0,0)
(0,0,0)
(0,0,0)
(0,0,0)
(0,0,0)
(0,0,0)
(0,0,0)
(0,0,0)
(0,0,0)
(0,0,0)
(0,0,0)
(0,0,0)
(0,0,0)
(0,0,0)
(0,0,0)
(0,0,0)
(0,0,0)
(0,0,0)
(0,0,0)
(0,0,0)
(0,0,0)
(0,0,0)
(0,0,0)
(0,0,0)
(0,0,0)
(0,0,0)
(0,0,0)
(0,0,0)
(0,0,0)
(0,0,0)
(0,0,0)
(0,0,0)
(0,0,0)
(0,0,0)
(0,0,0)
(0,0,0)
(0,0,0)
(0,0,0)
(0,0,0)
(0,0,0)
(0,0,0)
(0,0,0)
(0,0,0)
(0,0,0)
(0,0,0)
(0,0,0)
(0,0,0)
(0,0,0)
(0,0,0)
(0,0,0)
(0,0,0)
(0,0,0)
(0,0,0)
(0,0,0)
(0,0,0)
(0,0,0)
(0,0,0)
(0,0,0)
(0,0,0)
(0,0,0)
(0,0,0)
(0,0,0)
(0,0,0)
(0,0,0)
(0,0,0)
(0,0,0)
(0,0,0)
(0,0,0)
(0,0,0)
(0,0,0)
(0,0,0)
(0,0,0)
(0,0,0)
(0,0,0)
(0,0,0)
(0,0,0)
(0,0,0)
(0,0,0)
(0,0,0)
(0,0,0)
(0,0,0)
(0,0,0)
(0,0,0)
(0,0,0)
(0,0,0)
(0,0,0)
(0,0,0)
(0,0,0)
(0,0,0)
(0,0,0)
(0,0,0)
(0,0,0)
(0,0,0)
(0,0,0)
(0,0,0)
(0,0,0)
(0,0,0)
(0,0,0)
(0,0,0)
(0,0,0)
(0,0,0)
(0,0,0)
(0,0,0)
(0,0,0)
(0,0,0)
(0,0,0)
(0,0,0)
(0,0,0)
(0,0,0)
(0,0,0)
(0,0,0)
(0,0,0)
(0,0,0)
(0,0,0)
(0,0,0)
(0,0,0)
(0,0,0)
(0,0,0)
(0,0,0)
(0,0,0)
(0,0,0)
(0,0,0)
(0,0,0)
(0,0,0)
(0,0,0)
(0,0,0)
(0,0,0)
(0,0,0)
(0,0,0)
(0,0,0)
(0,0,0)
(0,0,0)
(0,0,0)
(0,0,0)
(0,0,0)
(0,0,0)
(0,0,0)
(0,0,0)
(0,0,0)
(0,0,0)
(0,0,0)
(0,0,0)
(0,0,0)
(0,0,0)
(0,0,0)
(0,0,0)
(0,0,0)
(0,0,0)
(0,0,0)
(0,0,0)
(0,0,0)
(0,0,0)
(0,0,0)
(0,0,0)
(0,0,0)
(0,0,0)
(0,0,0)
(0,0,0)
(0,0,0)
(0,0,0)
(0,0,0)
(0,0,0)
(0,0,0)
(0,0,0)
(0,0,0)
(0,0,0)
(0,0,0)
(0,0,0)
(0,0,0)
(0,0,0)
(0,0,0)
(0,0,0)
(0,0,0)
(0,0,0)
(0,0,0)
(0,0,0)
(0,0,0)
(0,0,0)
(0,0,0)
(0,0,0)
(0,0,0)
(0,0,0)
(0,0,0)
(0,0,0)
(0,0,0)
(0,0,0)
(0,0,0)
(0,0,0)
(0,0,0)
(0,0,0)
(0,0,0)
(0,0,0)
(0,0,0)
(0,0,0)
(0,0,0)
(0,0,0)
(0,0,0)
(0,0,0)
(0,0,0)
(0,0,0)
(0,0,0)
(0,0,0)
(0,0,0)
(0,0,0)
(0,0,0)
(0,0,0)
(0,0,0)
(0,0,0)
(0,0,0)
(0,0,0)
(0,0,0)
(0,0,0)
(0,0,0)
(0,0,0)
(0,0,0)
(0,0,0)
(0,0,0)
(0,0,0)
(0,0,0)
(0,0,0)
(0,0,0)
(0,0,0)
(0,0,0)
(0,0,0)
(0,0,0)
(0,0,0)
(0,0,0)
(0,0,0)
(0,0,0)
(0,0,0)
(0,0,0)
(0,0,0)
(0,0,0)
(0,0,0)
(0,0,0)
(0,0,0)
(0,0,0)
(0,0,0)
(0,0,0)
(0,0,0)
(0,0,0)
(0,0,0)
(0,0,0)
(0,0,0)
(0,0,0)
(0,0,0)
(0,0,0)
(0,0,0)
(0,0,0)
(0,0,0)
(0,0,0)
(0,0,0)
(0,0,0)
(0,0,0)
(0,0,0)
(0,0,0)
(0,0,0)
(0,0,0)
(0,0,0)
(0,0,0)
(0,0,0)
(0,0,0)
(0,0,0)
(0,0,0)
(0,0,0)
(0,0,0)
(0,0,0)
(0,0,0)
(0,0,0)
(0,0,0)
(0,0,0)
(0,0,0)
(0,0,0)
(0,0,0)
(0,0,0)
(0,0,0)
(0,0,0)
(0,0,0)
(0,0,0)
(0,0,0)
(0,0,0)
(0,0,0)
(0,0,0)
(0,0,0)
(0,0,0)
(0,0,0)
(0,0,0)
(0,0,0)
(0,0,0)
(0,0,0)
(0,0,0)
(0,0,0)
(0,0,0)
(0,0,0)
(0,0,0)
(0,0,0)
(0,0,0)
(0,0,0)
(0,0,0)
(0,0,0)
(0,0,0)
(0,0,0)
(0,0,0)
(0,0,0)
(0,0,0)
(0,0,0)
(0,0,0)
(0,0,0)
(0,0,0)
(0,0,0)
(0,0,0)
(0,0,0)
(0,0,0)
(0,0,0)
(0,0,0)
(0,0,0)
(0,0,0)
(0,0,0)
(0,0,0)
(0,0,0)
(0,0,0)
(0,0,0)
(0,0,0)
(0,0,0)
(0,0,0)
(0,0,0)
(0,0,0)
(0,0,0)
(0,0,0)
(0,0,0)
(0,0,0)
(0,0,0)
(0,0,0)
(0,0,0)
(0,0,0)
(0,0,0)
(0,0,0)
(0,0,0)
(0,0,0)
(0,0,0)
(0,0,0)
(0,0,0)
(0,0,0)
(0,0,0)
(0,0,0)
(0,0,0)
(0,0,0)
(0,0,0)
(0,0,0)
(0,0,0)
(0,0,0)
(0,0,0)
(0,0,0)
(0,0,0)
(0,0,0)
(0,0,0)
(0,0,0)
(0,0,0)
(0,0,0)
(-126713.254129095,67507.0638633605,59206.1902657346)
(-134005.619490637,64715.0308604899,128496.778895883)
(-150921.812444413,58885.9476017772,220532.643738518)
(-182813.671112725,49759.1095512623,353587.205299983)
(-240362.06301482,37449.8863083916,556499.382006417)
(-343622.992952751,23301.4329229012,876820.942036253)
(-530577.702688564,10427.9323931174,1396970.71233173)
(-868498.46799985,2553.33601179681,2262915.84431978)
(-1432501.02963669,-49.8653024646599,3695466.73925899)
(-1996001.45605015,-259.62775524241,5691727.82306439)
(0,0,0)
(0,0,0)
(0,0,0)
(0,0,0)
(0,0,0)
(0,0,0)
(-134007.657140969,145092.936007819,56421.7849965103)
(-141382.911067328,139818.018901305,122701.708023026)
(-158579.828147205,128710.520136036,211456.963635969)
(-191229.60743271,111074.609617118,341371.071002826)
(-250349.730005395,86733.1410688279,542437.546247782)
(-356091.689494051,57801.5506066471,864029.118058094)
(-545127.203905387,30418.3840317264,1389165.87032485)
(-881771.452601933,13094.4482730604,2260396.21066549)
(-1441346.39333186,6327.87481876519,3695364.86387618)
(-2000113.5162588,3195.5082002151,5692023.24417941)
(0,0,0)
(0,0,0)
(0,0,0)
(0,0,0)
(0,0,0)
(0,0,0)
(-150653.435390283,244545.597801558,51200.7735965438)
(-158164.492329584,237462.835617939,111720.449209495)
(-175900.994983313,222406.332840278,193925.631488571)
(-210196.379320216,198058.954299139,317137.666126768)
(-273103.868982328,163375.089420994,513599.586756929)
(-385423.471095917,120063.55023237,836761.058227125)
(-581000.741200395,76244.3569014933,1371935.82655776)
(-914811.619763177,46164.6656965857,2253677.22889738)
(-1462621.0441006,30339.4332976019,3692286.71451921)
(-2009747.0703111,16414.1781320781,5688815.11489844)
(0,0,0)
(0,0,0)
(0,0,0)
(0,0,0)
(0,0,0)
(0,0,0)
(-181731.537917855,382054.484304428,44222.6514149849)
(-189393.419817158,374167.424105133,96911.4827449506)
(-207825.265062577,357326.106623469,169816.97402433)
(-244498.076740449,329674.031048534,282699.97401538)
(-313631.451757568,289173.303896426,470533.211297519)
(-438540.821220393,235998.689278242,793138.893472035)
(-649660.431039955,177051.611044501,1341992.07036899)
(-978690.458031649,128958.638034354,2237888.55606284)
(-1501593.46535105,91522.3943981323,3678299.06031332)
(-2026758.63372124,49226.3789882682,5672245.49317848)
(0,0,0)
(0,0,0)
(0,0,0)
(0,0,0)
(0,0,0)
(0,0,0)
(-237574.829978214,583138.534219494,36490.7800631481)
(-245196.600635037,575473.2181734,80381.586629917)
(-263955.515815075,559125.971694974,142537.237373487)
(-302597.741529609,532167.823284373,242641.186667261)
(-378163.679417984,492209.054706036,417769.115275641)
(-518681.917547615,437993.366131389,734456.355970092)
(-754215.416079014,371681.147922891,1294042.23517072)
(-1075921.92823882,298417.698171142,2200505.10327278)
(-1558216.84628282,214407.512320356,3635836.83163342)
(-2051341.61678471,113628.91910218,5622775.90830424)
(0,0,0)
(0,0,0)
(0,0,0)
(0,0,0)
(0,0,0)
(0,0,0)
(-338342.387608803,892529.008868363,28951.9129599319)
(-345558.467382764,885715.550040273,64268.048475822)
(-363684.67315454,871154.219915957,115924.473409379)
(-401943.774576453,846904.818022351,203131.253247853)
(-478314.561992386,809713.350278609,363941.519667668)
(-621497.272109414,755049.423150031,668382.734758446)
(-857736.81511309,676897.724855637,1220902.97293882)
(-1164866.20297526,567677.804741245,2116509.06934395)
(-1619554.78395964,415615.449594444,3534855.91602953)
(-2082246.21322359,221878.813273527,5508852.2350817)
(0,0,0)
(0,0,0)
(0,0,0)
(0,0,0)
(0,0,0)
(0,0,0)
(-523226.263750119,1393582.20949975,22173.0631187344)
(-529644.26931632,1387697.7801347,49835.1023406264)
(-545937.063298936,1375025.47692969,91900.908625833)
(-580859.351007505,1353387.15068733,166277.926968358)
(-651773.735018049,1318190.25324107,309574.759023945)
(-786302.172163856,1260491.600459,590434.753878827)
(-1008026.49459018,1163570.71359753,1111788.25972711)
(-1287317.99059648,1002399.11126897,1964384.94379586)
(-1710929.2713479,749996.464883055,3340933.1998551)
(-2132636.09368993,408665.951320636,5286782.15549796)
(0,0,0)
(0,0,0)
(0,0,0)
(0,0,0)
(0,0,0)
(0,0,0)
(-861385.898411035,2238691.47047585,16276.6374349251)
(-866531.888997743,2233319.28279383,37187.023773541)
(-879670.702693466,2221547.24300791,70335.9603887989)
(-908064.939320385,2200545.94668018,131242.103716318)
(-966345.253510478,2163786.85001118,251990.760456677)
(-1078182.85404862,2097055.64407893,493609.570885362)
(-1263878.528472,1970375.63032119,950683.182633694)
(-1489982.92032851,1731184.76201225,1711880.45221895)
(-1876829.34463673,1339325.14993662,2999381.11180211)
(-2229020.27003411,759170.069492446,4877897.26366433)
(0,0,0)
(0,0,0)
(0,0,0)
(0,0,0)
(0,0,0)
(0,0,0)
(-1427684.84061432,3655429.96965795,10946.34143222)
(-1431171.94811984,3650013.70462063,25423.8677252738)
(-1440096.85634211,3637794.60734805,49273.3597272101)
(-1459205.41805042,3614562.91737075,94461.8070870693)
(-1497710.65064481,3570718.28599039,185241.02175269)
(-1570076.5245175,3485510.47330053,366862.717048567)
(-1691629.69246104,3317462.91539026,711405.124440534)
(-1872231.84279585,2994940.89121979,1319880.83802883)
(-2182817.01270938,2422925.81353587,2419097.18713894)
(-2397134.5316339,1456813.35019666,4118588.43806863)
(0,0,0)
(0,0,0)
(0,0,0)
(0,0,0)
(0,0,0)
(0,0,0)
(-1993746.69175373,5643601.29405627,5575.36735538864)
(-1995489.21312255,5637961.28267988,13117.0024186988)
(-1999932.55327851,5624997.46101648,25846.7020288128)
(-2009333.79390692,5599361.08315798,50382.3301485112)
(-2027990.74451987,5549242.21593123,99849.1447275509)
(-2062842.46433249,5449547.32620637,198654.756154214)
(-2123661.07616958,5250970.78015255,388807.967561496)
(-2226167.13379663,4862153.00523822,747762.987339663)
(-2396587.75884093,4114416.45015987,1452860.10955659)
(-2413590.82739094,2661606.14311331,2661658.14403088)
(0,0,0)
(0,0,0)
(0,0,0)
(0,0,0)
(0,0,0)
(0,0,0)
(0,0,0)
(0,0,0)
(0,0,0)
(0,0,0)
(0,0,0)
(0,0,0)
(0,0,0)
(0,0,0)
(0,0,0)
(0,0,0)
(0,0,0)
(0,0,0)
(0,0,0)
(0,0,0)
(0,0,0)
(0,0,0)
(0,0,0)
(0,0,0)
(0,0,0)
(0,0,0)
(0,0,0)
(0,0,0)
(0,0,0)
(0,0,0)
(0,0,0)
(0,0,0)
(0,0,0)
(0,0,0)
(0,0,0)
(0,0,0)
(0,0,0)
(0,0,0)
(0,0,0)
(0,0,0)
(0,0,0)
(0,0,0)
(0,0,0)
(0,0,0)
(0,0,0)
(0,0,0)
(0,0,0)
(0,0,0)
(0,0,0)
(0,0,0)
(0,0,0)
(0,0,0)
(0,0,0)
(0,0,0)
(0,0,0)
(0,0,0)
(0,0,0)
(0,0,0)
(0,0,0)
(0,0,0)
(0,0,0)
(0,0,0)
(0,0,0)
(0,0,0)
(0,0,0)
(0,0,0)
(0,0,0)
(0,0,0)
(0,0,0)
(0,0,0)
(0,0,0)
(0,0,0)
(0,0,0)
(0,0,0)
(0,0,0)
(0,0,0)
(0,0,0)
(0,0,0)
(0,0,0)
(0,0,0)
(0,0,0)
(0,0,0)
(0,0,0)
(0,0,0)
(0,0,0)
(0,0,0)
(0,0,0)
(0,0,0)
(0,0,0)
(0,0,0)
(0,0,0)
(0,0,0)
(0,0,0)
(0,0,0)
(0,0,0)
(0,0,0)
(0,0,0)
(0,0,0)
(0,0,0)
(0,0,0)
(0,0,0)
(0,0,0)
(18719136.6449166,60142.403603191,51915.7432511662)
(18706898.354459,57302.6688722378,111617.146329262)
(18678780.3348928,51206.6426766945,188616.402215304)
(18626328.1364814,41334.0629942527,296048.577526838)
(18532941.5715062,27446.7328814526,453206.256024362)
(18366891.0739981,10846.5893203053,689753.645653071)
(18062230.7610283,-4072.43610921408,1058925.66394534)
(17460094.6599287,-10684.3627253801,1698924.94464204)
(16101198.8138366,-8890.41643145782,3132023.56350013)
(12410660.9644835,-4385.00418856526,7687654.19305499)
(0,0,0)
(0,0,0)
(0,0,0)
(0,0,0)
(0,0,0)
(0,0,0)
(18706681.2590891,128292.022071552,49069.5112015878)
(18694421.2643066,122907.026414155,105569.02418577)
(18666028.167368,111263.85547606,178811.861771186)
(18612572.296083,92015.7973069046,282236.269842804)
(18516658.8693169,63915.3564307092,436667.092871262)
(18345936.5339725,28461.1408501822,674932.363774827)
(18036587.6607387,-5395.1199722283,1052448.22889381)
(17436937.3366441,-19886.6757324725,1700849.79855486)
(16086808.3081826,-14935.421678347,3136648.14818717)
(12404381.0563787,-6430.29579958098,7692106.91306055)
(0,0,0)
(0,0,0)
(0,0,0)
(0,0,0)
(0,0,0)
(0,0,0)
(18678512.4768356,213305.389056286,43728.7666893715)
(18666207.2670751,206120.0956519,94051.9839469096)
(18637255.2396439,190402.235498148,159665.415197612)
(18581456.3244214,163708.486673284,254228.067989596)
(18478882.2352261,122794.051848815,401271.314262964)
(18294129.2414366,66923.2266613262,641164.561819283)
(17967013.4921671,7606.50986644721,1038056.7445131)
(17373054.6610803,-17667.8872566855,1705879.72109392)
(16049635.4509319,-8604.24091143398,3145200.09119441)
(12388957.6776584,-563.580654136248,7698536.67397949)
(0,0,0)
(0,0,0)
(0,0,0)
(0,0,0)
(0,0,0)
(0,0,0)
(18626675.8539359,326182.547525596,36623.4955768704)
(18614370.4625511,318339.643079563,78548.1116809882)
(18584704.4024427,301143.917138904,133184.808434932)
(18525235.1017189,271526.439962863,213541.722586026)
(18410413.2633307,224611.755221342,345587.35002521)
(18194009.0885593,155877.661268866,581991.051537944)
(17812443.5198707,72513.4534114458,1012888.20298227)
(17227710.8236208,31747.4387955019,1714979.64117765)
(15974567.477655,34936.6533255703,3153185.84983445)
(12360098.7083418,24674.8808786926,7698998.09213865)
(0,0,0)
(0,0,0)
(0,0,0)
(0,0,0)
(0,0,0)
(0,0,0)
(18535252.5095338,482367.831902411,28895.4220111733)
(18523252.811491,475077.069924961,61616.6289396716)
(18493485.7243051,459339.472366482,103887.879491902)
(18430919.1523273,432791.075159234,167014.396338607)
(18302088.9260971,392088.313188851,277193.278756009)
(18038214.4179458,335223.91112924,498858.739302239)
(17534621.1828931,268176.606752296,972267.032889293)
(16958291.3180376,209497.091629622,1718212.17967873)
(15856927.466135,153130.802807964,3142781.76367834)
(12317187.4868986,82750.2899881629,7674085.29678561)
(0,0,0)
(0,0,0)
(0,0,0)
(0,0,0)
(0,0,0)
(0,0,0)
(18372604.2154563,707592.602284292,21736.672453002)
(18361447.7066674,701604.036352365,46111.5778753713)
(18333131.6279034,688899.578189797,77643.216894127)
(18271721.7046886,667975.713273064,126701.145415329)
(18141411.1126016,636264.206940082,220707.622970004)
(17870000.8861589,590260.293784807,432081.127946112)
(17360066.1900096,526638.893477506,913723.881998235)
(16809143.0054729,445282.340622294,1661837.47045731)
(15756822.3131456,324285.633684009,3072213.58837595)
(12268078.7283573,171493.695370454,7591053.28731279)
(0,0,0)
(0,0,0)
(0,0,0)
(0,0,0)
(0,0,0)
(0,0,0)
(18071042.9995501,1055435.55195129,15795.8329328087)
(18061296.8908205,1050817.75756736,33548.9974809559)
(18036199.9531681,1041293.33465903,56926.2704447224)
(17980505.9060948,1026174.95843665,95269.8140788481)
(17859035.8094474,1003657.19530459,174975.327148819)
(17599509.6512716,968668.451963397,368663.391434762)
(17104932.6730409,907797.430332904,832453.732848262)
(16607726.9634781,799834.311520551,1540764.85377545)
(15608640.6148883,584162.24095677,2919226.40616641)
(12184334.249311,312306.535123527,7419351.26931245)
(0,0,0)
(0,0,0)
(0,0,0)
(0,0,0)
(0,0,0)
(0,0,0)
(17468305.843849,1672477.83464679,11174.0209444728)
(17460591.8779713,1668716.57913122,24059.4783115534)
(17440585.658027,1661128.59489921,41875.9032508077)
(17395616.208166,1649405.03706774,72872.7230333771)
(17295549.9519381,1632452.06308785,140090.695701432)
(17075397.8468176,1605208.18359525,307878.309103393)
(16642493.2215315,1542677.84593523,724534.189397521)
(16318305.437637,1348995.21357437,1324992.97527809)
(15309710.4627592,1033365.85414456,2647157.60059421)
(11990455.7362167,591051.667540408,7106844.50782651)
(0,0,0)
(0,0,0)
(0,0,0)
(0,0,0)
(0,0,0)
(0,0,0)
(16105884.6025999,3089383.93859561,7432.49873692808)
(16100715.2753248,3085704.85762658,16465.0426969751)
(16087357.2769814,3077933.2439543,30114.3062183685)
(16057929.3896076,3064388.4478971,55904.1336309227)
(15995311.0022805,3040405.35351675,112837.236176644)
(15867846.334748,2992734.29290311,245296.313503246)
(15638036.8804594,2885425.25190435,530790.380513665)
(15315201.9167439,2641007.78364588,1009252.0968024)
(14403830.6768156,2209149.35193355,2204728.95538846)
(11400555.2902437,1440335.5901356,6515663.25681555)
(0,0,0)
(0,0,0)
(0,0,0)
(0,0,0)
(0,0,0)
(0,0,0)
(12412378.5433548,7637362.89170286,3803.8576841829)
(12409822.5040836,7633453.91277865,8651.1312259389)
(12403268.3013542,7624855.68754521,16435.8789022423)
(12389111.7050112,7608564.75210138,31722.1216798246)
(12359986.5952937,7577069.4563535,64988.7249295169)
(12302703.0430908,7512255.56619936,137829.990110015)
(12196649.3404377,7374546.07978054,286306.79152652)
(11993491.596394,7088258.09203802,577305.79884369)
(11400996.3491892,6510973.56073704,1435805.52791002)
(9270072.90557129,5075177.54424468,5075207.88673865)
(0,0,0)
(0,0,0)
(0,0,0)
(0,0,0)
(0,0,0)
(0,0,0)
(0,0,0)
(0,0,0)
(0,0,0)
(0,0,0)
(0,0,0)
(0,0,0)
(0,0,0)
(0,0,0)
(0,0,0)
(0,0,0)
(0,0,0)
(0,0,0)
(0,0,0)
(0,0,0)
(0,0,0)
(0,0,0)
(0,0,0)
(0,0,0)
(0,0,0)
(0,0,0)
(0,0,0)
(0,0,0)
(0,0,0)
(0,0,0)
(0,0,0)
(0,0,0)
(0,0,0)
(0,0,0)
(0,0,0)
(0,0,0)
(0,0,0)
(0,0,0)
(0,0,0)
(0,0,0)
(0,0,0)
(0,0,0)
(0,0,0)
(0,0,0)
(0,0,0)
(0,0,0)
(0,0,0)
(0,0,0)
(0,0,0)
(0,0,0)
(0,0,0)
(0,0,0)
(0,0,0)
(0,0,0)
(0,0,0)
(0,0,0)
(0,0,0)
(0,0,0)
(0,0,0)
(0,0,0)
(0,0,0)
(0,0,0)
(0,0,0)
(0,0,0)
(0,0,0)
(0,0,0)
(0,0,0)
(0,0,0)
(0,0,0)
(0,0,0)
(0,0,0)
(0,0,0)
(0,0,0)
(0,0,0)
(0,0,0)
(0,0,0)
(0,0,0)
(0,0,0)
(0,0,0)
(0,0,0)
(0,0,0)
(0,0,0)
(0,0,0)
(0,0,0)
(0,0,0)
(0,0,0)
(0,0,0)
(0,0,0)
(0,0,0)
(0,0,0)
(0,0,0)
(0,0,0)
(0,0,0)
(0,0,0)
(0,0,0)
(0,0,0)
(0,0,0)
(0,0,0)
(0,0,0)
(0,0,0)
(0,0,0)
(0,0,0)
(-326153.925825836,47643.0699416833,39739.4549007015)
(-339650.961869319,44772.1205768791,83608.6047521688)
(-370174.839207396,38436.8766274712,136218.856324943)
(-425643.47594157,27598.4979997236,202683.924848279)
(-520540.795326762,11150.8610002054,287107.384781043)
(-678817.513418657,-10097.6433855745,385005.569683495)
(-937667.684199874,-29667.6805750464,456663.649586784)
(-1347358.18421836,-33778.7848475762,339987.232681543)
(-1934936.93725917,-23247.9632784235,-558537.098844242)
(-2371967.97940373,-10661.6410226628,-4723154.55983427)
(0,0,0)
(0,0,0)
(0,0,0)
(0,0,0)
(0,0,0)
(0,0,0)
(-340397.572399047,99961.2764119977,36852.5791178152)
(-353666.971652415,94523.4267306553,77281.463023027)
(-383903.617885662,82355.1264218141,125386.952582359)
(-439447.433326737,60817.996580954,186279.137510886)
(-535756.725381341,26067.8299507539,265869.717358577)
(-698332.804186533,-23364.3979649469,365497.76419698)
(-963269.996884299,-74904.4928649746,452684.188209867)
(-1369025.84954764,-83675.4247097412,350635.968363774)
(-1945821.03081494,-52037.6237529363,-545853.078064034)
(-2375815.08382484,-21813.090787913,-4712413.53399521)
(0,0,0)
(0,0,0)
(0,0,0)
(0,0,0)
(0,0,0)
(0,0,0)
(-372161.214406109,161262.347916418,31464.5738372993)
(-385008.393021588,154097.58666164,65198.0281030343)
(-414712.946897935,137727.776555178,103885.518611498)
(-470794.609081943,107431.746442346,151614.656353467)
(-572102.528241652,54272.4764014818,216486.727470583)
(-751460.669887147,-33223.5337413804,314027.728670777)
(-1048866.46937018,-146922.008985233,444017.160428336)
(-1443983.23109335,-162922.569825413,382394.151817583)
(-1978760.80480942,-83591.2595019087,-515564.00259201)
(-2386386.97279326,-29358.2264845132,-4690582.26234374)
(0,0,0)
(0,0,0)
(0,0,0)
(0,0,0)
(0,0,0)
(0,0,0)
(-428998.302579787,234669.73439973,24358.7241324391)
(-441183.128379933,227130.460173677,48971.3956513987)
(-470054.815054174,209816.186896623,73734.1569068524)
(-527284.832417649,177114.298871639,98663.4927140859)
(-639893.661225431,116203.553534443,129131.294237274)
(-868453.331603822,57.1968701796445,200404.93788888)
(-1314753.09742993,-205307.244788627,428078.745092939)
(-1689227.46258928,-237604.406947407,461790.822524999)
(-2061208.45847184,-82602.4135842977,-461330.133165636)
(-2409046.43753342,-18171.2918328872,-4661279.96784209)
(0,0,0)
(0,0,0)
(0,0,0)
(0,0,0)
(0,0,0)
(0,0,0)
(-524568.934848668,319689.711571368,16893.4213108266)
(-535731.326124571,313237.686783319,31862.2864168166)
(-562962.202658472,298922.54372435,41295.8106526754)
(-620189.54371669,273530.980986646,38079.7786816726)
(-746132.644758046,231377.57393033,13219.283240938)
(-1068606.28509299,167015.981444912,-4826.84419501302)
(-2122898.90216513,93626.900426797,395851.049747757)
(-2518619.10112728,60409.4644137683,616839.551651491)
(-2222929.67722523,53117.5388576171,-396931.303330057)
(-2446208.12263276,33656.7566499045,-4643271.78818141)
(0,0,0)
(0,0,0)
(0,0,0)
(0,0,0)
(0,0,0)
(0,0,0)
(-682139.823964381,405977.046568,10548.6585240632)
(-691886.128583604,401444.80414683,17767.3305116226)
(-716238.215311848,391960.171663822,16191.4998873903)
(-769434.422442034,376704.169656876,-3733.6075522887)
(-891857.324134257,353847.4286887,-50843.0714746906)
(-1213529.2935324,319784.837697281,-77989.7939357379)
(-2216482.34636049,271569.174265146,362708.422695952)
(-2579130.91779575,243956.922616952,609526.841861516)
(-2298096.29913573,176147.841236405,-416492.894135907)
(-2483209.6848918,87714.2811853892,-4677170.0513222)
(0,0,0)
(0,0,0)
(0,0,0)
(0,0,0)
(0,0,0)
(0,0,0)
(-939592.756084971,452669.778834086,6034.9774689478)
(-947646.784016009,450107.465588655,8407.94496366507)
(-968118.97729085,445658.738742832,1120.2624435702)
(-1014449.10387025,441235.215999496,-26363.8198340287)
(-1126832.75674061,440144.395087155,-84700.2659443933)
(-1441876.59988378,444583.222170864,-126020.445162574)
(-2488051.4619218,445448.359417572,335176.458747736)
(-2823209.74164128,510495.035435804,541667.005148258)
(-2411607.6209816,285245.513780638,-505090.477426007)
(-2544183.73985536,118378.81937167,-4765145.07234594)
(0,0,0)
(0,0,0)
(0,0,0)
(0,0,0)
(0,0,0)
(0,0,0)
(-1350505.65409018,310103.414249734,3469.81662353931)
(-1356604.28435451,308846.7694961,4018.62914192094)
(-1372252.74679509,307844.771803723,-3237.04499677659)
(-1408574.02623395,311644.812386192,-27364.4528835617)
(-1501563.616297,332160.353435904,-80174.8888971145)
(-1790656.50393964,397639.893775372,-125085.255644379)
(-2933564.57043764,538223.864445636,400288.985396742)
(-2391100.0647182,345915.287992717,316366.189295097)
(-2501908.65162498,127453.875708616,-672131.104148538)
(-2638553.96901513,1098.42029251755,-4883749.04573746)
(0,0,0)
(0,0,0)
(0,0,0)
(0,0,0)
(0,0,0)
(0,0,0)
(-1940003.34344582,-604163.517233789,2246.83162927485)
(-1943941.84349551,-605235.002951353,3077.67699697751)
(-1953954.28730225,-606269.456596116,595.423780452806)
(-1976314.99603935,-604577.704202561,-6845.71988379074)
(-2027531.00042296,-595045.245936331,-14706.1637080266)
(-2150107.90838412,-572491.372137276,15471.2994367512)
(-2418104.41824439,-556042.321537932,207970.738224132)
(-2505934.17555703,-680747.154705649,97861.2273234357)
(-2736446.93493806,-793734.947357134,-798580.383757189)
(-2779689.59869365,-690178.890611088,-4884966.22981611)
(0,0,0)
(0,0,0)
(0,0,0)
(0,0,0)
(0,0,0)
(0,0,0)
(-2375821.20504671,-4775102.68584506,1230.87111279954)
(-2377713.29421022,-4776466.12683566,2089.74739091898)
(-2382493.78795386,-4778595.19423603,2269.52843900095)
(-2392859.59254018,-4780806.38487487,2561.46076271281)
(-2414875.9245786,-4783218.22094807,7688.9097467931)
(-2461039.62809935,-4790741.25432874,31773.4172284123)
(-2546342.31585408,-4822375.76454869,83190.4706310098)
(-2641301.98045809,-4905462.65842175,-15208.4947007623)
(-2780517.85790103,-4890179.97284376,-695157.308023851)
(-2683287.55157626,-4194961.34063538,-4194922.44675193)
(0,0,0)
(0,0,0)
(0,0,0)
(0,0,0)
(0,0,0)
(0,0,0)
(0,0,0)
(0,0,0)
(0,0,0)
(0,0,0)
(0,0,0)
(0,0,0)
(0,0,0)
(0,0,0)
(0,0,0)
(0,0,0)
(0,0,0)
(0,0,0)
(0,0,0)
(0,0,0)
(0,0,0)
(0,0,0)
(0,0,0)
(0,0,0)
(0,0,0)
(0,0,0)
(0,0,0)
(0,0,0)
(0,0,0)
(0,0,0)
(0,0,0)
(0,0,0)
(0,0,0)
(0,0,0)
(0,0,0)
(0,0,0)
(0,0,0)
(0,0,0)
(0,0,0)
(0,0,0)
(0,0,0)
(0,0,0)
(0,0,0)
(0,0,0)
(0,0,0)
(0,0,0)
(0,0,0)
(0,0,0)
(0,0,0)
(0,0,0)
(0,0,0)
(0,0,0)
(0,0,0)
(0,0,0)
(0,0,0)
(0,0,0)
(0,0,0)
(0,0,0)
(0,0,0)
(0,0,0)
(0,0,0)
(0,0,0)
(0,0,0)
(0,0,0)
(0,0,0)
(0,0,0)
(0,0,0)
(0,0,0)
(0,0,0)
(0,0,0)
(0,0,0)
(0,0,0)
(0,0,0)
(0,0,0)
(0,0,0)
(0,0,0)
(0,0,0)
(0,0,0)
(0,0,0)
(0,0,0)
(0,0,0)
(0,0,0)
(0,0,0)
(0,0,0)
(0,0,0)
(0,0,0)
(0,0,0)
(0,0,0)
(0,0,0)
(0,0,0)
(0,0,0)
(0,0,0)
(0,0,0)
(0,0,0)
(0,0,0)
(0,0,0)
(0,0,0)
(0,0,0)
(0,0,0)
(0,0,0)
(0,0,0)
(0,0,0)
(-385753.009684648,33306.3628575472,26292.7210012652)
(-397204.414484012,30668.5110742614,53177.6625416958)
(-422460.601650212,24658.4808552843,80804.9441292301)
(-466435.681495241,13797.4257086638,107799.723974235)
(-537410.121713723,-4089.89325772956,128758.943618929)
(-646471.989597611,-29629.0938430956,126042.51364098)
(-803186.818065547,-55248.2031207918,46809.8506274465)
(-997485.923387029,-55373.6964096095,-247688.713794274)
(-1152926.78922697,-34052.4082110341,-995646.453615428)
(-1001837.15590537,-14463.13824249,-2351314.13887131)
(0,0,0)
(0,0,0)
(0,0,0)
(0,0,0)
(0,0,0)
(0,0,0)
(-398711.937165122,67995.8329881676,23624.8946354544)
(-409538.096855524,63010.8404847721,47153.6904280491)
(-433407.111222676,51413.6897342558,69901.9748860922)
(-475067.191468874,29386.6396166699,89932.5191202203)
(-542781.001577514,-10321.7891260746,103188.691184737)
(-648689.863499267,-76498.8238606592,100415.480515043)
(-804397.051412816,-160448.371036602,46742.7029593765)
(-992816.474284852,-158543.400380601,-226296.968332411)
(-1145339.43409463,-84868.8190171694,-975962.154246587)
(-997170.408024587,-32320.1618282889,-2336749.80646106)
(0,0,0)
(0,0,0)
(0,0,0)
(0,0,0)
(0,0,0)
(0,0,0)
(-427040.614675316,104215.040094031,18660.1931633462)
(-436660.912723472,97725.3312734341,35598.2220765639)
(-457784.649123801,82225.7359061205,47857.8781305629)
(-494661.740925504,50838.1617511192,50273.4878396776)
(-555624.951834263,-13551.7624219204,37025.8847281308)
(-657195.815360848,-150210.935541702,16473.1418828652)
(-828779.528884389,-412741.879431319,48679.7097917933)
(-993209.86230382,-408083.077372176,-152553.982006166)
(-1126868.87928878,-165955.877555514,-923358.84898847)
(-985718.96234065,-51955.9199295949,-2304391.1013398)
(0,0,0)
(0,0,0)
(0,0,0)
(0,0,0)
(0,0,0)
(0,0,0)
(-475969.620513821,138961.283067997,12225.0749600717)
(-483849.843337052,132422.126351366,20194.994839262)
(-500912.540027996,116731.862235907,16546.5934833002)
(-529988.171959662,84064.3900917057,-13976.2953152749)
(-577772.566845556,9884.56868666475,-99533.7208037305)
(-672054.35934963,-200125.333653161,-246018.294946472)
(-1013461.86353487,-1013449.910166,53398.5018931382)
(-1066643.6447754,-1066925.70157087,89657.3082779564)
(-1083986.5006205,-244212.497828164,-809308.029300741)
(-962642.386561157,-55237.5910491451,-2252430.40915345)
(0,0,0)
(0,0,0)
(0,0,0)
(0,0,0)
(0,0,0)
(0,0,0)
(-553397.443935693,162043.524863568,5746.26729145476)
(-559200.659703632,156975.449137476,4662.27808440543)
(-571130.671434136,145500.281590293,-15937.6724943147)
(-588253.35133091,124136.814262703,-87946.2890510911)
(-600349.652391659,85540.9210813693,-309385.633812185)
(-540909.404436371,22035.8457608521,-1059243.69388282)
(8.60380887032963e-05,2.19229302807558e-05,-5.62822335082833e-05)