/*--------------------------------*- C++ -*----------------------------------*\
| =========                 |                                                 |
| \\      /  F ield         | foam-extend: Open Source CFD                    |
|  \\    /   O peration     | Version:     4.0                                |
|   \\  /    A nd           | Web:         http://www.foam-extend.org         |
|    \\/     M anipulation  |                                                 |
\*---------------------------------------------------------------------------*/
FoamFile
{
    version 2.0;
    format ascii;
    class volVectorField;
    location "2230";
    object      H;
}
// * * * * * * * * * * * * * * * * * * * * * * * * * * * * * * * * * * * * * //

dimensions      [0 1 -1 0 0 0 0];

internalField   nonuniform List<vector>
4096
(
(0,0,0)
(0,0,0)
(0,0,0)
(0,0,0)
(0,0,0)
(0,0,0)
(0,0,0)
(0,0,0)
(0,0,0)
(0,0,0)
(0,0,0)
(0,0,0)
(0,0,0)
(0,0,0)
(0,0,0)
(0,0,0)
(0,0,0)
(0,0,0)
(0,0,0)
(0,0,0)
(0,0,0)
(0,0,0)
(0,0,0)
(0,0,0)
(0,0,0)
(0,0,0)
(0,0,0)
(0,0,0)
(0,0,0)
(0,0,0)
(0,0,0)
(0,0,0)
(0,0,0)
(0,0,0)
(0,0,0)
(0,0,0)
(0,0,0)
(0,0,0)
(0,0,0)
(0,0,0)
(0,0,0)
(0,0,0)
(0,0,0)
(0,0,0)
(0,0,0)
(0,0,0)
(0,0,0)
(0,0,0)
(0,0,0)
(0,0,0)
(0,0,0)
(0,0,0)
(0,0,0)
(0,0,0)
(0,0,0)
(0,0,0)
(0,0,0)
(0,0,0)
(0,0,0)
(0,0,0)
(0,0,0)
(0,0,0)
(0,0,0)
(0,0,0)
(0,0,0)
(0,0,0)
(0,0,0)
(0,0,0)
(0,0,0)
(0,0,0)
(0,0,0)
(0,0,0)
(0,0,0)
(0,0,0)
(0,0,0)
(0,0,0)
(0,0,0)
(0,0,0)
(0,0,0)
(0,0,0)
(0,0,0)
(0,0,0)
(0,0,0)
(0,0,0)
(0,0,0)
(0,0,0)
(0,0,0)
(0,0,0)
(0,0,0)
(0,0,0)
(0,0,0)
(0,0,0)
(0,0,0)
(0,0,0)
(0,0,0)
(0,0,0)
(0,0,0)
(0,0,0)
(0,0,0)
(0,0,0)
(0,0,0)
(0,0,0)
(0,0,0)
(0,0,0)
(0,0,0)
(0,0,0)
(0,0,0)
(0,0,0)
(0,0,0)
(0,0,0)
(0,0,0)
(0,0,0)
(0,0,0)
(0,0,0)
(0,0,0)
(0,0,0)
(0,0,0)
(0,0,0)
(0,0,0)
(0,0,0)
(0,0,0)
(0,0,0)
(0,0,0)
(0,0,0)
(0,0,0)
(0,0,0)
(0,0,0)
(0,0,0)
(0,0,0)
(0,0,0)
(0,0,0)
(0,0,0)
(0,0,0)
(0,0,0)
(0,0,0)
(0,0,0)
(0,0,0)
(0,0,0)
(0,0,0)
(0,0,0)
(0,0,0)
(0,0,0)
(0,0,0)
(0,0,0)
(0,0,0)
(0,0,0)
(0,0,0)
(0,0,0)
(0,0,0)
(0,0,0)
(0,0,0)
(0,0,0)
(0,0,0)
(0,0,0)
(0,0,0)
(0,0,0)
(0,0,0)
(0,0,0)
(0,0,0)
(0,0,0)
(0,0,0)
(0,0,0)
(0,0,0)
(0,0,0)
(0,0,0)
(0,0,0)
(0,0,0)
(0,0,0)
(0,0,0)
(0,0,0)
(0,0,0)
(0,0,0)
(0,0,0)
(0,0,0)
(0,0,0)
(0,0,0)
(0,0,0)
(0,0,0)
(0,0,0)
(0,0,0)
(0,0,0)
(0,0,0)
(0,0,0)
(0,0,0)
(0,0,0)
(0,0,0)
(0,0,0)
(0,0,0)
(0,0,0)
(0,0,0)
(0,0,0)
(0,0,0)
(0,0,0)
(0,0,0)
(0,0,0)
(0,0,0)
(0,0,0)
(0,0,0)
(0,0,0)
(0,0,0)
(0,0,0)
(0,0,0)
(0,0,0)
(0,0,0)
(0,0,0)
(0,0,0)
(0,0,0)
(0,0,0)
(0,0,0)
(0,0,0)
(0,0,0)
(0,0,0)
(0,0,0)
(0,0,0)
(0,0,0)
(0,0,0)
(0,0,0)
(0,0,0)
(0,0,0)
(0,0,0)
(0,0,0)
(0,0,0)
(0,0,0)
(0,0,0)
(0,0,0)
(0,0,0)
(0,0,0)
(0,0,0)
(0,0,0)
(0,0,0)
(0,0,0)
(0,0,0)
(0,0,0)
(0,0,0)
(0,0,0)
(0,0,0)
(0,0,0)
(0,0,0)
(0,0,0)
(0,0,0)
(0,0,0)
(0,0,0)
(0,0,0)
(0,0,0)
(0,0,0)
(0,0,0)
(0,0,0)
(0,0,0)
(0,0,0)
(0,0,0)
(0,0,0)
(0,0,0)
(0,0,0)
(0,0,0)
(0,0,0)
(0,0,0)
(0,0,0)
(0,0,0)
(0,0,0)
(0,0,0)
(0,0,0)
(0,0,0)
(0,0,0)
(0,0,0)
(0,0,0)
(0,0,0)
(0,0,0)
(0,0,0)
(0,0,0)
(0,0,0)
(0,0,0)
(0,0,0)
(0,0,0)
(0,0,0)
(0,0,0)
(0,0,0)
(0,0,0)
(0,0,0)
(0,0,0)
(0,0,0)
(0,0,0)
(0,0,0)
(0,0,0)
(0,0,0)
(0,0,0)
(0,0,0)
(0,0,0)
(0,0,0)
(0,0,0)
(0,0,0)
(0,0,0)
(0,0,0)
(0,0,0)
(0,0,0)
(0,0,0)
(0,0,0)
(0,0,0)
(0,0,0)
(0,0,0)
(0,0,0)
(0,0,0)
(0,0,0)
(0,0,0)
(0,0,0)
(0,0,0)
(0,0,0)
(0,0,0)
(0,0,0)
(0,0,0)
(0,0,0)
(0,0,0)
(0,0,0)
(0,0,0)
(0,0,0)
(0,0,0)
(0,0,0)
(0,0,0)
(0,0,0)
(0,0,0)
(0,0,0)
(0,0,0)
(0,0,0)
(0,0,0)
(0,0,0)
(0,0,0)
(0,0,0)
(0,0,0)
(0,0,0)
(0,0,0)
(0,0,0)
(0,0,0)
(0,0,0)
(0,0,0)
(0,0,0)
(0,0,0)
(0,0,0)
(0,0,0)
(0,0,0)
(0,0,0)
(0,0,0)
(0,0,0)
(0,0,0)
(0,0,0)
(0,0,0)
(0,0,0)
(0,0,0)
(0,0,0)
(0,0,0)
(0,0,0)
(0,0,0)
(0,0,0)
(0,0,0)
(0,0,0)
(0,0,0)
(0,0,0)
(0,0,0)
(0,0,0)
(0,0,0)
(0,0,0)
(0,0,0)
(0,0,0)
(0,0,0)
(0,0,0)
(0,0,0)
(0,0,0)
(0,0,0)
(0,0,0)
(0,0,0)
(0,0,0)
(0,0,0)
(0,0,0)
(0,0,0)
(0,0,0)
(0,0,0)
(0,0,0)
(0,0,0)
(0,0,0)
(0,0,0)
(0,0,0)
(0,0,0)
(0,0,0)
(0,0,0)
(0,0,0)
(0,0,0)
(0,0,0)
(0,0,0)
(0,0,0)
(0,0,0)
(0,0,0)
(0,0,0)
(0,0,0)
(0,0,0)
(0,0,0)
(0,0,0)
(0,0,0)
(0,0,0)
(0,0,0)
(0,0,0)
(0,0,0)
(0,0,0)
(0,0,0)
(0,0,0)
(0,0,0)
(0,0,0)
(0,0,0)
(0,0,0)
(0,0,0)
(0,0,0)
(0,0,0)
(0,0,0)
(0,0,0)
(0,0,0)
(0,0,0)
(0,0,0)
(0,0,0)
(0,0,0)
(0,0,0)
(0,0,0)
(0,0,0)
(0,0,0)
(0,0,0)
(0,0,0)
(0,0,0)
(0,0,0)
(0,0,0)
(0,0,0)
(0,0,0)
(0,0,0)
(0,0,0)
(0,0,0)
(0,0,0)
(0,0,0)
(0,0,0)
(0,0,0)
(0,0,0)
(0,0,0)
(0,0,0)
(0,0,0)
(0,0,0)
(0,0,0)
(0,0,0)
(0,0,0)
(0,0,0)
(0,0,0)
(0,0,0)
(0,0,0)
(0,0,0)
(0,0,0)
(0,0,0)
(0,0,0)
(0,0,0)
(0,0,0)
(0,0,0)
(0,0,0)
(0,0,0)
(0,0,0)
(0,0,0)
(0,0,0)
(0,0,0)
(0,0,0)
(0,0,0)
(0,0,0)
(0,0,0)
(0,0,0)
(0,0,0)
(0,0,0)
(0,0,0)
(0,0,0)
(0,0,0)
(0,0,0)
(0,0,0)
(0,0,0)
(0,0,0)
(0,0,0)
(0,0,0)
(0,0,0)
(0,0,0)
(0,0,0)
(0,0,0)
(0,0,0)
(0,0,0)
(0,0,0)
(0,0,0)
(0,0,0)
(0,0,0)
(0,0,0)
(0,0,0)
(0,0,0)
(0,0,0)
(0,0,0)
(0,0,0)
(0,0,0)
(0,0,0)
(0,0,0)
(0,0,0)
(0,0,0)
(0,0,0)
(0,0,0)
(0,0,0)
(0,0,0)
(0,0,0)
(0,0,0)
(0,0,0)
(0,0,0)
(0,0,0)
(0,0,0)
(0,0,0)
(0,0,0)
(0,0,0)
(0,0,0)
(0,0,0)
(0,0,0)
(0,0,0)
(0,0,0)
(0,0,0)
(0,0,0)
(0,0,0)
(0,0,0)
(0,0,0)
(0,0,0)
(0,0,0)
(0,0,0)
(0,0,0)
(0,0,0)
(0,0,0)
(0,0,0)
(0,0,0)
(0,0,0)
(0,0,0)
(0,0,0)
(0,0,0)
(0,0,0)
(0,0,0)
(0,0,0)
(0,0,0)
(0,0,0)
(0,0,0)
(0,0,0)
(0,0,0)
(0,0,0)
(0,0,0)
(0,0,0)
(0,0,0)
(0,0,0)
(0,0,0)
(0,0,0)
(0,0,0)
(0,0,0)
(0,0,0)
(0,0,0)
(0,0,0)
(0,0,0)
(0,0,0)
(0,0,0)
(0,0,0)
(0,0,0)
(0,0,0)
(0,0,0)
(0,0,0)
(0,0,0)
(0,0,0)
(0,0,0)
(0,0,0)
(0,0,0)
(0,0,0)
(0,0,0)
(0,0,0)
(0,0,0)
(0,0,0)
(0,0,0)
(0,0,0)
(0,0,0)
(0,0,0)
(0,0,0)
(0,0,0)
(0,0,0)
(0,0,0)
(0,0,0)
(0,0,0)
(0,0,0)
(0,0,0)
(0,0,0)
(0,0,0)
(0,0,0)
(0,0,0)
(0,0,0)
(0,0,0)
(0,0,0)
(0,0,0)
(0,0,0)
(0,0,0)
(0,0,0)
(0,0,0)
(0,0,0)
(0,0,0)
(0,0,0)
(0,0,0)
(0,0,0)
(0,0,0)
(0,0,0)
(0,0,0)
(0,0,0)
(0,0,0)
(0,0,0)
(0,0,0)
(0,0,0)
(0,0,0)
(0,0,0)
(0,0,0)
(0,0,0)
(0,0,0)
(0,0,0)
(0,0,0)
(0,0,0)
(0,0,0)
(0,0,0)
(0,0,0)
(0,0,0)
(0,0,0)
(0,0,0)
(0,0,0)
(0,0,0)
(0,0,0)
(0,0,0)
(0,0,0)
(0,0,0)
(0,0,0)
(0,0,0)
(0,0,0)
(0,0,0)
(0,0,0)
(0,0,0)
(0,0,0)
(0,0,0)
(0,0,0)
(0,0,0)
(0,0,0)
(0,0,0)
(0,0,0)
(0,0,0)
(0,0,0)
(0,0,0)
(0,0,0)
(0,0,0)
(0,0,0)
(0,0,0)
(0,0,0)
(0,0,0)
(0,0,0)
(0,0,0)
(0,0,0)
(0,0,0)
(0,0,0)
(0,0,0)
(0,0,0)
(0,0,0)
(0,0,0)
(0,0,0)
(0,0,0)
(0,0,0)
(0,0,0)
(0,0,0)
(0,0,0)
(0,0,0)
(0,0,0)
(0,0,0)
(0,0,0)
(0,0,0)
(0,0,0)
(0,0,0)
(0,0,0)
(0,0,0)
(0,0,0)
(0,0,0)
(0,0,0)
(0,0,0)
(0,0,0)
(0,0,0)
(0,0,0)
(0,0,0)
(0,0,0)
(0,0,0)
(0,0,0)
(0,0,0)
(0,0,0)
(0,0,0)
(0,0,0)
(0,0,0)
(0,0,0)
(0,0,0)
(0,0,0)
(0,0,0)
(0,0,0)
(0,0,0)
(0,0,0)
(0,0,0)
(0,0,0)
(0,0,0)
(0,0,0)
(0,0,0)
(0,0,0)
(0,0,0)
(0,0,0)
(0,0,0)
(0,0,0)
(0,0,0)
(0,0,0)
(0,0,0)
(0,0,0)
(0,0,0)
(0,0,0)
(0,0,0)
(0,0,0)
(0,0,0)
(0,0,0)
(0,0,0)
(0,0,0)
(0,0,0)
(0,0,0)
(0,0,0)
(0,0,0)
(0,0,0)
(0,0,0)
(0,0,0)
(0,0,0)
(0,0,0)
(0,0,0)
(0,0,0)
(0,0,0)
(0,0,0)
(0,0,0)
(0,0,0)
(0,0,0)
(0,0,0)
(0,0,0)
(0,0,0)
(0,0,0)
(0,0,0)
(0,0,0)
(0,0,0)
(0,0,0)
(0,0,0)
(0,0,0)
(0,0,0)
(0,0,0)
(0,0,0)
(0,0,0)
(0,0,0)
(0,0,0)
(0,0,0)
(0,0,0)
(0,0,0)
(0,0,0)
(0,0,0)
(0,0,0)
(0,0,0)
(0,0,0)
(0,0,0)
(0,0,0)
(0,0,0)
(0,0,0)
(0,0,0)
(0,0,0)
(0,0,0)
(0,0,0)
(0,0,0)
(0,0,0)
(0,0,0)
(0,0,0)
(0,0,0)
(0,0,0)
(0,0,0)
(0,0,0)
(0,0,0)
(0,0,0)
(0,0,0)
(0,0,0)
(0,0,0)
(0,0,0)
(0,0,0)
(0,0,0)
(0,0,0)
(0,0,0)
(0,0,0)
(0,0,0)
(0,0,0)
(0,0,0)
(0,0,0)
(0,0,0)
(0,0,0)
(0,0,0)
(0,0,0)
(0,0,0)
(0,0,0)
(0,0,0)
(0,0,0)
(0,0,0)
(0,0,0)
(0,0,0)
(0,0,0)
(0,0,0)
(0,0,0)
(0,0,0)
(0,0,0)
(0,0,0)
(0,0,0)
(0,0,0)
(0,0,0)
(0,0,0)
(0,0,0)
(0,0,0)
(0,0,0)
(0,0,0)
(0,0,0)
(0,0,0)
(0,0,0)
(0,0,0)
(0,0,0)
(0,0,0)
(1.51523713590767e-13,1.01602769046762e-11,-1.21264796791205e-11)
(1.40248462117122e-12,2.22323067604839e-11,-1.17422346960305e-11)
(1.80882130049217e-12,3.76153904716192e-11,-1.02012574378002e-11)
(2.16500886500355e-12,5.84709216114344e-11,-8.01827983857698e-12)
(2.39794634767753e-12,9.21948335727101e-11,-5.43912844687216e-12)
(2.04289913333673e-12,1.46019988885927e-10,-3.19468756212217e-12)
(8.4769062920178e-13,2.34379622783346e-10,-1.49289207454464e-12)
(7.18366772292892e-13,3.82089992115078e-10,-6.8518877868785e-13)
(1.22894113148208e-12,6.27241445450096e-10,-5.52554843068913e-13)
(1.38758906808735e-12,9.69418410403309e-10,-1.72586975350924e-13)
(0,0,0)
(0,0,0)
(0,0,0)
(0,0,0)
(0,0,0)
(0,0,0)
(5.44538239006655e-13,9.98292234284314e-12,-2.50347279048268e-11)
(2.5566885118893e-12,2.1383455981672e-11,-2.42362496187721e-11)
(3.54312857463897e-12,3.59082755497498e-11,-2.15299763423571e-11)
(3.58110337609394e-12,5.65258718748095e-11,-1.75772783266541e-11)
(4.08665544100616e-12,9.02812887728378e-11,-1.31742092453536e-11)
(4.00416087541747e-12,1.44348510899346e-10,-8.59876020118045e-12)
(2.93201548386319e-12,2.33345544802544e-10,-4.82436306314753e-12)
(3.53770140246789e-12,3.81788864164592e-10,-2.9002888253574e-12)
(4.06673690697613e-12,6.27427109326945e-10,-1.85421543723982e-12)
(3.65421649324437e-12,9.69695885796972e-10,-7.53884899097725e-13)
(0,0,0)
(0,0,0)
(0,0,0)
(0,0,0)
(0,0,0)
(0,0,0)
(1.17131949832994e-12,9.2572368288521e-12,-4.12421716412457e-11)
(3.24953910807521e-12,1.95863842678662e-11,-3.99128638677218e-11)
(3.9046565692497e-12,3.28678972878611e-11,-3.65498565378523e-11)
(3.60021413488957e-12,5.27945561069289e-11,-3.17123087256924e-11)
(4.52774315046956e-12,8.60581681874189e-11,-2.58739465867955e-11)
(4.9531983981951e-12,1.40822563549786e-10,-1.92760998835342e-11)
(4.75453398406503e-12,2.31611405776976e-10,-1.31922459451319e-11)
(5.18570716378252e-12,3.81744286667165e-10,-9.27617299771693e-12)
(5.70373179623303e-12,6.27695229720823e-10,-6.33305720366815e-12)
(5.85750999872678e-12,9.69620470242297e-10,-3.23979439063764e-12)
(0,0,0)
(0,0,0)
(0,0,0)
(0,0,0)
(0,0,0)
(0,0,0)
(2.04526833054956e-12,7.6675976674651e-12,-6.45536975111255e-11)
(3.67766412410602e-12,1.66576953573972e-11,-6.29958396444281e-11)
(3.9348269125287e-12,2.8692688202512e-11,-5.94381967437188e-11)
(4.1777944003577e-12,4.72745589091811e-11,-5.44645724854617e-11)
(5.42218639759815e-12,7.92674249416319e-11,-4.76817033042816e-11)
(6.27976167568919e-12,1.3434658194596e-10,-3.97962972634801e-11)
(6.85858518385142e-12,2.27412755210065e-10,-3.18416747564133e-11)
(7.09995389377993e-12,3.80182706281916e-10,-2.50190930217438e-11)
(7.9434223261769e-12,6.26209948657068e-10,-1.77479911793043e-11)
(9.00136069960697e-12,9.67263386447999e-10,-9.3560154035167e-12)
(0,0,0)
(0,0,0)
(0,0,0)
(0,0,0)
(0,0,0)
(0,0,0)
(3.24590400307426e-12,6.16773284924873e-12,-9.84277736659466e-11)
(4.27242721587762e-12,1.34571789869012e-11,-9.67154694083974e-11)
(4.15317996659006e-12,2.34953158275425e-11,-9.35208171161043e-11)
(5.39356526120345e-12,3.98458627774636e-11,-8.95047855972434e-11)
(7.32612508166731e-12,7.00898069193338e-11,-8.34721137977378e-11)
(8.43853836338248e-12,1.24522844220764e-10,-7.54366434626067e-11)
(9.55954198576891e-12,2.1932296463351e-10,-6.63613457860807e-11)
(1.02066710821483e-11,3.74489217377732e-10,-5.38136048902653e-11)
(1.13718236491746e-11,6.20173730630982e-10,-3.80844033721892e-11)
(1.29486889398013e-11,9.60122167610983e-10,-1.97581050588474e-11)
(0,0,0)
(0,0,0)
(0,0,0)
(0,0,0)
(0,0,0)
(0,0,0)
(2.73257346643068e-12,4.89917640537192e-12,-1.50131931715202e-10)
(3.78811429385216e-12,1.04617159626994e-11,-1.48755284699891e-10)
(4.5919835170821e-12,1.86081374185336e-11,-1.46452405734265e-10)
(7.09629946541346e-12,3.24779248243032e-11,-1.43685692788946e-10)
(1.02255978046428e-11,5.99635100450912e-11,-1.39046791286675e-10)
(1.17115552667274e-11,1.12500879768174e-10,-1.30866472062129e-10)
(1.30516553039917e-11,2.07629440033499e-10,-1.18634772591736e-10)
(1.44443020414007e-11,3.61248876884313e-10,-9.94553964776592e-11)
(1.65626660482652e-11,6.04477217799284e-10,-7.21673328893211e-11)
(1.77686865835592e-11,9.42793011981746e-10,-3.80683935021564e-11)
(0,0,0)
(0,0,0)
(0,0,0)
(0,0,0)
(0,0,0)
(0,0,0)
(1.54551711276557e-12,3.9031793964722e-12,-2.36172034548162e-10)
(2.61881572788444e-12,8.1991629098177e-12,-2.34968175922037e-10)
(4.82285434651797e-12,1.49271609957257e-11,-2.33137838113036e-10)
(8.16903314484281e-12,2.65450435256585e-11,-2.30798462400251e-10)
(1.26465693182556e-11,5.03125398899777e-11,-2.27067215041553e-10)
(1.53711713895631e-11,9.82711119812517e-11,-2.18621477090255e-10)
(1.80170279915089e-11,1.89192035641905e-10,-2.01317755300367e-10)
(2.06906586591975e-11,3.36151722396725e-10,-1.73675597431171e-10)
(2.35354316179258e-11,5.72692676871047e-10,-1.29639742856729e-10)
(2.46512995845509e-11,9.06539669170526e-10,-7.02143553870116e-11)
(0,0,0)
(0,0,0)
(0,0,0)
(0,0,0)
(0,0,0)
(0,0,0)
(1.30272078783061e-12,2.62279230004116e-12,-3.81168730882202e-10)
(2.84709471348845e-12,5.84634510486407e-12,-3.80367636809302e-10)
(5.18305458232958e-12,1.15266879097641e-11,-3.78970477985613e-10)
(8.92777310519366e-12,2.18288846252065e-11,-3.76792707732927e-10)
(1.46531315036266e-11,4.25961078537749e-11,-3.726150017635e-10)
(1.91141515677396e-11,8.41714482596954e-11,-3.62524885745082e-10)
(2.27380512058702e-11,1.62644448380637e-10,-3.4045583401862e-10)
(2.6457796362588e-11,2.93732447866495e-10,-2.9936520818021e-10)
(2.92146264267226e-11,5.1512488130027e-10,-2.31395578662054e-10)
(3.05555328726257e-11,8.37658747301905e-10,-1.30729090876889e-10)
(0,0,0)
(0,0,0)
(0,0,0)
(0,0,0)
(0,0,0)
(0,0,0)
(5.82668093491867e-13,1.42148477316886e-12,-6.23643305476734e-10)
(1.36450344130592e-12,3.72777857561142e-12,-6.23358094200915e-10)
(4.59750221167118e-12,7.8086739170887e-12,-6.22348506801688e-10)
(9.10958353879843e-12,1.57825560203231e-11,-6.19847362060883e-10)
(1.48285062504972e-11,3.1791935984823e-11,-6.14152926732959e-10)
(1.93345275615076e-11,6.31269637905105e-11,-6.0092105557405e-10)
(2.29834656671255e-11,1.22288980318136e-10,-5.72353301572157e-10)
(2.75535109265806e-11,2.26796641502043e-10,-5.16875735559229e-10)
(3.09111113882219e-11,4.15599169776264e-10,-4.18167443819779e-10)
(3.36622205339311e-11,7.07863717323649e-10,-2.51483719941703e-10)
(0,0,0)
(0,0,0)
(0,0,0)
(0,0,0)
(0,0,0)
(0,0,0)
(-6.42368508102411e-13,6.37382257559799e-13,-9.64862295238046e-10)
(3.65699072375046e-13,1.89113393669878e-12,-9.64543420096161e-10)
(4.88672420274961e-12,4.01490562905718e-12,-9.63330980198001e-10)
(9.45576234071153e-12,8.34930744654017e-12,-9.59992813986768e-10)
(1.50427342705638e-11,1.70363956169098e-11,-9.52736517360446e-10)
(2.05365354374035e-11,3.3908771787777e-11,-9.3684450885889e-10)
(2.49397185171145e-11,6.65948626506397e-11,-9.03471454480115e-10)
(2.95434553825615e-11,1.28258930329277e-10,-8.36962448116214e-10)
(3.27342142843947e-11,2.49451207407375e-10,-7.08388267590837e-10)
(3.4911810149714e-11,4.57487820634957e-10,-4.58316110326509e-10)
(0,0,0)
(0,0,0)
(0,0,0)
(0,0,0)
(0,0,0)
(0,0,0)
(0,0,0)
(0,0,0)
(0,0,0)
(0,0,0)
(0,0,0)
(0,0,0)
(0,0,0)
(0,0,0)
(0,0,0)
(0,0,0)
(0,0,0)
(0,0,0)
(0,0,0)
(0,0,0)
(0,0,0)
(0,0,0)
(0,0,0)
(0,0,0)
(0,0,0)
(0,0,0)
(0,0,0)
(0,0,0)
(0,0,0)
(0,0,0)
(0,0,0)
(0,0,0)
(0,0,0)
(0,0,0)
(0,0,0)
(0,0,0)
(0,0,0)
(0,0,0)
(0,0,0)
(0,0,0)
(0,0,0)
(0,0,0)
(0,0,0)
(0,0,0)
(0,0,0)
(0,0,0)
(0,0,0)
(0,0,0)
(0,0,0)
(0,0,0)
(0,0,0)
(0,0,0)
(0,0,0)
(0,0,0)
(0,0,0)
(0,0,0)
(0,0,0)
(0,0,0)
(0,0,0)
(0,0,0)
(0,0,0)
(0,0,0)
(0,0,0)
(0,0,0)
(0,0,0)
(0,0,0)
(0,0,0)
(0,0,0)
(0,0,0)
(0,0,0)
(0,0,0)
(0,0,0)
(0,0,0)
(0,0,0)
(0,0,0)
(0,0,0)
(0,0,0)
(0,0,0)
(0,0,0)
(0,0,0)
(0,0,0)
(0,0,0)
(0,0,0)
(0,0,0)
(0,0,0)
(0,0,0)
(0,0,0)
(0,0,0)
(0,0,0)
(0,0,0)
(0,0,0)
(0,0,0)
(0,0,0)
(0,0,0)
(0,0,0)
(0,0,0)
(0,0,0)
(0,0,0)
(0,0,0)
(0,0,0)
(0,0,0)
(0,0,0)
(-5.53667076695008e-14,1.96975749622644e-11,-2.28504163093163e-11)
(7.10358141751418e-13,4.23594748061231e-11,-2.2001309283106e-11)
(1.33295862311571e-12,7.14869897060568e-11,-1.92370939782745e-11)
(1.53090720992122e-12,1.09300857702663e-10,-1.48043740554164e-11)
(2.06705026275366e-12,1.68488792981154e-10,-9.73497410878776e-12)
(2.01258163236483e-12,2.6179384482388e-10,-4.774936811203e-12)
(1.07406531420552e-12,4.11214476575697e-10,-1.04463123738543e-12)
(8.86860786991651e-13,6.67579141596971e-10,4.44529752662156e-14)
(6.63309386578088e-13,1.15813520560314e-09,3.06279256012355e-13)
(9.37526698594107e-13,2.28159080395774e-09,4.22527476511606e-13)
(0,0,0)
(0,0,0)
(0,0,0)
(0,0,0)
(0,0,0)
(0,0,0)
(4.71745466944076e-13,1.89301135637309e-11,-4.86469482988016e-11)
(1.64748694928362e-12,4.01666356144439e-11,-4.62328392116546e-11)
(2.63080882083328e-12,6.77275717475374e-11,-4.09615962501677e-11)
(2.90935006266685e-12,1.05156237856553e-10,-3.29952978381551e-11)
(3.73432698225055e-12,1.64347232689756e-10,-2.38796454696258e-11)
(3.75571108691769e-12,2.58499774812416e-10,-1.35771568219522e-11)
(2.74208027154859e-12,4.10408979982718e-10,-5.03948002030815e-12)
(2.5362055119987e-12,6.68322312600265e-10,-1.93989230373347e-12)
(2.69828597536666e-12,1.15912777332459e-09,-1.02804337007612e-12)
(2.97574714907832e-12,2.28230835585448e-09,-4.98419364200898e-13)
(0,0,0)
(0,0,0)
(0,0,0)
(0,0,0)
(0,0,0)
(0,0,0)
(1.43165088619394e-12,1.69762227678741e-11,-7.85631396136832e-11)
(2.81522068867991e-12,3.60543940325103e-11,-7.52214395196182e-11)
(3.24231784245442e-12,6.09417213322638e-11,-6.85725684833162e-11)
(3.28184919374589e-12,9.68694128924203e-11,-5.86678591870931e-11)
(4.7206396929418e-12,1.54935640028056e-10,-4.63340084327858e-11)
(5.34532606361632e-12,2.50507413442152e-10,-3.07804936239868e-11)
(5.03711160359459e-12,4.07704229519707e-10,-1.61334287202176e-11)
(3.80417175483476e-12,6.69840407037812e-10,-1.00423197412695e-11)
(4.09575004673963e-12,1.16129865886089e-09,-7.58937597600809e-12)
(4.97479940221325e-12,2.28385065939341e-09,-4.60543619405198e-12)
(0,0,0)
(0,0,0)
(0,0,0)
(0,0,0)
(0,0,0)
(0,0,0)
(1.98727528206779e-12,1.43139283390719e-11,-1.20187730968646e-10)
(3.32053759388948e-12,3.03838453157206e-11,-1.16728755537216e-10)
(4.15857502923362e-12,5.17252648889886e-11,-1.09941926055086e-10)
(4.82362135089858e-12,8.42316934215301e-11,-9.95256065229092e-11)
(6.71439837908776e-12,1.39119574527978e-10,-8.50472717276959e-11)
(8.14887689383037e-12,2.3513222375087e-10,-6.63202862549867e-11)
(8.12579402571055e-12,4.00175420134132e-10,-4.66156535780532e-11)
(5.52234095559678e-12,6.70420104592545e-10,-3.5880818803937e-11)
(5.58766457691075e-12,1.1621921427341e-09,-2.6758104956802e-11)
(6.78656413394531e-12,2.2830079843653e-09,-1.47696869708931e-11)
(0,0,0)
(0,0,0)
(0,0,0)
(0,0,0)
(0,0,0)
(0,0,0)
(2.80215618940183e-12,1.15589027259416e-11,-1.79777898525146e-10)
(4.07323794778414e-12,2.43841400825126e-11,-1.76628368389452e-10)
(5.02432685673752e-12,4.13841887936853e-11,-1.70698466209487e-10)
(6.72883141485526e-12,6.8518297196296e-11,-1.61988916822139e-10)
(9.41695162078824e-12,1.17819074824128e-10,-1.49399448322592e-10)
(1.13852051394432e-11,2.10133828383237e-10,-1.33502028438985e-10)
(8.7053256899716e-12,3.81033981884545e-10,-1.18423419022956e-10)
(7.71781005770589e-12,6.6450166731993e-10,-9.24214659272118e-11)
(8.74203816748094e-12,1.15537395089776e-09,-6.51889223548712e-11)
(1.0519739509761e-11,2.27329366251757e-09,-3.41194159136922e-11)
(0,0,0)
(0,0,0)
(0,0,0)
(0,0,0)
(0,0,0)
(0,0,0)
(2.35192346002041e-12,8.55103638468635e-12,-2.68856633971338e-10)
(3.74778838110691e-12,1.830514818973e-11,-2.66760323404207e-10)
(5.50624699456696e-12,3.13891329387739e-11,-2.62941274938741e-10)
(8.39027926179644e-12,5.28179560314171e-11,-2.57310884163528e-10)
(1.16962487352232e-11,9.54451843450832e-11,-2.48263149677385e-10)
(1.3709623583225e-11,1.84097198266795e-10,-2.3434548219325e-10)
(1.23096835815542e-11,3.63166065234326e-10,-2.14601196943931e-10)
(1.22533929406785e-11,6.45379902745634e-10,-1.77920870791875e-10)
(1.42482675892223e-11,1.13051315556049e-09,-1.28291855544491e-10)
(1.59536358927262e-11,2.24425454221826e-09,-6.77627004083145e-11)
(0,0,0)
(0,0,0)
(0,0,0)
(0,0,0)
(0,0,0)
(0,0,0)
(1.62204558307069e-12,6.24518419112732e-12,-4.13832691290133e-10)
(3.14129572383792e-12,1.34693924091543e-11,-4.12116282118711e-10)
(5.8839517196955e-12,2.32115965758692e-11,-4.0957555932185e-10)
(9.15394468659034e-12,3.96297167380456e-11,-4.06371971856385e-10)
(1.191726340318e-11,7.49997072458634e-11,-4.0137053460083e-10)
(1.2167113321255e-11,1.54230842906433e-10,-3.89714832403233e-10)
(1.69224573836367e-11,3.31657765871373e-10,-3.56440130950605e-10)
(1.90740786148092e-11,6.02023058009053e-10,-3.11584266142207e-10)
(2.16778397186842e-11,1.07485138181499e-09,-2.30494757027625e-10)
(2.33178660667466e-11,2.18034114938105e-09,-1.24384830178948e-10)
(0,0,0)
(0,0,0)
(0,0,0)
(0,0,0)
(0,0,0)
(0,0,0)
(1.70293424180353e-12,4.25221371070146e-12,-6.65292927048545e-10)
(3.56850241905184e-12,9.60029847865692e-12,-6.63898082958586e-10)
(6.72329832232258e-12,1.72862242912793e-11,-6.61777523954779e-10)
(1.07963957406506e-11,3.16861357607513e-11,-6.58933041984192e-10)
(1.53671873541353e-11,6.44952359589593e-11,-6.53868031138766e-10)
(1.8089584310489e-11,1.37299065443413e-10,-6.40653127588913e-10)
(2.20028934299892e-11,2.87134236445305e-10,-6.05607401820199e-10)
(2.54239732087074e-11,5.22470600352813e-10,-5.31747928116921e-10)
(2.80738501657431e-11,9.7115353989044e-10,-4.09540501982326e-10)
(2.96214719734175e-11,2.05848134622369e-09,-2.3278467374442e-10)
(0,0,0)
(0,0,0)
(0,0,0)
(0,0,0)
(0,0,0)
(0,0,0)
(1.08155933328232e-12,2.51074450827904e-12,-1.15144224981931e-09)
(2.19156068099234e-12,6.2576914934424e-12,-1.15047912566957e-09)
(5.89012575889882e-12,1.19395287738472e-11,-1.14853568019968e-09)
(1.08483967846613e-11,2.36240470174116e-11,-1.14470812088129e-09)
(1.63521754595149e-11,5.00081974876644e-11,-1.13625089365428e-09)
(1.9984965562328e-11,1.05786985642172e-10,-1.11601205939975e-09)
(2.32000173216961e-11,2.137773429787e-10,-1.06877942928581e-09)
(2.7382930359889e-11,4.01031096951865e-10,-9.71633029848336e-10)
(3.03753498790119e-11,7.95498593275368e-10,-7.98752491366582e-10)
(3.25543972810496e-11,1.82708152332325e-09,-4.99635299971751e-10)
(0,0,0)
(0,0,0)
(0,0,0)
(0,0,0)
(0,0,0)
(0,0,0)
(-3.23861392427347e-13,1.14288644201299e-12,-2.27242924079968e-09)
(1.04439311091298e-12,3.22221027196443e-12,-2.27192742333578e-09)
(5.56346362057247e-12,6.38147270043723e-12,-2.26980329500743e-09)
(1.05487731609294e-11,1.29206363673036e-11,-2.26462716629466e-09)
(1.61871213859093e-11,2.7487078699639e-11,-2.25304890796721e-09)
(2.10722528463956e-11,5.77592031630082e-11,-2.22728183491499e-09)
(2.50255748038382e-11,1.16010762532099e-10,-2.17060877571367e-09)
(2.92282051865093e-11,2.27863273166187e-10,-2.05520892366283e-09)
(3.21132644274427e-11,4.96693208901613e-10,-1.82769320505811e-09)
(3.40835204582532e-11,1.32899979264581e-09,-1.3307218749839e-09)
(0,0,0)
(0,0,0)
(0,0,0)
(0,0,0)
(0,0,0)
(0,0,0)
(0,0,0)
(0,0,0)
(0,0,0)
(0,0,0)
(0,0,0)
(0,0,0)
(0,0,0)
(0,0,0)
(0,0,0)
(0,0,0)
(0,0,0)
(0,0,0)
(0,0,0)
(0,0,0)
(0,0,0)
(0,0,0)
(0,0,0)
(0,0,0)
(0,0,0)
(0,0,0)
(0,0,0)
(0,0,0)
(0,0,0)
(0,0,0)
(0,0,0)
(0,0,0)
(0,0,0)
(0,0,0)
(0,0,0)
(0,0,0)
(0,0,0)
(0,0,0)
(0,0,0)
(0,0,0)
(0,0,0)
(0,0,0)
(0,0,0)
(0,0,0)
(0,0,0)
(0,0,0)
(0,0,0)
(0,0,0)
(0,0,0)
(0,0,0)
(0,0,0)
(0,0,0)
(0,0,0)
(0,0,0)
(0,0,0)
(0,0,0)
(0,0,0)
(0,0,0)
(0,0,0)
(0,0,0)
(0,0,0)
(0,0,0)
(0,0,0)
(0,0,0)
(0,0,0)
(0,0,0)
(0,0,0)
(0,0,0)
(0,0,0)
(0,0,0)
(0,0,0)
(0,0,0)
(0,0,0)
(0,0,0)
(0,0,0)
(0,0,0)
(0,0,0)
(0,0,0)
(0,0,0)
(0,0,0)
(0,0,0)
(0,0,0)
(0,0,0)
(0,0,0)
(0,0,0)
(0,0,0)
(0,0,0)
(0,0,0)
(0,0,0)
(0,0,0)
(0,0,0)
(0,0,0)
(0,0,0)
(0,0,0)
(0,0,0)
(0,0,0)
(0,0,0)
(0,0,0)
(0,0,0)
(0,0,0)
(0,0,0)
(0,0,0)
(-1.37012335288295e-13,2.80212924931056e-11,-3.21323293612857e-11)
(1.38982028236304e-13,5.83529921873158e-11,-3.07805602663309e-11)
(6.59656659433356e-13,9.5921012268617e-11,-2.71993093208595e-11)
(6.06127109663885e-13,1.45591999555666e-10,-2.14600602540948e-11)
(1.24857325633072e-12,2.18399864960674e-10,-1.43220504851806e-11)
(1.57634607011914e-12,3.26285295418059e-10,-6.05613271371291e-12)
(7.90477694017519e-13,4.86568338423762e-10,1.3235095385368e-12)
(-1.18136497047261e-13,7.21403479442951e-10,3.29364382590128e-12)
(-4.45506555243556e-13,1.05751620308584e-09,2.35936430366748e-12)
(6.42502278195242e-13,1.46677471727089e-09,9.37926963477814e-13)
(0,0,0)
(0,0,0)
(0,0,0)
(0,0,0)
(0,0,0)
(0,0,0)
(1.15271753004334e-14,2.64576856635113e-11,-6.70510688713929e-11)
(4.88485569076217e-13,5.49086535889327e-11,-6.37388787360621e-11)
(1.4503608230826e-12,9.05965250940949e-11,-5.69115318211596e-11)
(2.08052265922417e-12,1.39049907782555e-10,-4.60115113288242e-11)
(2.84343099616639e-12,2.11264742322917e-10,-3.13585377324492e-11)
(3.21039565565251e-12,3.2059236380996e-10,-1.30307485552921e-11)
(2.3472430168921e-12,4.8623196632346e-10,3.77897236267974e-12)
(1.06262142072749e-13,7.2435243677566e-10,7.43536854035798e-12)
(-2.22356689140211e-15,1.06056998527257e-09,4.70530799111193e-12)
(9.35024246186769e-13,1.46909469735324e-09,1.65673334110209e-12)
(0,0,0)
(0,0,0)
(0,0,0)
(0,0,0)
(0,0,0)
(0,0,0)
(7.52245218971955e-13,2.32230582019911e-11,-1.06528647942341e-10)
(1.83689837025393e-12,4.84610034123005e-11,-1.02271824427582e-10)
(2.55406499013899e-12,8.04037795276113e-11,-9.34065286310638e-11)
(3.58571790964882e-12,1.25336836123525e-10,-7.87956791425816e-11)
(4.98319038418063e-12,1.94602733900467e-10,-5.72477035881207e-11)
(6.07345085109092e-12,3.06361623641417e-10,-2.6678771218381e-11)
(6.47481201114222e-12,4.85299636626793e-10,6.04023735146173e-12)
(7.71530433813882e-13,7.31801027967819e-10,8.76726079860387e-12)
(2.1832639258674e-13,1.06779579203621e-09,2.11303175660685e-12)
(1.21203823555939e-12,1.47454662854654e-09,-1.29301974869908e-12)
(0,0,0)
(0,0,0)
(0,0,0)
(0,0,0)
(0,0,0)
(0,0,0)
(1.28332546309068e-12,1.94562296860507e-11,-1.60064304943829e-10)
(2.53341334604766e-12,4.01657958725638e-11,-1.55556753965719e-10)
(4.08333159168712e-12,6.63201861801694e-11,-1.46232243848422e-10)
(6.0586827803023e-12,1.04234911673959e-10,-1.30159443691473e-10)
(9.28791261092159e-12,1.65494238268828e-10,-1.04685444082272e-10)
(1.34426395839443e-11,2.75428735737835e-10,-6.49355272693788e-11)
(1.65323975014573e-11,4.80305551986528e-10,-1.14881681524228e-11)
(2.31806438147824e-12,7.45901210604675e-10,-1.25032725152579e-11)
(4.17438427673616e-13,1.07816580208958e-09,-1.78140534238498e-11)
(1.73119901018971e-12,1.4794442117457e-09,-1.29713836869688e-11)
(0,0,0)
(0,0,0)
(0,0,0)
(0,0,0)
(0,0,0)
(0,0,0)
(2.66049239456469e-12,1.54136610626665e-11,-2.34011569427629e-10)
(4.22232766153675e-12,3.10409648785702e-11,-2.2980797166703e-10)
(6.3098333231258e-12,5.00595001398946e-11,-2.21430828614391e-10)
(9.83970408042583e-12,7.7896374526884e-11,-2.07450471069023e-10)
(1.58934222171933e-11,1.24254385253782e-10,-1.861158854008e-10)
(2.2343225838829e-11,2.14158140253446e-10,-1.58959512188044e-10)
(5.71289243602266e-13,4.27864570692948e-10,-1.58570043674607e-10)
(-3.92968940374611e-13,7.61010845286548e-10,-1.04014354536208e-10)
(2.53332706519801e-12,1.08339126592963e-09,-7.29921122010849e-11)
(5.43944389490688e-12,1.47452367260622e-09,-3.92451968462728e-11)
(0,0,0)
(0,0,0)
(0,0,0)
(0,0,0)
(0,0,0)
(0,0,0)
(2.56146508699938e-12,1.13454630777899e-11,-3.37352479464218e-10)
(4.76449569593722e-12,2.21681346586893e-11,-3.34722451290914e-10)
(8.05339258202909e-12,3.44542254812682e-11,-3.29323046705761e-10)
(1.25307840703327e-11,5.21702088718562e-11,-3.20308193419916e-10)
(1.82240583492237e-11,8.50314086023716e-11,-3.06440932539252e-10)
(2.3831693694445e-11,1.66870592812078e-10,-2.87378113650151e-10)
(7.13765679281106e-12,4.27740516000234e-10,-2.80542271942382e-10)
(5.98122242921613e-12,7.51794824718137e-10,-2.22059435535146e-10)
(9.38088619921144e-12,1.06033727853063e-09,-1.56707313440157e-10)
(1.21043283206965e-11,1.44254358580752e-09,-8.16154057058697e-11)
(0,0,0)
(0,0,0)
(0,0,0)
(0,0,0)
(0,0,0)
(0,0,0)
(1.8986068927101e-12,8.12014048960893e-12,-4.89848870488536e-10)
(4.46966685692726e-12,1.5111463985783e-11,-4.87982768447267e-10)
(8.60573653887235e-12,2.22460284005519e-11,-4.85374362324328e-10)
(1.20960884084099e-11,3.13458227094297e-11,-4.82711139288749e-10)
(1.07660324927675e-11,4.87404609275976e-11,-4.82513664225383e-10)
(-4.17581066861579e-12,1.00100127115219e-10,-4.85278246123844e-10)
(1.65901220015614e-11,3.95511540638211e-10,-4.14902697277557e-10)
(1.75370271558634e-11,7.02664449723952e-10,-4.00155576354828e-10)
(1.92657547950273e-11,9.93220708581911e-10,-2.79852815202966e-10)
(2.07928390456831e-11,1.36631258664555e-09,-1.44635867167869e-10)
(0,0,0)
(0,0,0)
(0,0,0)
(0,0,0)
(0,0,0)
(0,0,0)
(2.04955935455807e-12,5.30189840857239e-12,-7.17141829816946e-10)
(4.79055040054802e-12,1.02584820228508e-11,-7.15671188149614e-10)
(9.22551186840474e-12,1.5766109955866e-11,-7.14006450564722e-10)
(1.37934736398136e-11,2.51445686687176e-11,-7.13035952257003e-10)
(1.66393222747651e-11,5.09802029290005e-11,-7.14702121047717e-10)
(1.45559383433269e-11,1.2912289336432e-10,-7.16721550747047e-10)
(2.15003131933857e-11,3.58372017340481e-10,-6.95930268153611e-10)
(2.46560504738912e-11,5.80986678766914e-10,-5.92906435098833e-10)
(2.69729685432459e-11,8.60197683764985e-10,-4.32949566558694e-10)
(2.82366211300459e-11,1.2247027723707e-09,-2.33716674280661e-10)
(0,0,0)
(0,0,0)
(0,0,0)
(0,0,0)
(0,0,0)
(0,0,0)
(1.48629324967485e-12,3.12714995358246e-12,-1.0472711127458e-09)
(3.28359643242575e-12,6.73797119415594e-12,-1.04598620023493e-09)
(7.62062251453808e-12,1.1479360305037e-11,-1.04411045650959e-09)
(1.30945802078281e-11,2.14614447031886e-11,-1.04150401420857e-09)
(1.8634459993399e-11,4.75517546887837e-11,-1.03689227485342e-09)
(2.07801179271916e-11,1.1296476576946e-10,-1.02226898172106e-09)
(2.38201983306883e-11,2.51196333141751e-10,-9.76609466312666e-10)
(2.7670215662814e-11,4.20040136545856e-10,-8.5848415193981e-10)
(3.00635428587064e-11,6.61700462623017e-10,-6.65341509530065e-10)
(3.10008279865901e-11,9.92474862593755e-10,-3.82321043992263e-10)
(0,0,0)
(0,0,0)
(0,0,0)
(0,0,0)
(0,0,0)
(0,0,0)
(3.17207585118601e-13,1.49222802982665e-12,-1.45244832067343e-09)
(2.14247505414992e-12,3.51028384867347e-12,-1.45182440378472e-09)
(6.76880760867871e-12,6.5270421975849e-12,-1.44971688537373e-09)
(1.18911512004391e-11,1.28474792999455e-11,-1.44495368082716e-09)
(1.79071270337473e-11,2.83028665415754e-11,-1.43483056869817e-09)
(2.21583968074947e-11,6.38692110716842e-11,-1.40927055213168e-09)
(2.56364852855076e-11,1.30790052408383e-10,-1.34762594527486e-09)
(2.9575759746802e-11,2.26135938145051e-10,-1.21789385439181e-09)
(3.18351432553589e-11,3.78962425875159e-10,-9.92062539671941e-10)