/*--------------------------------*- C++ -*----------------------------------*\
| =========                 |                                                 |
| \\      /  F ield         | foam-extend: Open Source CFD                    |
|  \\    /   O peration     | Version:     4.0                                |
|   \\  /    A nd           | Web:         http://www.foam-extend.org         |
|    \\/     M anipulation  |                                                 |
\*---------------------------------------------------------------------------*/
FoamFile
{
    version 2.0;
    format ascii;
    class volVectorField;
    location "2262";
    object      E;
}
// * * * * * * * * * * * * * * * * * * * * * * * * * * * * * * * * * * * * * //

dimensions      [0 1 -1 0 0 0 0];

internalField   nonuniform List<vector>
4096
(
(0,0,0)
(0,0,0)
(0,0,0)
(0,0,0)
(0,0,0)
(0,0,0)
(0,0,0)
(0,0,0)
(0,0,0)
(0,0,0)
(0,0,0)
(0,0,0)
(0,0,0)
(0,0,0)
(0,0,0)
(0,0,0)
(0,0,0)
(0,0,0)
(0,0,0)
(0,0,0)
(0,0,0)
(0,0,0)
(0,0,0)
(0,0,0)
(0,0,0)
(0,0,0)
(0,0,0)
(0,0,0)
(0,0,0)
(0,0,0)
(0,0,0)
(0,0,0)
(0,0,0)
(0,0,0)
(0,0,0)
(0,0,0)
(0,0,0)
(0,0,0)
(0,0,0)
(0,0,0)
(0,0,0)
(0,0,0)
(0,0,0)
(0,0,0)
(0,0,0)
(0,0,0)
(0,0,0)
(0,0,0)
(0,0,0)
(0,0,0)
(0,0,0)
(0,0,0)
(0,0,0)
(0,0,0)
(0,0,0)
(0,0,0)
(0,0,0)
(0,0,0)
(0,0,0)
(0,0,0)
(0,0,0)
(0,0,0)
(0,0,0)
(0,0,0)
(0,0,0)
(0,0,0)
(0,0,0)
(0,0,0)
(0,0,0)
(0,0,0)
(0,0,0)
(0,0,0)
(0,0,0)
(0,0,0)
(0,0,0)
(0,0,0)
(0,0,0)
(0,0,0)
(0,0,0)
(0,0,0)
(0,0,0)
(0,0,0)
(0,0,0)
(0,0,0)
(0,0,0)
(0,0,0)
(0,0,0)
(0,0,0)
(0,0,0)
(0,0,0)
(0,0,0)
(0,0,0)
(0,0,0)
(0,0,0)
(0,0,0)
(0,0,0)
(0,0,0)
(0,0,0)
(0,0,0)
(0,0,0)
(0,0,0)
(0,0,0)
(0,0,0)
(0,0,0)
(0,0,0)
(0,0,0)
(0,0,0)
(0,0,0)
(0,0,0)
(0,0,0)
(0,0,0)
(0,0,0)
(0,0,0)
(0,0,0)
(0,0,0)
(0,0,0)
(0,0,0)
(0,0,0)
(0,0,0)
(0,0,0)
(0,0,0)
(0,0,0)
(0,0,0)
(0,0,0)
(0,0,0)
(0,0,0)
(0,0,0)
(0,0,0)
(0,0,0)
(0,0,0)
(0,0,0)
(0,0,0)
(0,0,0)
(0,0,0)
(0,0,0)
(0,0,0)
(0,0,0)
(0,0,0)
(0,0,0)
(0,0,0)
(0,0,0)
(0,0,0)
(0,0,0)
(0,0,0)
(0,0,0)
(0,0,0)
(0,0,0)
(0,0,0)
(0,0,0)
(0,0,0)
(0,0,0)
(0,0,0)
(0,0,0)
(0,0,0)
(0,0,0)
(0,0,0)
(0,0,0)
(0,0,0)
(0,0,0)
(0,0,0)
(0,0,0)
(0,0,0)
(0,0,0)
(0,0,0)
(0,0,0)
(0,0,0)
(0,0,0)
(0,0,0)
(0,0,0)
(0,0,0)
(0,0,0)
(0,0,0)
(0,0,0)
(0,0,0)
(0,0,0)
(0,0,0)
(0,0,0)
(0,0,0)
(0,0,0)
(0,0,0)
(0,0,0)
(0,0,0)
(0,0,0)
(0,0,0)
(0,0,0)
(0,0,0)
(0,0,0)
(0,0,0)
(0,0,0)
(0,0,0)
(0,0,0)
(0,0,0)
(0,0,0)
(0,0,0)
(0,0,0)
(0,0,0)
(0,0,0)
(0,0,0)
(0,0,0)
(0,0,0)
(0,0,0)
(0,0,0)
(0,0,0)
(0,0,0)
(0,0,0)
(0,0,0)
(0,0,0)
(0,0,0)
(0,0,0)
(0,0,0)
(0,0,0)
(0,0,0)
(0,0,0)
(0,0,0)
(0,0,0)
(0,0,0)
(0,0,0)
(0,0,0)
(0,0,0)
(0,0,0)
(0,0,0)
(0,0,0)
(0,0,0)
(0,0,0)
(0,0,0)
(0,0,0)
(0,0,0)
(0,0,0)
(0,0,0)
(0,0,0)
(0,0,0)
(0,0,0)
(0,0,0)
(0,0,0)
(0,0,0)
(0,0,0)
(0,0,0)
(0,0,0)
(0,0,0)
(0,0,0)
(0,0,0)
(0,0,0)
(0,0,0)
(0,0,0)
(0,0,0)
(0,0,0)
(0,0,0)
(0,0,0)
(0,0,0)
(0,0,0)
(0,0,0)
(0,0,0)
(0,0,0)
(0,0,0)
(0,0,0)
(0,0,0)
(0,0,0)
(0,0,0)
(0,0,0)
(0,0,0)
(0,0,0)
(0,0,0)
(0,0,0)
(0,0,0)
(0,0,0)
(0,0,0)
(0,0,0)
(0,0,0)
(0,0,0)
(0,0,0)
(0,0,0)
(0,0,0)
(0,0,0)
(0,0,0)
(0,0,0)
(0,0,0)
(0,0,0)
(0,0,0)
(0,0,0)
(0,0,0)
(0,0,0)
(0,0,0)
(0,0,0)
(0,0,0)
(0,0,0)
(0,0,0)
(0,0,0)
(0,0,0)
(0,0,0)
(0,0,0)
(0,0,0)
(0,0,0)
(0,0,0)
(0,0,0)
(0,0,0)
(0,0,0)
(0,0,0)
(0,0,0)
(0,0,0)
(0,0,0)
(0,0,0)
(0,0,0)
(0,0,0)
(0,0,0)
(0,0,0)
(0,0,0)
(0,0,0)
(0,0,0)
(0,0,0)
(0,0,0)
(0,0,0)
(0,0,0)
(0,0,0)
(0,0,0)
(0,0,0)
(0,0,0)
(0,0,0)
(0,0,0)
(0,0,0)
(0,0,0)
(0,0,0)
(0,0,0)
(0,0,0)
(0,0,0)
(0,0,0)
(0,0,0)
(0,0,0)
(0,0,0)
(0,0,0)
(0,0,0)
(0,0,0)
(0,0,0)
(0,0,0)
(0,0,0)
(0,0,0)
(0,0,0)
(0,0,0)
(0,0,0)
(0,0,0)
(0,0,0)
(0,0,0)
(0,0,0)
(0,0,0)
(0,0,0)
(0,0,0)
(0,0,0)
(0,0,0)
(0,0,0)
(0,0,0)
(0,0,0)
(0,0,0)
(0,0,0)
(0,0,0)
(0,0,0)
(0,0,0)
(0,0,0)
(0,0,0)
(0,0,0)
(0,0,0)
(0,0,0)
(0,0,0)
(0,0,0)
(0,0,0)
(0,0,0)
(0,0,0)
(0,0,0)
(0,0,0)
(0,0,0)
(0,0,0)
(0,0,0)
(0,0,0)
(0,0,0)
(0,0,0)
(0,0,0)
(0,0,0)
(0,0,0)
(0,0,0)
(0,0,0)
(0,0,0)
(0,0,0)
(0,0,0)
(0,0,0)
(0,0,0)
(0,0,0)
(0,0,0)
(0,0,0)
(0,0,0)
(0,0,0)
(0,0,0)
(0,0,0)
(0,0,0)
(0,0,0)
(0,0,0)
(0,0,0)
(0,0,0)
(0,0,0)
(0,0,0)
(0,0,0)
(0,0,0)
(0,0,0)
(0,0,0)
(0,0,0)
(0,0,0)
(0,0,0)
(0,0,0)
(0,0,0)
(0,0,0)
(0,0,0)
(0,0,0)
(0,0,0)
(0,0,0)
(0,0,0)
(0,0,0)
(0,0,0)
(0,0,0)
(0,0,0)
(0,0,0)
(0,0,0)
(0,0,0)
(0,0,0)
(0,0,0)
(0,0,0)
(0,0,0)
(0,0,0)
(0,0,0)
(0,0,0)
(0,0,0)
(0,0,0)
(0,0,0)
(0,0,0)
(0,0,0)
(0,0,0)
(0,0,0)
(0,0,0)
(0,0,0)
(0,0,0)
(0,0,0)
(0,0,0)
(0,0,0)
(0,0,0)
(0,0,0)
(0,0,0)
(0,0,0)
(0,0,0)
(0,0,0)
(0,0,0)
(0,0,0)
(0,0,0)
(0,0,0)
(0,0,0)
(0,0,0)
(0,0,0)
(0,0,0)
(0,0,0)
(0,0,0)
(0,0,0)
(0,0,0)
(0,0,0)
(0,0,0)
(0,0,0)
(0,0,0)
(0,0,0)
(0,0,0)
(0,0,0)
(0,0,0)
(0,0,0)
(0,0,0)
(0,0,0)
(0,0,0)
(0,0,0)
(0,0,0)
(0,0,0)
(0,0,0)
(0,0,0)
(0,0,0)
(0,0,0)
(0,0,0)
(0,0,0)
(0,0,0)
(0,0,0)
(0,0,0)
(0,0,0)
(0,0,0)
(0,0,0)
(0,0,0)
(0,0,0)
(0,0,0)
(0,0,0)
(0,0,0)
(0,0,0)
(0,0,0)
(0,0,0)
(0,0,0)
(0,0,0)
(0,0,0)
(0,0,0)
(0,0,0)
(0,0,0)
(0,0,0)
(0,0,0)
(0,0,0)
(0,0,0)
(0,0,0)
(0,0,0)
(0,0,0)
(0,0,0)
(0,0,0)
(0,0,0)
(0,0,0)
(0,0,0)
(0,0,0)
(0,0,0)
(0,0,0)
(0,0,0)
(0,0,0)
(0,0,0)
(0,0,0)
(0,0,0)
(0,0,0)
(0,0,0)
(0,0,0)
(0,0,0)
(0,0,0)
(0,0,0)
(0,0,0)
(0,0,0)
(0,0,0)
(0,0,0)
(0,0,0)
(0,0,0)
(0,0,0)
(0,0,0)
(0,0,0)
(0,0,0)
(0,0,0)
(0,0,0)
(0,0,0)
(0,0,0)
(0,0,0)
(0,0,0)
(0,0,0)
(0,0,0)
(0,0,0)
(0,0,0)
(0,0,0)
(0,0,0)
(0,0,0)
(0,0,0)
(0,0,0)
(0,0,0)
(0,0,0)
(0,0,0)
(0,0,0)
(0,0,0)
(0,0,0)
(0,0,0)
(0,0,0)
(0,0,0)
(0,0,0)
(0,0,0)
(0,0,0)
(0,0,0)
(0,0,0)
(0,0,0)
(0,0,0)
(0,0,0)
(0,0,0)
(0,0,0)
(0,0,0)
(0,0,0)
(0,0,0)
(0,0,0)
(0,0,0)
(0,0,0)
(0,0,0)
(0,0,0)
(0,0,0)
(0,0,0)
(0,0,0)
(0,0,0)
(0,0,0)
(0,0,0)
(0,0,0)
(0,0,0)
(0,0,0)
(0,0,0)
(0,0,0)
(0,0,0)
(0,0,0)
(0,0,0)
(0,0,0)
(0,0,0)
(0,0,0)
(0,0,0)
(0,0,0)
(0,0,0)
(0,0,0)
(0,0,0)
(0,0,0)
(0,0,0)
(0,0,0)
(0,0,0)
(0,0,0)
(0,0,0)
(0,0,0)
(0,0,0)
(0,0,0)
(0,0,0)
(0,0,0)
(0,0,0)
(0,0,0)
(0,0,0)
(0,0,0)
(0,0,0)
(0,0,0)
(0,0,0)
(0,0,0)
(0,0,0)
(0,0,0)
(0,0,0)
(0,0,0)
(0,0,0)
(0,0,0)
(0,0,0)
(0,0,0)
(0,0,0)
(0,0,0)
(0,0,0)
(0,0,0)
(0,0,0)
(0,0,0)
(0,0,0)
(0,0,0)
(0,0,0)
(0,0,0)
(0,0,0)
(0,0,0)
(0,0,0)
(0,0,0)
(0,0,0)
(0,0,0)
(0,0,0)
(0,0,0)
(0,0,0)
(0,0,0)
(0,0,0)
(0,0,0)
(0,0,0)
(0,0,0)
(0,0,0)
(0,0,0)
(0,0,0)
(0,0,0)
(0,0,0)
(0,0,0)
(0,0,0)
(0,0,0)
(0,0,0)
(0,0,0)
(0,0,0)
(0,0,0)
(0,0,0)
(0,0,0)
(0,0,0)
(0,0,0)
(0,0,0)
(0,0,0)
(0,0,0)
(0,0,0)
(0,0,0)
(0,0,0)
(0,0,0)
(0,0,0)
(0,0,0)
(0,0,0)
(0,0,0)
(0,0,0)
(0,0,0)
(0,0,0)
(0,0,0)
(0,0,0)
(0,0,0)
(0,0,0)
(0,0,0)
(0,0,0)
(0,0,0)
(0,0,0)
(0,0,0)
(0,0,0)
(0,0,0)
(0,0,0)
(0,0,0)
(0,0,0)
(0,0,0)
(0,0,0)
(0,0,0)
(0,0,0)
(0,0,0)
(0,0,0)
(0,0,0)
(0,0,0)
(0,0,0)
(0,0,0)
(0,0,0)
(0,0,0)
(0,0,0)
(0,0,0)
(0,0,0)
(0,0,0)
(0,0,0)
(0,0,0)
(0,0,0)
(0,0,0)
(0,0,0)
(0,0,0)
(0,0,0)
(0,0,0)
(0,0,0)
(0,0,0)
(0,0,0)
(0,0,0)
(0,0,0)
(0,0,0)
(0,0,0)
(0,0,0)
(0,0,0)
(0,0,0)
(0,0,0)
(0,0,0)
(0,0,0)
(0,0,0)
(0,0,0)
(0,0,0)
(0,0,0)
(0,0,0)
(0,0,0)
(0,0,0)
(0,0,0)
(0,0,0)
(0,0,0)
(0,0,0)
(0,0,0)
(0,0,0)
(0,0,0)
(0,0,0)
(0,0,0)
(0,0,0)
(0,0,0)
(0,0,0)
(0,0,0)
(0,0,0)
(0,0,0)
(0,0,0)
(0,0,0)
(0,0,0)
(0,0,0)
(0,0,0)
(0,0,0)
(0,0,0)
(0,0,0)
(0,0,0)
(0,0,0)
(0,0,0)
(0,0,0)
(0,0,0)
(0,0,0)
(0,0,0)
(0,0,0)
(0,0,0)
(0,0,0)
(0,0,0)
(0,0,0)
(0,0,0)
(0,0,0)
(0,0,0)
(0,0,0)
(0,0,0)
(0,0,0)
(0,0,0)
(0,0,0)
(0,0,0)
(0,0,0)
(0,0,0)
(0,0,0)
(0,0,0)
(0,0,0)
(0,0,0)
(0,0,0)
(0,0,0)
(0,0,0)
(0,0,0)
(0,0,0)
(0,0,0)
(0,0,0)
(0,0,0)
(0,0,0)
(0,0,0)
(0,0,0)
(0,0,0)
(0,0,0)
(0,0,0)
(0,0,0)
(0,0,0)
(0,0,0)
(0,0,0)
(0,0,0)
(0,0,0)
(0,0,0)
(0,0,0)
(0,0,0)
(0,0,0)
(0,0,0)
(0,0,0)
(0,0,0)
(0,0,0)
(0,0,0)
(0,0,0)
(0,0,0)
(0,0,0)
(-62180.8357507094,32917.4038019932,29263.4319487147)
(-65842.3530832685,31515.2119316888,63590.5731002945)
(-74221.9996350097,28668.7353561164,109143.837379188)
(-90015.4256308348,24243.0205978863,174916.242412142)
(-118420.862165791,18308.7236296834,275028.380948259)
(-169390.823783577,11417.395446091,433001.809285736)
(-261696.58832471,5116.09624382492,689582.301366646)
(-428562.638711201,1255.38092086086,1116889.55915703)
(-707042.134517379,-2.21004294333653,1823933.90371732)
(-985278.439545131,-86.5963558330669,2809298.93961831)
(0,0,0)
(0,0,0)
(0,0,0)
(0,0,0)
(0,0,0)
(0,0,0)
(-65810.0882656706,70774.0517392869,27953.4403283752)
(-69503.5714526339,68180.9682057632,60791.2555069397)
(-78023.7219525102,62798.1709874678,104685.541828095)
(-94174.8602822645,54259.5755881836,168843.847120068)
(-123345.834848211,42456.0409297665,268042.364668186)
(-175534.432931453,28346.384861572,426647.808184158)
(-268858.941454154,14963.3898042733,685659.456077863)
(-435091.561248875,6483.80089728424,1115522.59735024)
(-711372.634706523,3158.69083423154,1823734.33117964)
(-987288.468966048,1605.40096546038,2809330.80282432)
(0,0,0)
(0,0,0)
(0,0,0)
(0,0,0)
(0,0,0)
(0,0,0)
(-74061.8518687425,119430.855155905,25405.0484521246)
(-77799.7842525943,115985.245038088,55400.5558723974)
(-86580.3899063307,108716.861149645,96062.2556165558)
(-103525.439376024,96939.6980026979,156907.572578068)
(-134538.322316651,80079.5995621631,253822.33626231)
(-189949.032546986,58987.7481250951,413130.005545774)
(-286480.298100689,37579.3384273165,676994.355023435)
(-451326.741470959,22812.7492567911,1111992.14813486)
(-721821.63450475,15005.9508657579,1821966.52260811)
(-992015.49532454,8112.89418168701,2807474.52471648)
(0,0,0)
(0,0,0)
(0,0,0)
(0,0,0)
(0,0,0)
(0,0,0)
(-89418.7137915952,186925.518233818,21924.050713683)
(-93206.1386199043,183102.02703471,48013.4073369674)
(-102304.982185036,174969.81823796,84065.4324336805)
(-120400.866706215,161589.784563704,139816.212578881)
(-154482.095506276,141928.455264125,232449.452383201)
(-216090.447274688,116059.227318798,391468.420464191)
(-320255.196347111,87217.9146689664,662085.040569647)
(-482754.654822008,63593.4708018063,1104058.97384658)
(-740997.890934124,45176.8007365819,1814886.01490984)
(-1000384.51833081,24287.4921355069,2799095.93528696)
(0,0,0)
(0,0,0)
(0,0,0)
(0,0,0)
(0,0,0)
(0,0,0)
(-117004.432358897,285884.589421128,18045.3611715837)
(-120765.551882337,282182.362590801,39730.5774978258)
(-130015.531055578,274278.552109541,70437.3746818251)
(-149063.280877101,261245.441362668,119844.998759961)
(-186309.795311512,241878.333517183,206204.915818417)
(-255578.500772033,215497.513371645,362345.130537581)
(-371736.013005282,183023.598194025,638275.460017805)
(-530617.420574078,147047.772156293,1085438.57923741)
(-768875.892749109,105709.667725708,1793781.60499747)
(-1012503.81296156,56016.9583776587,2774555.95171686)
(0,0,0)
(0,0,0)
(0,0,0)
(0,0,0)
(0,0,0)
(0,0,0)
(-166764.55472078,438380.42561457,14268.7185273401)
(-170319.70671076,435102.873460348,31667.9143685486)
(-179254.260195442,428068.460225747,57132.2664477857)
(-198091.814073868,416335.654444721,100133.867439597)
(-235713.051501849,398315.510406684,179409.74205195)
(-306279.092690701,371649.860979845,329536.48713447)
(-422768.336550318,333322.892740983,602005.529137842)
(-574446.018878523,279683.131446029,1043816.18872663)
(-799111.903902755,204827.449183577,1743810.31117159)
(-1027749.44188765,109339.086700106,2718237.62473663)
(0,0,0)
(0,0,0)
(0,0,0)
(0,0,0)
(0,0,0)
(0,0,0)
(-258070.008931524,685556.436288787,10893.9982573057)
(-261196.308859768,682729.224760733,24463.9558166997)
(-269192.413659057,676603.246614968,45121.583086541)
(-286397.794009135,666067.740652245,81787.2908881565)
(-321335.295305017,648977.422117206,152460.674482648)
(-387614.302993116,620740.553773635,290984.284681969)
(-496923.260587876,573132.153714125,548098.284296714)
(-634849.944404174,493924.396496467,968706.963650456)
(-844205.301868539,369663.216694424,1648076.49800809)
(-1052634.15768626,201444.351441913,2608605.39095266)
(0,0,0)
(0,0,0)
(0,0,0)
(0,0,0)
(0,0,0)
(0,0,0)
(-425070.538713377,1102673.22489182,7953.75011034162)
(-427570.064820241,1100079.15020049,18173.8894908329)
(-433986.941848438,1094342.30389976,34421.7740544935)
(-447970.095773332,1084026.59431451,64433.0161655518)
(-476663.750318719,1066050.19845475,124023.990146716)
(-531740.789970076,1033299.81337953,243205.520510879)
(-623284.703682442,971030.485653384,468591.892254042)
(-735002.380345083,853358.49957415,844160.169521462)
(-926168.982752053,660353.626173353,1479638.74279458)
(-1100242.46052551,374397.402935828,2406928.15182612)
(0,0,0)
(0,0,0)
(0,0,0)
(0,0,0)
(0,0,0)
(0,0,0)
(-704649.759842732,1802011.27278718,5311.71194734701)
(-706370.271764283,1799390.03120979,12371.1027023423)
(-710734.800655861,1793380.14877297,24068.0584849513)
(-720127.074932406,1781883.91843286,46337.8092989893)
(-739066.717844499,1760299.80944171,91154.9161565322)
(-774728.127274692,1718419.05902682,180763.797783942)
(-834671.25812299,1635779.31684508,350686.224715245)
(-923897.248601467,1477043.43147019,650898.541420675)
(-1077359.32152905,1195161.07861057,1193450.41051242)
(-1183300.2597906,718741.31078714,2032406.76245173)
(0,0,0)
(0,0,0)
(0,0,0)
(0,0,0)
(0,0,0)
(0,0,0)
(-984180.121724228,2783499.20938939,2692.18512203645)
(-985034.102793425,2780766.81776913,6349.50135612908)
(-987207.334728292,2774335.93364521,12601.051212206)
(-991811.536395736,2761583.17791954,24713.3281213)
(-1000966.09114012,2736833.64857921,49145.5801239526)
(-1018169.30142986,2687843.09189496,97890.8486856577)
(-1048185.0576615,2590183.65742272,191671.565769515)
(-1098814.15461687,2398741.19201305,368787.95984349)
(-1183008.77965506,2030129.54782256,716828.270286526)
(-1191477.9879413,1313482.60577491,1313564.96324008)
(0,0,0)
(0,0,0)
(0,0,0)
(0,0,0)
(0,0,0)
(0,0,0)
(0,0,0)
(0,0,0)
(0,0,0)
(0,0,0)
(0,0,0)
(0,0,0)
(0,0,0)
(0,0,0)
(0,0,0)
(0,0,0)
(0,0,0)
(0,0,0)
(0,0,0)
(0,0,0)
(0,0,0)
(0,0,0)
(0,0,0)
(0,0,0)
(0,0,0)
(0,0,0)
(0,0,0)
(0,0,0)
(0,0,0)
(0,0,0)
(0,0,0)
(0,0,0)
(0,0,0)
(0,0,0)
(0,0,0)
(0,0,0)
(0,0,0)
(0,0,0)
(0,0,0)
(0,0,0)
(0,0,0)
(0,0,0)
(0,0,0)
(0,0,0)
(0,0,0)
(0,0,0)
(0,0,0)
(0,0,0)
(0,0,0)
(0,0,0)
(0,0,0)
(0,0,0)
(0,0,0)
(0,0,0)
(0,0,0)
(0,0,0)
(0,0,0)
(0,0,0)
(0,0,0)
(0,0,0)
(0,0,0)
(0,0,0)
(0,0,0)
(0,0,0)
(0,0,0)
(0,0,0)
(0,0,0)
(0,0,0)
(0,0,0)
(0,0,0)
(0,0,0)
(0,0,0)
(0,0,0)
(0,0,0)
(0,0,0)
(0,0,0)
(0,0,0)
(0,0,0)
(0,0,0)
(0,0,0)
(0,0,0)
(0,0,0)
(0,0,0)
(0,0,0)
(0,0,0)
(0,0,0)
(0,0,0)
(0,0,0)
(0,0,0)
(0,0,0)
(0,0,0)
(0,0,0)
(0,0,0)
(0,0,0)
(0,0,0)
(0,0,0)
(0,0,0)
(0,0,0)
(0,0,0)
(0,0,0)
(0,0,0)
(0,0,0)
(9242325.67431037,29248.7465626199,25755.2764910041)
(9236199.12411825,27860.8843627598,55363.4480414844)
(9222256.29486046,24907.7956919678,93487.8909686811)
(9196299.25734086,20115.6718484371,146568.069263225)
(9150181.08796819,13367.8902924189,224108.761951545)
(9068199.34357985,5266.18587936212,340762.941823333)
(8917794.2145208,-2037.73435955337,522820.406451989)
(8620447.6906362,-5261.73598413991,838582.346203438)
(7949514.4843218,-4355.59992565024,1545891.86040465)
(6127426.02371154,-2126.07177487743,3794824.00203754)
(0,0,0)
(0,0,0)
(0,0,0)
(0,0,0)
(0,0,0)
(0,0,0)
(9236131.1834574,62452.9039798705,24365.1039744024)
(9230010.96497807,59830.8539086774,52391.1311125389)
(9215955.90260945,54198.6123598795,88631.2229973292)
(9189523.93402358,44859.5021546192,139699.131499981)
(9142152.03511967,31184.8414138273,215894.843525424)
(9057880.25159964,13863.7065147612,333393.171473699)
(8905183.19786782,-2701.68443702848,519525.515343962)
(8609079.20396786,-9773.82884106499,839377.376098875)
(7942463.68508231,-7322.1079661717,1548018.09746506)
(6124354.40210175,-3142.03638235878,3796901.72411939)
(0,0,0)
(0,0,0)
(0,0,0)
(0,0,0)
(0,0,0)
(0,0,0)
(9222179.51682599,103994.476000582,21727.5923991955)
(9216066.0478051,100503.94317728,46699.2041876001)
(9201751.33235874,92910.3550597415,79166.2723374648)
(9174180.04176024,79962.7004537248,125868.126016856)
(9123555.44985459,60048.3033086396,198421.425065526)
(9032408.68250015,32771.9562580433,316665.993389844)
(8870990.96701341,3735.82997056491,512267.746982913)
(8577688.72792185,-8651.66931868101,841640.651182548)
(7924206.01899332,-4193.88200714934,1551995.3048401)
(6116787.92969247,-251.115661876054,3799811.49221737)
(0,0,0)
(0,0,0)
(0,0,0)
(0,0,0)
(0,0,0)
(0,0,0)
(9196550.45770412,159347.763927738,18188.0736918321)
(9190468.07624908,155543.760283763,38984.5748311133)
(9175832.80734004,147252.214267853,66015.4592126314)
(9146484.98718274,132898.445819036,105704.393073097)
(9089851.528655,110088.102720562,170841.502614666)
(8983143.12477569,76537.4214200669,287352.998517029)
(8794944.82978693,35680.2139577293,499719.121510573)
(8506177.96147295,15683.7439002783,845961.625111364)
(7887283.35324061,17286.2921964978,1555710.73984757)
(6102598.07597117,12208.2976757652,3799779.26532279)
(0,0,0)
(0,0,0)
(0,0,0)
(0,0,0)
(0,0,0)
(0,0,0)
(9151402.17955394,236149.301866203,14302.3832633862)
(9145466.00921559,232646.476133338,30478.639430559)
(9130776.64559004,225067.858845052,51381.35132253)
(9099936.83152506,212232.738883937,82557.4789701409)
(9036432.14862128,192489.533774089,136924.637098603)
(8906400.04892408,164783.963724113,246210.078213191)
(8658158.64780663,131978.018296959,479528.146176781)
(8373554.74779606,103213.313700031,847336.941121674)
(7829407.06260428,75493.4235248729,1550357.38755451)
(6081475.64755654,40804.8228868119,3787291.93494007)
(0,0,0)
(0,0,0)
(0,0,0)
(0,0,0)
(0,0,0)
(0,0,0)
(9071077.46711833,347141.012716213,10676.8004255584)
(9065555.95265397,344278.245107121,22679.9052017995)
(9051574.63538947,338171.991390799,38257.4101858327)
(9021338.14124265,328084.67240329,62486.0544647931)
(8957147.84487661,312758.333857148,108866.891118023)
(8823449.97759916,290340.296349428,213092.021317531)
(8572132.73598917,259203.979022864,450475.521166886)
(8300105.40152634,219302.625293325,819345.322283337)
(7780087.67326068,159759.318784365,1515390.38297513)
(6057268.74800628,84486.39170655,3746201.15737612)
(0,0,0)
(0,0,0)
(0,0,0)
(0,0,0)
(0,0,0)
(0,0,0)
(8922127.77025363,518734.460553167,7719.30609260959)
(8917345.33932058,516555.760638696,16410.6754954328)
(8904995.3318503,511997.089454678,27908.3650370413)
(8877576.63797064,504680.466446502,46848.672128772)
(8817759.47125369,493805.172790447,86217.5997515145)
(8689974.63407255,476731.107435,181748.384714928)
(8446319.31381289,446907.709841763,410312.612609909)
(8200801.10177238,393893.230787551,759581.494053903)
(7706959.24607087,287773.577172742,1439913.22084064)
(6015912.58630648,153870.460189471,3661492.94147981)
(0,0,0)
(0,0,0)
(0,0,0)
(0,0,0)
(0,0,0)
(0,0,0)
(8624449.11454431,823290.704799442,5434.63561079331)
(8620700.05638173,821523.183010358,11707.6251518862)
(8610917.50333115,817875.215841789,20435.5866999117)
(8588794.48625675,812135.832216209,35726.1720148649)
(8539536.0608567,803881.389096864,68960.6776476011)
(8431181.28839152,790543.985495158,151736.254340672)
(8218000.6027563,759856.274364296,357012.916494062)
(8057573.37223004,664639.226625626,653201.701195455)
(7559197.56028936,509297.389125219,1305821.87931622)
(5920117.02371324,291401.106015142,3507442.28236652)
(0,0,0)
(0,0,0)
(0,0,0)
(0,0,0)
(0,0,0)
(0,0,0)
(7951781.10225411,1522767.34355387,3603.03226350547)
(7949254.85037281,1521009.52907084,8002.09718072159)
(7942743.34977466,1517223.75922514,14685.9364815686)
(7928292.84456551,1510509.31375358,27403.068560957)
(7897483.73310302,1498699.35746036,55545.1823646283)
(7834714.09637526,1475268.69200531,120888.785319219)
(7721468.07942091,1422530.95205416,261585.303200235)
(7561909.3775643,1302314.60450472,497613.832270143)
(7111724.19259292,1089632.00513968,1087706.23524843)
(5628775.99911074,710615.791926176,3215925.82355073)
(0,0,0)
(0,0,0)
(0,0,0)
(0,0,0)
(0,0,0)
(0,0,0)
(6128221.8847428,3768025.36926374,1850.50093774408)
(6126975.99980645,3766161.62886098,4198.83166236568)
(6123781.46041528,3761934.08765523,8010.24120343773)
(6116847.99926563,3753807.51561508,15563.0367954133)
(6102543.43744116,3738245.40524751,32017.9935417723)
(6074305.24956703,3706378.44324574,67944.2244192182)
(6021993.7513695,3638685.23108367,141121.66947345)
(5921635.02062594,3497806.29028405,284691.341566099)
(5629022.51025679,3213327.39853346,708475.191375211)
(4576866.54086077,2505069.71879404,2505187.26881988)
(0,0,0)
(0,0,0)
(0,0,0)
(0,0,0)
(0,0,0)
(0,0,0)
(0,0,0)
(0,0,0)
(0,0,0)
(0,0,0)
(0,0,0)
(0,0,0)
(0,0,0)
(0,0,0)
(0,0,0)
(0,0,0)
(0,0,0)
(0,0,0)
(0,0,0)
(0,0,0)
(0,0,0)
(0,0,0)
(0,0,0)
(0,0,0)
(0,0,0)
(0,0,0)
(0,0,0)
(0,0,0)
(0,0,0)
(0,0,0)
(0,0,0)
(0,0,0)
(0,0,0)
(0,0,0)
(0,0,0)
(0,0,0)
(0,0,0)
(0,0,0)
(0,0,0)
(0,0,0)
(0,0,0)
(0,0,0)
(0,0,0)
(0,0,0)
(0,0,0)
(0,0,0)
(0,0,0)
(0,0,0)
(0,0,0)
(0,0,0)
(0,0,0)
(0,0,0)
(0,0,0)
(0,0,0)
(0,0,0)
(0,0,0)
(0,0,0)
(0,0,0)
(0,0,0)
(0,0,0)
(0,0,0)
(0,0,0)
(0,0,0)
(0,0,0)
(0,0,0)
(0,0,0)
(0,0,0)
(0,0,0)
(0,0,0)
(0,0,0)
(0,0,0)
(0,0,0)
(0,0,0)
(0,0,0)
(0,0,0)
(0,0,0)
(0,0,0)
(0,0,0)
(0,0,0)
(0,0,0)
(0,0,0)
(0,0,0)
(0,0,0)
(0,0,0)
(0,0,0)
(0,0,0)
(0,0,0)
(0,0,0)
(0,0,0)
(0,0,0)
(0,0,0)
(0,0,0)
(0,0,0)
(0,0,0)
(0,0,0)
(0,0,0)
(0,0,0)
(0,0,0)
(0,0,0)
(0,0,0)
(0,0,0)
(0,0,0)
(-160114.227659164,23142.599233479,19786.769621353)
(-166834.4139535,21744.2614022049,41565.5131761348)
(-181973.219329952,18640.815850689,67643.6784012242)
(-209424.271248191,13339.1559848388,100517.517890761)
(-256295.877738957,5313.93799375933,142170.012489433)
(-334465.557055304,-5079.76726220086,190404.1472722)
(-462291.91893177,-14671.2158890907,225650.963499213)
(-664662.726855293,-16650.9030752891,167901.750951294)
(-954813.112272435,-11443.9834579053,-275837.202111331)
(-1170709.21007581,-5254.3793962087,-2331958.12204232)
(0,0,0)
(0,0,0)
(0,0,0)
(0,0,0)
(0,0,0)
(0,0,0)
(-167169.320465692,48574.1781198974,18358.3919219497)
(-173763.573018744,45918.9823829358,38447.6758232728)
(-188737.774522868,39970.2553965113,62301.3802951047)
(-216208.971685326,29453.734245973,92409.1746281959)
(-263797.828630803,12498.0300369159,131664.413220786)
(-344067.83127362,-11711.5818902936,180733.777607375)
(-474873.365746926,-36986.3046582395,223594.896876528)
(-675288.312536528,-41226.8523420956,173027.82953298)
(-960142.669112214,-25623.3860075524,-269696.946837377)
(-1172585.64810804,-10752.823469394,-2326768.98566905)
(0,0,0)
(0,0,0)
(0,0,0)
(0,0,0)
(0,0,0)
(0,0,0)
(-182865.443260613,78425.1461798567,15683.4589120067)
(-189243.308516508,74925.826370342,32475.4381315045)
(-203952.558789208,66952.5518767066,51686.4996844551)
(-231680.612084637,52194.9489139742,75295.4057465757)
(-281706.377324739,26258.0879358224,107286.641912266)
(-370193.128689984,-16613.1315765684,155279.469673933)
(-516950.09661341,-72426.2267678548,219149.922295614)
(-712122.866213899,-80223.6466626103,188447.777637035)
(-976305.513678735,-41143.7066482694,-255030.902164802)
(-1177762.33856948,-14446.0942356539,-2316297.89625133)
(0,0,0)
(0,0,0)
(0,0,0)
(0,0,0)
(0,0,0)
(0,0,0)
(-210966.077983028,114285.243500331,12145.9052519694)
(-217007.109206771,110613.585593453,24422.798369964)
(-231287.629012869,102240.789328853,36744.464156023)
(-259549.541546994,86362.4192673236,49100.9894176732)
(-315101.386149942,56658.7718177503,64142.6872259256)
(-427771.044534285,-263.610620187173,99196.8024647694)
(-647790.216592964,-101166.520933961,211161.609896023)
(-832792.796718164,-116969.868012126,227368.056321971)
(-1016811.2374049,-40600.8092335764,-228590.783561851)
(-1188887.34783986,-8885.33307174995,-2302176.65402952)
(0,0,0)
(0,0,0)
(0,0,0)
(0,0,0)
(0,0,0)
(0,0,0)
(-258210.326467267,155975.484114414,8411.73229242804)
(-263749.158920248,152869.666212956,15860.2866940845)
(-277213.006221634,145988.84447307,20591.3502467478)
(-305422.779191499,133724.097730514,19078.7493854421)
(-367488.850355423,113255.583256158,6892.40380896081)
(-526337.044614236,81849.6194473284,-1994.26583498159)
(-1045648.44563958,45980.7861114448,195154.987451063)
(-1241067.04683903,29790.5271953863,303505.8537639)
(-1096235.63421349,26204.1701519187,-197166.961918457)
(-1207127.33246699,16623.0378589966,-2293582.88594025)
(0,0,0)
(0,0,0)
(0,0,0)
(0,0,0)
(0,0,0)
(0,0,0)
(-336067.823276204,198413.327097827,5196.91429644698)
(-340906.883638106,196252.37863407,8766.50505266154)
(-352951.210401129,191723.214442323,8047.44775931219)
(-379133.529675897,184425.584334757,-1692.90104121275)
(-439428.461122677,173461.037505777,-24832.5824062867)
(-597821.029957866,156957.625895355,-38180.1144119695)
(-1091746.28469614,133499.921620999,178669.237649024)
(-1270647.32995659,120063.833611747,299638.129600931)
(-1133218.17416832,86670.7441538967,-207033.130086806)
(-1225351.80989764,43164.397049215,-2310464.46448769)
(0,0,0)
(0,0,0)
(0,0,0)
(0,0,0)
(0,0,0)
(0,0,0)
(-463318.186564177,221387.556211916,2961.19458898913)
(-467272.342218123,220213.419649369,4107.3019976538)
(-477362.190829731,218150.632330416,526.873674729176)
(-500140.689653897,216107.805788325,-12948.5532690195)
(-555446.744490439,215777.098165112,-41568.9312989615)
(-710460.468453118,218161.812041346,-61848.5480339263)
(-1225387.48830094,218852.176494603,164995.466091675)
(-1390585.87930364,250888.211128111,266047.536536584)
(-1189202.7465883,140112.845173998,-250743.104938875)
(-1255484.22070294,58122.8499906918,-2353815.28398579)
(0,0,0)
(0,0,0)
(0,0,0)
(0,0,0)
(0,0,0)
(0,0,0)
(-666334.386231355,150977.326991195,1683.19688163678)
(-669270.186696909,150437.948432205,1918.3780627111)
(-676918.438626123,150048.813771148,-1654.39453547371)
(-694760.851645911,151987.561317609,-13489.3452768393)
(-740503.42087981,162183.698839992,-39366.997329785)
(-882642.528845652,194465.549938682,-61357.451104751)
(-1444514.43724222,263710.051329288,196789.180944418)
(-1178645.69797042,169294.865250159,155091.06390817)
(-1234218.18072498,62008.2081935907,-332899.091211685)
(-1302220.12070686,135.313415068873,-2412084.94333063)
(0,0,0)
(0,0,0)
(0,0,0)
(0,0,0)
(0,0,0)
(0,0,0)
(-957456.764190603,-300365.831356383,1070.49167750475)
(-959344.585638807,-300859.202342455,1456.54534899445)
(-964206.651993925,-301298.424476722,243.252250750242)
(-975167.710236185,-300445.931112641,-3373.23363198448)
(-1000334.39769209,-295714.294204555,-7167.64290701394)
(-1060599.14483494,-284598.374384114,7698.98951125259)
(-1192375.87718401,-276425.419711628,102167.884042316)
(-1236206.22191423,-337542.503635076,47610.3192912953)
(-1350379.2720927,-392811.467290448,-394977.07365375)
(-1372037.19993479,-341185.366883998,-2412353.72742387)
(0,0,0)
(0,0,0)
(0,0,0)
(0,0,0)
(0,0,0)
(0,0,0)
(-1172710.23904037,-2359539.07247051,594.831782601956)
(-1173624.72498762,-2360165.05565022,990.876769695413)
(-1175951.47197269,-2361157.77978679,1072.63135302931)
(-1181021.06086676,-2362267.05603266,1252.28329058392)
(-1191820.01844765,-2363437.90314366,3828.81500379617)
(-1214538.54525953,-2367108.81045405,15672.5127855314)
(-1256564.16480181,-2382546.35406519,40840.8301957352)
(-1303564.86107354,-2423169.50141919,-7842.82343550581)
(-1372427.3022157,-2415170.54467268,-343544.466695533)
(-1324567.91985581,-2071461.73046727,-2071344.17551037)
(0,0,0)
(0,0,0)
(0,0,0)
(0,0,0)
(0,0,0)
(0,0,0)
(0,0,0)
(0,0,0)
(0,0,0)
(0,0,0)
(0,0,0)
(0,0,0)
(0,0,0)
(0,0,0)
(0,0,0)
(0,0,0)
(0,0,0)
(0,0,0)
(0,0,0)
(0,0,0)
(0,0,0)
(0,0,0)
(0,0,0)
(0,0,0)
(0,0,0)
(0,0,0)
(0,0,0)
(0,0,0)
(0,0,0)
(0,0,0)
(0,0,0)
(0,0,0)
(0,0,0)
(0,0,0)
(0,0,0)
(0,0,0)
(0,0,0)
(0,0,0)
(0,0,0)
(0,0,0)
(0,0,0)
(0,0,0)
(0,0,0)
(0,0,0)
(0,0,0)
(0,0,0)
(0,0,0)
(0,0,0)
(0,0,0)
(0,0,0)
(0,0,0)
(0,0,0)
(0,0,0)
(0,0,0)
(0,0,0)
(0,0,0)
(0,0,0)
(0,0,0)
(0,0,0)
(0,0,0)
(0,0,0)
(0,0,0)
(0,0,0)
(0,0,0)
(0,0,0)
(0,0,0)
(0,0,0)
(0,0,0)
(0,0,0)
(0,0,0)
(0,0,0)
(0,0,0)
(0,0,0)
(0,0,0)
(0,0,0)
(0,0,0)
(0,0,0)
(0,0,0)
(0,0,0)
(0,0,0)
(0,0,0)
(0,0,0)
(0,0,0)
(0,0,0)
(0,0,0)
(0,0,0)
(0,0,0)
(0,0,0)
(0,0,0)
(0,0,0)
(0,0,0)
(0,0,0)
(0,0,0)
(0,0,0)
(0,0,0)
(0,0,0)
(0,0,0)
(0,0,0)
(0,0,0)
(0,0,0)
(0,0,0)
(0,0,0)
(-189364.667336545,16128.6873189507,13121.7523584303)
(-195053.034631479,14817.2466263334,26523.1264100808)
(-207571.011694275,11860.8360899378,40260.0826844672)
(-229370.031009711,6548.89608548371,53656.9463605002)
(-264462.067921923,-2178.55015704142,64001.6867005096)
(-318356.412367252,-14699.0808840634,62591.6228965239)
(-395810.237656334,-27277.9952217269,23387.9368428168)
(-491861.150352012,-27299.9311799377,-122113.708480533)
(-568665.545890406,-16775.6966324754,-491485.578230063)
(-494254.619106982,-7142.35425610767,-1160797.81494277)
(0,0,0)
(0,0,0)
(0,0,0)
(0,0,0)
(0,0,0)
(0,0,0)
(-195783.085033421,32911.7755589101,11830.676327768)
(-201157.399544272,30449.8936411769,23591.8558384535)
(-212981.386342652,24765.3753704384,34930.9283777407)
(-233622.136414156,14013.9183383337,44879.0708537168)
(-267108.833421209,-5384.71161715212,51396.2371042365)
(-319424.32194224,-37876.0710473688,49929.7179361691)
(-396371.318232886,-79145.9695685854,23295.6447689935)
(-489523.512217849,-78125.5075889125,-111643.579140708)
(-564911.417785672,-41801.1040324591,-481849.42306726)
(-491945.711475733,-15934.3763084305,-1153697.33764729)
(0,0,0)
(0,0,0)
(0,0,0)
(0,0,0)
(0,0,0)
(0,0,0)
(-209753.331910272,50418.170976207,9381.49323236511)
(-214546.297649323,47234.5770488735,17899.7989574792)
(-225033.269515409,39671.31623187,24074.5688222469)
(-243309.980983394,24381.0890543856,25336.7670049555)
(-273443.786841916,-7099.87320226478,18789.3381072439)
(-323588.511175351,-74229.0557021104,8537.70524734085)
(-408337.462292701,-203372.006521428,24151.107879476)
(-489670.291256313,-200960.459717848,-75466.5149491847)
(-555775.494205332,-81654.2297893386,-456143.408665694)
(-486302.369260241,-25550.3681832157,-1137987.38610015)
(0,0,0)
(0,0,0)
(0,0,0)
(0,0,0)
(0,0,0)
(0,0,0)
(-233929.483048834,67214.6679497167,6166.90809230345)
(-237878.736171185,64025.6447085604,10247.4673970359)
(-246358.030005544,56435.8048539002,8553.37976768382)
(-260768.790987163,40570.061653198,-6416.34339096042)
(-284393.129507902,4314.62768590603,-48539.1009211689)
(-330918.326775696,-98833.3254862171,-120787.548895653)
(-499279.013123403,-499050.408793093,26379.6499064435)
(-525808.351511391,-525231.114234802,43665.8592166275)
(-534517.410926226,-120002.11844522,-400280.078606169)
(-474912.996016828,-27090.0138482223,-1112714.78476421)
(0,0,0)
(0,0,0)
(0,0,0)
(0,0,0)
(0,0,0)
(0,0,0)
(-272260.326505705,78340.7678187717,2923.9001693815)
(-275179.888670685,75898.964667693,2481.30996068521)
(-281107.244085756,70418.1259438825,-7606.77326517415)
(-289597.190522614,60135.2572927794,-42997.5575736368)
(-295602.190384763,41418.1488930782,-151987.738751471)
(-266347.959798096,10467.6203898972,-521277.769443733)