/*--------------------------------*- C++ -*----------------------------------*\
| =========                 |                                                 |
| \\      /  F ield         | foam-extend: Open Source Cstd::filesystem::create_directory();FD                    |
|  \\    /   O peration     | Version:     4.0                                |
|   \\  /    A nd           | Web:         http://www.foam-extend.org         |
|    \\/     M anipulation  |                                                 |
\*---------------------------------------------------------------------------*/
FoamFile
{
    version 2.0;
    format ascii;
    class volVectorField;
    location "Data/1643";
    object      H;
}
// * * * * * * * * * * * * * * * * * * * * * * * * * * * * * * * * * * * * * //

dimensions      [0 1 -1 0 0 0 0];

internalField   nonuniform List<vector>
4096
(
(0,0,0)
(0,0,0)
(0,0,0)
(0,0,0)
(0,0,0)
(0,0,0)
(0,0,0)
(0,0,0)
(0,0,0)
(0,0,0)
(0,0,0)
(0,0,0)
(0,0,0)
(0,0,0)
(0,0,0)
(0,0,0)
(0,0,0)
(0,0,0)
(0,0,0)
(0,0,0)
(0,0,0)
(0,0,0)
(0,0,0)
(0,0,0)
(0,0,0)
(0,0,0)
(0,0,0)
(0,0,0)
(0,0,0)
(0,0,0)
(0,0,0)
(0,0,0)
(0,0,0)
(0,0,0)
(0,0,0)
(0,0,0)
(0,0,0)
(0,0,0)
(0,0,0)
(0,0,0)
(0,0,0)
(0,0,0)
(0,0,0)
(0,0,0)
(0,0,0)
(0,0,0)
(0,0,0)
(0,0,0)
(0,0,0)
(0,0,0)
(0,0,0)
(0,0,0)
(0,0,0)
(0,0,0)
(0,0,0)
(0,0,0)
(0,0,0)
(0,0,0)
(0,0,0)
(0,0,0)
(0,0,0)
(0,0,0)
(0,0,0)
(0,0,0)
(0,0,0)
(0,0,0)
(0,0,0)
(0,0,0)
(0,0,0)
(0,0,0)
(0,0,0)
(0,0,0)
(0,0,0)
(0,0,0)
(0,0,0)
(0,0,0)
(0,0,0)
(0,0,0)
(0,0,0)
(0,0,0)
(0,0,0)
(0,0,0)
(0,0,0)
(0,0,0)
(0,0,0)
(0,0,0)
(0,0,0)
(0,0,0)
(0,0,0)
(0,0,0)
(0,0,0)
(0,0,0)
(0,0,0)
(0,0,0)
(0,0,0)
(0,0,0)
(0,0,0)
(0,0,0)
(0,0,0)
(0,0,0)
(0,0,0)
(0,0,0)
(0,0,0)
(0,0,0)
(0,0,0)
(0,0,0)
(0,0,0)
(0,0,0)
(0,0,0)
(0,0,0)
(0,0,0)
(0,0,0)
(0,0,0)
(0,0,0)
(0,0,0)
(0,0,0)
(0,0,0)
(0,0,0)
(0,0,0)
(0,0,0)
(0,0,0)
(0,0,0)
(0,0,0)
(0,0,0)
(0,0,0)
(0,0,0)
(0,0,0)
(0,0,0)
(0,0,0)
(0,0,0)
(0,0,0)
(0,0,0)
(0,0,0)
(0,0,0)
(0,0,0)
(0,0,0)
(0,0,0)
(0,0,0)
(0,0,0)
(0,0,0)
(0,0,0)
(0,0,0)
(0,0,0)
(0,0,0)
(0,0,0)
(0,0,0)
(0,0,0)
(0,0,0)
(0,0,0)
(0,0,0)
(0,0,0)
(0,0,0)
(0,0,0)
(0,0,0)
(0,0,0)
(0,0,0)
(0,0,0)
(0,0,0)
(0,0,0)
(0,0,0)
(0,0,0)
(0,0,0)
(0,0,0)
(0,0,0)
(0,0,0)
(0,0,0)
(0,0,0)
(0,0,0)
(0,0,0)
(0,0,0)
(0,0,0)
(0,0,0)
(0,0,0)
(0,0,0)
(0,0,0)
(0,0,0)
(0,0,0)
(0,0,0)
(0,0,0)
(0,0,0)
(0,0,0)
(0,0,0)
(0,0,0)
(0,0,0)
(0,0,0)
(0,0,0)
(0,0,0)
(0,0,0)
(0,0,0)
(0,0,0)
(0,0,0)
(0,0,0)
(0,0,0)
(0,0,0)
(0,0,0)
(0,0,0)
(0,0,0)
(0,0,0)
(0,0,0)
(0,0,0)
(0,0,0)
(0,0,0)
(0,0,0)
(0,0,0)
(0,0,0)
(0,0,0)
(0,0,0)
(0,0,0)
(0,0,0)
(0,0,0)
(0,0,0)
(0,0,0)
(0,0,0)
(0,0,0)
(0,0,0)
(0,0,0)
(0,0,0)
(0,0,0)
(0,0,0)
(0,0,0)
(0,0,0)
(0,0,0)
(0,0,0)
(0,0,0)
(0,0,0)
(0,0,0)
(0,0,0)
(0,0,0)
(0,0,0)
(0,0,0)
(0,0,0)
(0,0,0)
(0,0,0)
(0,0,0)
(0,0,0)
(0,0,0)
(0,0,0)
(0,0,0)
(0,0,0)
(0,0,0)
(0,0,0)
(0,0,0)
(0,0,0)
(0,0,0)
(0,0,0)
(0,0,0)
(0,0,0)
(0,0,0)
(0,0,0)
(0,0,0)
(0,0,0)
(0,0,0)
(0,0,0)
(0,0,0)
(0,0,0)
(0,0,0)
(0,0,0)
(0,0,0)
(0,0,0)
(0,0,0)
(0,0,0)
(0,0,0)
(0,0,0)
(0,0,0)
(0,0,0)
(0,0,0)
(0,0,0)
(0,0,0)
(0,0,0)
(0,0,0)
(0,0,0)
(0,0,0)
(0,0,0)
(0,0,0)
(0,0,0)
(0,0,0)
(0,0,0)
(0,0,0)
(0,0,0)
(0,0,0)
(0,0,0)
(0,0,0)
(0,0,0)
(0,0,0)
(0,0,0)
(0,0,0)
(0,0,0)
(0,0,0)
(0,0,0)
(0,0,0)
(0,0,0)
(0,0,0)
(0,0,0)
(0,0,0)
(0,0,0)
(0,0,0)
(0,0,0)
(0,0,0)
(0,0,0)
(0,0,0)
(0,0,0)
(0,0,0)
(0,0,0)
(0,0,0)
(0,0,0)
(0,0,0)
(0,0,0)
(0,0,0)
(0,0,0)
(0,0,0)
(0,0,0)
(0,0,0)
(0,0,0)
(0,0,0)
(0,0,0)
(0,0,0)
(0,0,0)
(0,0,0)
(0,0,0)
(0,0,0)
(0,0,0)
(0,0,0)
(0,0,0)
(0,0,0)
(0,0,0)
(0,0,0)
(0,0,0)
(0,0,0)
(0,0,0)
(0,0,0)
(0,0,0)
(0,0,0)
(0,0,0)
(0,0,0)
(0,0,0)
(0,0,0)
(0,0,0)
(0,0,0)
(0,0,0)
(0,0,0)
(0,0,0)
(0,0,0)
(0,0,0)
(0,0,0)
(0,0,0)
(0,0,0)
(0,0,0)
(0,0,0)
(0,0,0)
(0,0,0)
(0,0,0)
(0,0,0)
(0,0,0)
(0,0,0)
(0,0,0)
(0,0,0)
(0,0,0)
(0,0,0)
(0,0,0)
(0,0,0)
(0,0,0)
(0,0,0)
(0,0,0)
(0,0,0)
(0,0,0)
(0,0,0)
(0,0,0)
(0,0,0)
(0,0,0)
(0,0,0)
(0,0,0)
(0,0,0)
(0,0,0)
(0,0,0)
(0,0,0)
(0,0,0)
(0,0,0)
(0,0,0)
(0,0,0)
(0,0,0)
(0,0,0)
(0,0,0)
(0,0,0)
(0,0,0)
(0,0,0)
(0,0,0)
(0,0,0)
(0,0,0)
(0,0,0)
(0,0,0)
(0,0,0)
(0,0,0)
(0,0,0)
(0,0,0)
(0,0,0)
(0,0,0)
(0,0,0)
(0,0,0)
(0,0,0)
(0,0,0)
(0,0,0)
(0,0,0)
(0,0,0)
(0,0,0)
(0,0,0)
(0,0,0)
(0,0,0)
(0,0,0)
(0,0,0)
(0,0,0)
(0,0,0)
(0,0,0)
(0,0,0)
(0,0,0)
(0,0,0)
(0,0,0)
(0,0,0)
(0,0,0)
(0,0,0)
(0,0,0)
(0,0,0)
(0,0,0)
(0,0,0)
(0,0,0)
(0,0,0)
(0,0,0)
(0,0,0)
(0,0,0)
(0,0,0)
(0,0,0)
(0,0,0)
(0,0,0)
(0,0,0)
(0,0,0)
(0,0,0)
(0,0,0)
(0,0,0)
(0,0,0)
(0,0,0)
(0,0,0)
(0,0,0)
(0,0,0)
(0,0,0)
(0,0,0)
(0,0,0)
(0,0,0)
(0,0,0)
(0,0,0)
(0,0,0)
(0,0,0)
(0,0,0)
(0,0,0)
(0,0,0)
(0,0,0)
(0,0,0)
(0,0,0)
(0,0,0)
(0,0,0)
(0,0,0)
(0,0,0)
(0,0,0)
(0,0,0)
(0,0,0)
(0,0,0)
(0,0,0)
(0,0,0)
(0,0,0)
(0,0,0)
(0,0,0)
(0,0,0)
(0,0,0)
(0,0,0)
(0,0,0)
(0,0,0)
(0,0,0)
(0,0,0)
(0,0,0)
(0,0,0)
(0,0,0)
(0,0,0)
(0,0,0)
(0,0,0)
(0,0,0)
(0,0,0)
(0,0,0)
(0,0,0)
(0,0,0)
(0,0,0)
(0,0,0)
(0,0,0)
(0,0,0)
(0,0,0)
(0,0,0)
(0,0,0)
(0,0,0)
(0,0,0)
(0,0,0)
(0,0,0)
(0,0,0)
(0,0,0)
(0,0,0)
(0,0,0)
(0,0,0)
(0,0,0)
(0,0,0)
(0,0,0)
(0,0,0)
(0,0,0)
(0,0,0)
(0,0,0)
(0,0,0)
(0,0,0)
(0,0,0)
(0,0,0)
(0,0,0)
(0,0,0)
(0,0,0)
(0,0,0)
(0,0,0)
(0,0,0)
(0,0,0)
(0,0,0)
(0,0,0)
(0,0,0)
(0,0,0)
(0,0,0)
(0,0,0)
(0,0,0)
(0,0,0)
(0,0,0)
(0,0,0)
(0,0,0)
(0,0,0)
(0,0,0)
(0,0,0)
(0,0,0)
(0,0,0)
(0,0,0)
(0,0,0)
(0,0,0)
(0,0,0)
(0,0,0)
(0,0,0)
(0,0,0)
(0,0,0)
(0,0,0)
(0,0,0)
(0,0,0)
(0,0,0)
(0,0,0)
(0,0,0)
(0,0,0)
(0,0,0)
(0,0,0)
(0,0,0)
(0,0,0)
(0,0,0)
(0,0,0)
(0,0,0)
(0,0,0)
(0,0,0)
(0,0,0)
(0,0,0)
(0,0,0)
(0,0,0)
(0,0,0)
(0,0,0)
(0,0,0)
(0,0,0)
(0,0,0)
(0,0,0)
(0,0,0)
(0,0,0)
(0,0,0)
(0,0,0)
(0,0,0)
(0,0,0)
(0,0,0)
(0,0,0)
(0,0,0)
(0,0,0)
(0,0,0)
(0,0,0)
(0,0,0)
(0,0,0)
(0,0,0)
(0,0,0)
(0,0,0)
(0,0,0)
(0,0,0)
(0,0,0)
(0,0,0)
(0,0,0)
(0,0,0)
(0,0,0)
(0,0,0)
(0,0,0)
(0,0,0)
(0,0,0)
(0,0,0)
(0,0,0)
(0,0,0)
(0,0,0)
(0,0,0)
(0,0,0)
(0,0,0)
(0,0,0)
(0,0,0)
(0,0,0)
(0,0,0)
(0,0,0)
(0,0,0)
(0,0,0)
(0,0,0)
(0,0,0)
(0,0,0)
(0,0,0)
(0,0,0)
(0,0,0)
(0,0,0)
(0,0,0)
(0,0,0)
(0,0,0)
(0,0,0)
(0,0,0)
(0,0,0)
(0,0,0)
(0,0,0)
(0,0,0)
(0,0,0)
(0,0,0)
(0,0,0)
(0,0,0)
(0,0,0)
(0,0,0)
(0,0,0)
(0,0,0)
(0,0,0)
(0,0,0)
(0,0,0)
(0,0,0)
(0,0,0)
(0,0,0)
(0,0,0)
(0,0,0)
(0,0,0)
(0,0,0)
(0,0,0)
(0,0,0)
(0,0,0)
(0,0,0)
(0,0,0)
(0,0,0)
(0,0,0)
(0,0,0)
(0,0,0)
(0,0,0)
(0,0,0)
(0,0,0)
(0,0,0)
(0,0,0)
(0,0,0)
(0,0,0)
(0,0,0)
(0,0,0)
(0,0,0)
(0,0,0)
(0,0,0)
(0,0,0)
(0,0,0)
(0,0,0)
(0,0,0)
(0,0,0)
(0,0,0)
(0,0,0)
(0,0,0)
(0,0,0)
(0,0,0)
(0,0,0)
(0,0,0)
(0,0,0)
(0,0,0)
(0,0,0)
(0,0,0)
(0,0,0)
(0,0,0)
(0,0,0)
(0,0,0)
(0,0,0)
(0,0,0)
(0,0,0)
(0,0,0)
(0,0,0)
(0,0,0)
(0,0,0)
(0,0,0)
(0,0,0)
(0,0,0)
(0,0,0)
(0,0,0)
(0,0,0)
(0,0,0)
(0,0,0)
(0,0,0)
(0,0,0)
(0,0,0)
(0,0,0)
(0,0,0)
(0,0,0)
(0,0,0)
(0,0,0)
(0,0,0)
(0,0,0)
(0,0,0)
(0,0,0)
(0,0,0)
(0,0,0)
(0,0,0)
(0,0,0)
(0,0,0)
(0,0,0)
(0,0,0)
(0,0,0)
(0,0,0)
(0,0,0)
(0,0,0)
(0,0,0)
(0,0,0)
(0,0,0)
(0,0,0)
(0,0,0)
(0,0,0)
(0,0,0)
(0,0,0)
(0,0,0)
(0,0,0)
(0,0,0)
(0,0,0)
(0,0,0)
(0,0,0)
(0,0,0)
(0,0,0)
(0,0,0)
(0,0,0)
(0,0,0)
(0,0,0)
(0,0,0)
(0,0,0)
(0,0,0)
(0,0,0)
(0,0,0)
(0,0,0)
(0,0,0)
(0,0,0)
(0,0,0)
(0,0,0)
(0,0,0)
(0,0,0)
(0,0,0)
(0,0,0)
(0,0,0)
(0,0,0)
(0,0,0)
(0,0,0)
(0,0,0)
(0,0,0)
(0,0,0)
(0,0,0)
(0,0,0)
(0,0,0)
(0,0,0)
(0,0,0)
(0,0,0)
(0,0,0)
(0,0,0)
(0,0,0)
(0,0,0)
(0,0,0)
(0,0,0)
(0,0,0)
(0,0,0)
(0,0,0)
(0,0,0)
(0,0,0)
(0,0,0)
(0,0,0)
(0,0,0)
(0,0,0)
(0,0,0)
(0,0,0)
(0,0,0)
(0,0,0)
(0,0,0)
(0,0,0)
(0,0,0)
(0,0,0)
(0,0,0)
(0,0,0)
(0,0,0)
(0,0,0)
(0,0,0)
(0,0,0)
(0,0,0)
(0,0,0)
(0,0,0)
(0,0,0)
(0,0,0)
(0,0,0)
(0,0,0)
(0,0,0)
(0,0,0)
(0,0,0)
(0,0,0)
(0,0,0)
(0,0,0)
(0,0,0)
(0,0,0)
(0,0,0)
(0,0,0)
(5.99790497624426e-14,-5.37595681290699e-12,6.80214831428972e-12)
(-1.39467390746458e-14,-1.23691199012376e-11,6.77209581273081e-12)
(-6.31114976175414e-13,-2.23777088860993e-11,6.54670216266625e-12)
(-1.02840296885596e-12,-3.73660006914097e-11,6.30067635797613e-12)
(-1.00162153339407e-12,-5.9974372196164e-11,5.61014160566507e-12)
(-9.45889962095569e-13,-9.40287807668636e-11,4.6030173785727e-12)
(-7.14999011006915e-13,-1.49391121645148e-10,3.33435066192515e-12)
(-9.27277349067484e-13,-2.39744798112256e-10,1.83964331055361e-12)
(-8.90923093953072e-13,-3.89660082426484e-10,9.1796237138943e-13)
(-9.95536537855664e-13,-6.01036177828842e-10,3.06247494576323e-13)
(0,0,0)
(0,0,0)
(0,0,0)
(0,0,0)
(0,0,0)
(0,0,0)
(9.37413006543423e-13,-5.3596769800288e-12,1.58873445944258e-11)
(8.018559876462e-13,-1.19894375578823e-11,1.56740393875828e-11)
(-2.79044960588869e-13,-2.20339300990605e-11,1.51205555477543e-11)
(-8.0313546761112e-13,-3.69264180108767e-11,1.41741911377228e-11)
(-2.00220558887424e-12,-5.90804181547051e-11,1.20061466458996e-11)
(-2.04878012431834e-12,-9.2978669646023e-11,8.99044403350808e-12)
(-4.70717347656476e-13,-1.48511207522136e-10,6.18423206223587e-12)
(4.88637616058353e-13,-2.39336690190555e-10,3.65881687411016e-12)
(5.88717732113039e-13,-3.89687691879486e-10,2.28154108571985e-12)
(3.60267663934426e-13,-6.01468653581915e-10,1.18306631250453e-12)
(0,0,0)
(0,0,0)
(0,0,0)
(0,0,0)
(0,0,0)
(0,0,0)
(1.25547552165925e-12,-4.60221933370768e-12,2.48316198869133e-11)
(5.42637398345008e-13,-1.08470788207064e-11,2.5219676707568e-11)
(-8.93271559021454e-13,-2.05222172149885e-11,2.47526975225557e-11)
(-1.93341880303834e-12,-3.44766182667261e-11,2.30101307510535e-11)
(-3.20822231330114e-12,-5.59909570119969e-11,1.9702246889792e-11)
(-1.90821944080379e-12,-9.01861732316842e-11,1.51168927555417e-11)
(1.52828675408222e-12,-1.46418179178592e-10,1.07633871224259e-11)
(4.43829568918241e-12,-2.38426568328411e-10,7.24166341986944e-12)
(5.78544331148362e-12,-3.89569493188652e-10,4.94753325169358e-12)
(6.18092259077226e-12,-6.01711777858435e-10,2.78849339622689e-12)
(0,0,0)
(0,0,0)
(0,0,0)
(0,0,0)
(0,0,0)
(0,0,0)
(8.06743193512741e-13,-3.884016751634e-12,3.73678515683282e-11)
(-5.55217587058961e-13,-9.39418212742928e-12,3.77290403474547e-11)
(-2.52449230472912e-12,-1.78572150440275e-11,3.75334868339446e-11)
(-3.9884268341702e-12,-3.05580819955922e-11,3.59858193471921e-11)
(-3.50547923212942e-12,-5.1245393973155e-11,3.22988923707777e-11)
(-1.90138207030499e-13,-8.5208241971245e-11,2.69826512926446e-11)
(5.4530157883822e-12,-1.42426295989275e-10,2.15634945339959e-11)
(1.05951806308977e-11,-2.36394495503967e-10,1.6490040004854e-11)
(1.35450597957377e-11,-3.88430681353146e-10,1.18019354693278e-11)
(1.55972161952997e-11,-6.00219226320842e-10,6.2705241780439e-12)
(0,0,0)
(0,0,0)
(0,0,0)
(0,0,0)
(0,0,0)
(0,0,0)
(1.36166259049165e-12,-3.39402185370506e-12,5.77837074222928e-11)
(3.88459186113021e-14,-8.11827373010873e-12,5.78079104808913e-11)
(-2.13124767983517e-12,-1.49586982502966e-11,5.74103955940809e-11)
(-3.28046805596739e-12,-2.57864745271068e-11,5.60206911792251e-11)
(-7.6852718920478e-13,-4.46795674908061e-11,5.28945831980742e-11)
(4.61802241041773e-12,-7.75976538802251e-11,4.8483038800923e-11)
(1.23996453151473e-11,-1.35790696848762e-10,4.32524839577491e-11)
(1.91611262318609e-11,-2.31985730802306e-10,3.47914449758753e-11)
(2.29804630013499e-11,-3.84317974527687e-10,2.48559679883079e-11)
(2.50889953539459e-11,-5.9506295604e-10,1.2935502287283e-11)
(0,0,0)
(0,0,0)
(0,0,0)
(0,0,0)
(0,0,0)
(0,0,0)
(1.84754907188494e-12,-2.78706105829031e-12,8.99924345400417e-11)
(1.40624304581912e-12,-6.48185224168069e-12,8.99571813429562e-11)
(-2.17445673011245e-13,-1.19992420329608e-11,8.96166653531131e-11)
(-1.93732376464577e-13,-2.11631170797524e-11,8.88452483846292e-11)
(3.35599571947217e-12,-3.78155770168051e-11,8.65082657675907e-11)
(9.57363643134498e-12,-6.92316667227707e-11,8.2599069097078e-11)
(1.83562810050751e-11,-1.2770324693899e-10,7.60993106159387e-11)
(2.6398782334873e-11,-2.23279593899573e-10,6.38551162551395e-11)
(3.10321430335796e-11,-3.73926485377485e-10,4.62865442975336e-11)
(3.24283936443742e-11,-5.82962348587554e-10,2.45264582316889e-11)
(0,0,0)
(0,0,0)
(0,0,0)
(0,0,0)
(0,0,0)
(0,0,0)
(2.36885793616964e-12,-2.04014343548904e-12,1.43053424747099e-10)
(4.0801686695297e-12,-4.8959057987763e-12,1.43345722458118e-10)
(3.95611952454024e-12,-9.84048822958272e-12,1.4332570368062e-10)
(5.17711277856115e-12,-1.74662783943011e-11,1.42650183331479e-10)
(9.19251295154719e-12,-3.15376403652943e-11,1.402325155749e-10)
(1.58864902911363e-11,-6.00058128953308e-11,1.35464884577499e-10)
(2.44850435232414e-11,-1.15863275044976e-10,1.26142085750707e-10)
(3.21366511372416e-11,-2.07053613754539e-10,1.0966002890368e-10)
(3.65067867621693e-11,-3.53520168694541e-10,8.19113437613448e-11)
(3.81264973095414e-11,-5.59451115026758e-10,4.43801065797928e-11)
(0,0,0)
(0,0,0)
(0,0,0)
(0,0,0)
(0,0,0)
(0,0,0)
(3.30295050789634e-12,-1.58314643965439e-12,2.31961759343257e-10)
(6.37767548831176e-12,-3.62713481204965e-12,2.32466529055777e-10)
(7.98892811025928e-12,-7.76841685569359e-12,2.33031575795436e-10)
(1.0431652386048e-11,-1.38276231278938e-11,2.32151549732632e-10)
(1.44998999984178e-11,-2.57591301270418e-11,2.29114332279521e-10)
(2.0627273401485e-11,-5.06846341581571e-11,2.2274854068172e-10)
(2.75833802863892e-11,-9.87358765320083e-11,2.10045862859302e-10)
(3.43010514498753e-11,-1.79705139579652e-10,1.85654775700948e-10)
(3.94589579718398e-11,-3.1709618321372e-10,1.43726159929283e-10)
(4.25810214105667e-11,-5.16478238388336e-10,8.12428723166379e-11)
(0,0,0)
(0,0,0)
(0,0,0)
(0,0,0)
(0,0,0)
(0,0,0)
(2.23301829193218e-12,-1.0460181302051e-12,3.83053672388393e-10)
(5.46890842742492e-12,-2.42485911724331e-12,3.82926252264374e-10)
(8.1899939035677e-12,-5.07323999572716e-12,3.83150098752545e-10)
(1.18334033474851e-11,-9.32419492170877e-12,3.81942465463922e-10)
(1.60657213696872e-11,-1.8559200649614e-11,3.78183013932342e-10)
(2.18707507993976e-11,-3.77137357036731e-11,3.69739427346328e-10)
(2.82530915749852e-11,-7.37782101665644e-11,3.52355787427836e-10)
(3.45103934079723e-11,-1.38097274957954e-10,3.19050246830832e-10)
(3.97620891210491e-11,-2.55478226578668e-10,2.58487749616803e-10)
(4.31416984273463e-11,-4.36234544572576e-10,1.55226849553418e-10)
(0,0,0)
(0,0,0)
(0,0,0)
(0,0,0)
(0,0,0)
(0,0,0)
(4.53020235019361e-13,-1.58536473659261e-13,5.94843551757945e-10)
(3.74239365980904e-12,-1.05644311308378e-12,5.94342801012414e-10)
(7.97836099578977e-12,-2.49065801575286e-12,5.94005424998525e-10)
(1.33240181505719e-11,-4.84343645449571e-12,5.92402181298096e-10)
(1.72117363792657e-11,-1.00702404663284e-11,5.87988436003112e-10)
(2.2567583572076e-11,-2.04749176040434e-11,5.77638554475422e-10)
(2.919505094069e-11,-4.04810331795365e-11,5.5670987967482e-10)
(3.55058361519845e-11,-7.83385349921567e-11,5.1624366312049e-10)
(4.07037407123502e-11,-1.53429666994535e-10,4.37221248979293e-10)
(4.34586396050562e-11,-2.82036628476903e-10,2.8286999754747e-10)
(0,0,0)
(0,0,0)
(0,0,0)
(0,0,0)
(0,0,0)
(0,0,0)
(0,0,0)
(0,0,0)
(0,0,0)
(0,0,0)
(0,0,0)
(0,0,0)
(0,0,0)
(0,0,0)
(0,0,0)
(0,0,0)
(0,0,0)
(0,0,0)
(0,0,0)
(0,0,0)
(0,0,0)
(0,0,0)
(0,0,0)
(0,0,0)
(0,0,0)
(0,0,0)
(0,0,0)
(0,0,0)
(0,0,0)
(0,0,0)
(0,0,0)
(0,0,0)
(0,0,0)
(0,0,0)
(0,0,0)
(0,0,0)
(0,0,0)
(0,0,0)
(0,0,0)
(0,0,0)
(0,0,0)
(0,0,0)
(0,0,0)
(0,0,0)
(0,0,0)
(0,0,0)
(0,0,0)
(0,0,0)
(0,0,0)
(0,0,0)
(0,0,0)
(0,0,0)
(0,0,0)
(0,0,0)
(0,0,0)
(0,0,0)
(0,0,0)
(0,0,0)
(0,0,0)
(0,0,0)
(0,0,0)
(0,0,0)
(0,0,0)
(0,0,0)
(0,0,0)
(0,0,0)
(0,0,0)
(0,0,0)
(0,0,0)
(0,0,0)
(0,0,0)
(0,0,0)
(0,0,0)
(0,0,0)
(0,0,0)
(0,0,0)
(0,0,0)
(0,0,0)
(0,0,0)
(0,0,0)
(0,0,0)
(0,0,0)
(0,0,0)
(0,0,0)
(0,0,0)
(0,0,0)
(0,0,0)
(0,0,0)
(0,0,0)
(0,0,0)
(0,0,0)
(0,0,0)
(0,0,0)
(0,0,0)
(0,0,0)
(0,0,0)
(0,0,0)
(0,0,0)
(0,0,0)
(0,0,0)
(0,0,0)
(0,0,0)
(7.37517184449753e-14,-1.08915152142665e-11,1.27919768920189e-11)
(-1.68235432366436e-13,-2.42714002982015e-11,1.26532929049249e-11)
(-7.28867958550514e-13,-4.18519265001896e-11,1.20669384646392e-11)
(-7.77450897079967e-13,-6.73709048549564e-11,1.09328027675957e-11)
(-8.88451347798044e-13,-1.07180315845854e-10,9.06345538844562e-12)
(-7.27334366258532e-13,-1.66830347872517e-10,6.22556415410736e-12)
(-1.00205782612876e-13,-2.60846421007767e-10,3.18172288118425e-12)
(-4.1370433184123e-13,-4.18604151481355e-10,1.08990833307049e-12)
(-2.51598764366692e-13,-7.20012108594348e-10,-8.10100413875226e-14)
(-2.5681329067782e-13,-1.41370149654538e-09,-3.85517229175409e-13)
(0,0,0)
(0,0,0)
(0,0,0)
(0,0,0)
(0,0,0)
(0,0,0)
(3.93260567065603e-13,-1.00752464823458e-11,2.81652703133474e-11)
(2.12981090305699e-13,-2.28104975508752e-11,2.78628583955995e-11)
(-8.44393434613092e-13,-4.01524918469935e-11,2.66338967106036e-11)
(-1.08489071994597e-12,-6.55106427165436e-11,2.3950641928303e-11)
(-2.07596411918048e-12,-1.04685507007909e-10,1.94505757799167e-11)
(-2.03506456742953e-12,-1.64192671235194e-10,1.28774812151317e-11)
(-3.83305031824706e-14,-2.59378949264881e-10,6.75249012942708e-12)
(9.55791542463009e-13,-4.18159993862068e-10,3.15854522112097e-12)
(1.56899381488772e-12,-7.2034111850275e-10,1.61843934293845e-12)
(1.78645825324039e-12,-1.4147603276537e-09,9.85550338853085e-13)
(0,0,0)
(0,0,0)
(0,0,0)
(0,0,0)
(0,0,0)
(0,0,0)
(1.49216118932006e-13,-8.66786920144048e-12,4.45449768673391e-11)
(-4.43280109919206e-13,-2.02131797075591e-11,4.46070752303902e-11)
(-1.81570695846844e-12,-3.64308754037673e-11,4.2985979713864e-11)
(-2.54407121290774e-12,-6.04330804860925e-11,3.90482930741836e-11)
(-3.36843121793149e-12,-9.85378238946123e-11,3.26748077497332e-11)
(-2.532645068155e-12,-1.5846909392521e-10,2.30089431317605e-11)
(1.05812726734524e-12,-2.56172543626457e-10,1.32756274543426e-11)
(4.70035303289102e-12,-4.17515265121103e-10,7.98465671722525e-12)
(6.80567133125692e-12,-7.20827988772603e-10,5.49095718733978e-12)
(7.47686444929193e-12,-1.41552384614221e-09,3.47584258935529e-12)
(0,0,0)
(0,0,0)
(0,0,0)
(0,0,0)
(0,0,0)
(0,0,0)
(-4.44404835431901e-14,-7.6477524120535e-12,6.77305753624093e-11)
(-1.63557247086939e-12,-1.7356042257134e-11,6.76880162304711e-11)
(-3.87534161171343e-12,-3.14401068699727e-11,6.63682761065229e-11)
(-5.07310732623798e-12,-5.30746521803203e-11,6.22926217403181e-11)
(-4.75506463635926e-12,-8.86695653685705e-11,5.49903012515159e-11)
(-2.38156953938312e-12,-1.47928905292051e-10,4.411554152013e-11)
(3.89087117699949e-12,-2.49871233581976e-10,3.23021189928691e-11)
(1.08745204646946e-11,-4.16619138268722e-10,2.40529058595334e-11)
(1.49637642618867e-11,-7.21038476721182e-10,1.7233593254287e-11)
(1.67114700929269e-11,-1.41494005896369e-09,9.38405008199372e-12)
(0,0,0)
(0,0,0)
(0,0,0)
(0,0,0)
(0,0,0)
(0,0,0)
(7.30498736477548e-13,-6.67908615601567e-12,1.04518961551974e-10)
(-1.20006068300841e-12,-1.48137697415482e-11,1.04281009724481e-10)
(-3.70099948231809e-12,-2.59782425970173e-11,1.02880800210364e-10)
(-4.77771752216813e-12,-4.3766636216661e-11,9.93231921355991e-11)
(-3.22097326603046e-12,-7.49908126851233e-11,9.35193176336319e-11)
(1.48259009613189e-12,-1.31096112240602e-10,8.58318717637401e-11)
(1.27732343873136e-11,-2.35946972632188e-10,7.91492706481604e-11)
(2.03904663168555e-11,-4.11844453824633e-10,6.10853806857409e-11)
(2.45094395521824e-11,-7.16130331137188e-10,4.2494321683384e-11)
(2.59238901881746e-11,-1.40787958649143e-09,2.22267291065533e-11)
(0,0,0)
(0,0,0)
(0,0,0)
(0,0,0)
(0,0,0)
(0,0,0)
(1.13588464617019e-12,-5.40375139940168e-12,1.60363574601052e-10)
(1.60812592756696e-13,-1.18390898213522e-11,1.60348769104287e-10)
(-1.60478250790853e-12,-2.04635826409814e-11,1.59505392243068e-10)
(-1.55358844487251e-12,-3.45579092376469e-11,1.57665679539167e-10)
(9.87255738474623e-13,-6.08674712584623e-11,1.54229452319797e-10)
(6.84754108502556e-12,-1.14100888899897e-10,1.48586170954225e-10)
(1.87605034718843e-11,-2.23969727184702e-10,1.39736304367868e-10)
(2.77413741475491e-11,-3.9911682646287e-10,1.15419272954519e-10)
(3.23859124165364e-11,-6.99699566036292e-10,8.23569661658054e-11)
(3.3443618315702e-11,-1.38809254091409e-09,4.3508469415153e-11)
(0,0,0)
(0,0,0)
(0,0,0)
(0,0,0)
(0,0,0)
(0,0,0)
(1.61956322931474e-12,-4.04640747377191e-12,2.50030200956461e-10)
(2.83141646030213e-12,-8.79675527712156e-12,2.50402778509411e-10)
(2.55956849979326e-12,-1.57876926779263e-11,2.5048426763214e-10)
(3.95612526872441e-12,-2.67092238776163e-11,2.50074994444243e-10)
(8.18163371071067e-12,-4.78186211231494e-11,2.48332589152419e-10)
(1.58881103807694e-11,-9.48774306448291e-11,2.43567011281373e-10)
(2.38397018573738e-11,-2.03882453008786e-10,2.26661321765259e-10)
(3.25368621044762e-11,-3.71324036533536e-10,1.98337550970861e-10)
(3.76140384626826e-11,-6.64319611189368e-10,1.46030268836873e-10)
(3.95337272516801e-11,-1.3472584798673e-09,7.85438207555825e-11)
(0,0,0)
(0,0,0)
(0,0,0)
(0,0,0)
(0,0,0)
(0,0,0)
(2.26105248592649e-12,-2.57394143671642e-12,4.04099703748708e-10)
(4.61035305384688e-12,-5.74741458342166e-12,4.04872304178905e-10)
(6.17377731309805e-12,-1.15094911890316e-11,4.05666888096711e-10)
(8.96544163297525e-12,-2.07210553085346e-11,4.05254374211937e-10)
(1.36657621187728e-11,-4.01142902145758e-11,4.02979115862916e-10)
(2.03590527694474e-11,-8.38079915421779e-11,3.96284165076803e-10)
(2.70168010793075e-11,-1.75775700789092e-10,3.76944072908223e-10)
(3.46218025996835e-11,-3.21228429980472e-10,3.31365797270326e-10)
(4.03242889495195e-11,-5.99075870495263e-10,2.55039413691333e-10)
(4.35801999108401e-11,-1.27085552843628e-09,1.44760924821491e-10)
(0,0,0)
(0,0,0)
(0,0,0)
(0,0,0)
(0,0,0)
(0,0,0)
(1.4729567594057e-12,-1.62409804213545e-12,7.06121271329085e-10)
(3.87664593509441e-12,-3.68791995714659e-12,7.06202969813517e-10)
(6.81504521221925e-12,-7.35407388934625e-12,7.0602543964301e-10)
(1.11120964118555e-11,-1.44353031000984e-11,7.04536727264322e-10)
(1.60203477724252e-11,-3.03271987144426e-11,7.00330887162792e-10)
(2.20155726182356e-11,-6.43280553661189e-11,6.88852584789367e-10)
(2.8261455184957e-11,-1.30578418388487e-10,6.60618146466553e-10)
(3.5314150656199e-11,-2.4590752176467e-10,6.00539186543652e-10)
(4.09744296002299e-11,-4.90233557791071e-10,4.93606893245969e-10)
(4.4170631885207e-11,-1.12742179097001e-09,3.08364538832691e-10)
(0,0,0)
(0,0,0)
(0,0,0)
(0,0,0)
(0,0,0)
(0,0,0)
(7.95234506891114e-13,-4.90275947916737e-13,1.39955224956527e-09)
(3.0233265606146e-12,-1.82693632495833e-12,1.39984348237325e-09)
(7.09094668046424e-12,-3.74406208538053e-12,1.39893646318357e-09)
(1.28943269910601e-11,-7.8015196544161e-12,1.39633880253745e-09)
(1.74913774406238e-11,-1.68309164947637e-11,1.39034000108325e-09)
(2.30213407686283e-11,-3.51762004052695e-11,1.37463438292378e-09)
(2.91802343154715e-11,-7.09243736500974e-11,1.3395570878135e-09)
(3.61897153010643e-11,-1.39743499683842e-10,1.26809758395654e-09)
(4.16253251496335e-11,-3.06194341344932e-10,1.12790974410838e-09)
(4.4292008675728e-11,-8.20187630611147e-10,8.21001933902102e-10)
(0,0,0)
(0,0,0)
(0,0,0)
(0,0,0)
(0,0,0)
(0,0,0)
(0,0,0)
(0,0,0)
(0,0,0)
(0,0,0)
(0,0,0)
(0,0,0)
(0,0,0)
(0,0,0)
(0,0,0)
(0,0,0)
(0,0,0)
(0,0,0)
(0,0,0)
(0,0,0)
(0,0,0)
(0,0,0)
(0,0,0)
(0,0,0)
(0,0,0)
(0,0,0)
(0,0,0)
(0,0,0)
(0,0,0)
(0,0,0)
(0,0,0)
(0,0,0)
(0,0,0)
(0,0,0)
(0,0,0)
(0,0,0)
(0,0,0)
(0,0,0)
(0,0,0)
(0,0,0)
(0,0,0)
(0,0,0)
(0,0,0)
(0,0,0)
(0,0,0)
(0,0,0)
(0,0,0)
(0,0,0)
(0,0,0)
(0,0,0)
(0,0,0)
(0,0,0)
(0,0,0)
(0,0,0)
(0,0,0)
(0,0,0)
(0,0,0)
(0,0,0)
(0,0,0)
(0,0,0)
(0,0,0)
(0,0,0)
(0,0,0)
(0,0,0)
(0,0,0)
(0,0,0)
(0,0,0)
(0,0,0)
(0,0,0)
(0,0,0)
(0,0,0)
(0,0,0)
(0,0,0)
(0,0,0)
(0,0,0)
(0,0,0)
(0,0,0)
(0,0,0)
(0,0,0)
(0,0,0)
(0,0,0)
(0,0,0)
(0,0,0)
(0,0,0)
(0,0,0)
(0,0,0)
(0,0,0)
(0,0,0)
(0,0,0)
(0,0,0)
(0,0,0)
(0,0,0)
(0,0,0)
(0,0,0)
(0,0,0)
(0,0,0)
(0,0,0)
(0,0,0)
(0,0,0)
(0,0,0)
(0,0,0)
(0,0,0)
(-6.03833026450025e-13,-1.41828208672577e-11,1.77219927324113e-11)
(-1.0427837397497e-12,-3.21304816787563e-11,1.68890958349721e-11)
(-1.29416691403495e-12,-5.58861708584424e-11,1.52548610018211e-11)
(-7.68365656154259e-13,-8.83546413284681e-11,1.26717714486477e-11)
(-5.45368951750923e-13,-1.36364036812368e-10,9.21303955448196e-12)
(-3.2116973041164e-13,-2.05878307777701e-10,4.63498778721218e-12)
(5.24137021922914e-13,-3.06686818500695e-10,-4.01726118113925e-13)
(3.13056423573323e-13,-4.52665272250034e-10,-2.15595112796485e-12)
(3.81918331909909e-13,-6.59013969648042e-10,-2.38581226771047e-12)
(4.16500588517699e-13,-9.114989180662e-10,-1.54835796037877e-12)
(0,0,0)
(0,0,0)
(0,0,0)
(0,0,0)
(0,0,0)
(0,0,0)
(-7.11704796311066e-13,-1.29139974087863e-11,3.7207185819704e-11)
(-1.15537506833461e-12,-2.98391290935592e-11,3.61427370048342e-11)
(-1.88275509609806e-12,-5.27042241369283e-11,3.35853474501595e-11)
(-1.66238680174412e-12,-8.46927013492865e-11,2.84907409045039e-11)
(-1.65055266744235e-12,-1.32226177546191e-10,2.07577959085517e-11)
(-1.63365079163833e-12,-2.01869047214996e-10,1.0265818381548e-11)
(3.4920876525241e-13,-3.06066275859247e-10,-6.09147383389209e-13)
(1.85116868106727e-12,-4.53998636203034e-10,-3.93545001340663e-12)
(2.68875308900361e-12,-6.61083204868995e-10,-3.21440398190908e-12)
(3.53552708033183e-12,-9.13724583625288e-10,-1.4490843953665e-12)
(0,0,0)
(0,0,0)
(0,0,0)
(0,0,0)
(0,0,0)
(0,0,0)
(-9.32999035293945e-13,-1.11035198953592e-11,5.92792654893147e-11)
(-1.67932204244319e-12,-2.59331059651188e-11,5.8343043725707e-11)
(-2.86878885235864e-12,-4.64275914864136e-11,5.51498890182791e-11)
(-3.52901419471095e-12,-7.6241698793852e-11,4.82561666456326e-11)
(-3.5708251261732e-12,-1.22037263258597e-10,3.66399608955711e-11)
(-3.33951802407555e-12,-1.92587235483534e-10,1.90960401342727e-11)
(4.77879612399436e-14,-3.04722347409563e-10,-9.65901246409556e-13)
(6.29792570939393e-12,-4.57807874339584e-10,-3.93711972010242e-12)
(9.03127387848571e-12,-6.65317187366795e-10,-1.20597972198933e-12)
(1.03689198597737e-11,-9.16979987088034e-10,3.93898517616672e-13)
(0,0,0)
(0,0,0)
(0,0,0)
(0,0,0)
(0,0,0)
(0,0,0)
(-9.70547608120765e-13,-9.46923091606023e-12,8.90048547237605e-11)
(-2.85810486141242e-12,-2.14122163216546e-11,8.80232260373748e-11)
(-5.26155151892241e-12,-3.82662519197549e-11,8.50188983529173e-11)
(-7.0788028020408e-12,-6.34725256486808e-11,7.75200568052408e-11)
(-7.55905758741794e-12,-1.03930302414499e-10,6.40481869561345e-11)
(-7.40094006396291e-12,-1.72302999964915e-10,4.22484336628669e-11)
(-1.78417663953759e-12,-2.99662907163895e-10,1.26903939623172e-11)
(1.29191486261929e-11,-4.65179509845287e-10,1.15854380858322e-11)
(1.79051618503183e-11,-6.71400755035752e-10,1.21127792578929e-11)
(1.90350477024461e-11,-9.20196904447086e-10,7.66818920872957e-12)
(0,0,0)
(0,0,0)
(0,0,0)
(0,0,0)
(0,0,0)
(0,0,0)
(-3.06884192667506e-13,-7.71892834033354e-12,1.33052062517598e-10)
(-2.77453108858287e-12,-1.7063566525491e-11,1.32369769193163e-10)
(-5.65805136415733e-12,-2.94190539102686e-11,1.29710101714056e-10)
(-8.18256999935203e-12,-4.78756606336465e-11,1.23700973994951e-10)
(-9.6568688217458e-12,-7.85312543187983e-11,1.13962223502404e-10)
(-8.83003212979211e-12,-1.33414466422963e-10,1.02218201809846e-10)
(1.88598789015088e-11,-2.61463862183977e-10,1.14466894403735e-10)
(2.62538979571207e-11,-4.72231861953315e-10,7.42970079222897e-11)
(2.83462670296261e-11,-6.73784179952348e-10,4.92459286907391e-11)
(2.83635737169719e-11,-9.17027083475191e-10,2.54805234740478e-11)
(0,0,0)
(0,0,0)
(0,0,0)
(0,0,0)
(0,0,0)
(0,0,0)
(-2.06653782009538e-13,-5.82486567533122e-12,1.97031519412401e-10)
(-2.03814509065516e-12,-1.25941404374927e-11,1.96707765551235e-10)
(-4.44095976749127e-12,-2.1023786992517e-11,1.95224475683575e-10)
(-5.96604658434113e-12,-3.30550974849168e-11,1.92254519543979e-10)
(-6.41831303199445e-12,-5.44368283607683e-11,1.87963426067397e-10)
(-3.52605058374053e-12,-1.03953346693705e-10,1.82164199488824e-10)
(2.29902607095864e-11,-2.62645299906475e-10,1.91671290045859e-10)
(3.30108910064131e-11,-4.6553063504133e-10,1.49794444132026e-10)
(3.5854454320831e-11,-6.58741019886573e-10,1.02710862067287e-10)
(3.61180266833525e-11,-8.9637166914893e-10,5.26757119065448e-11)
(0,0,0)
(0,0,0)
(0,0,0)
(0,0,0)
(0,0,0)
(0,0,0)
(-2.25480360061998e-13,-4.03156981952641e-12,2.9148160342018e-10)
(-2.99413356484295e-13,-8.6549391688906e-12,2.91685989938736e-10)
(-1.30935980137168e-12,-1.43889135479115e-11,2.91821860337866e-10)
(-2.89638008358658e-13,-2.10799160503551e-11,2.92165993544153e-10)
(5.24288067351167e-12,-3.17265116925519e-11,2.95556234077665e-10)
(2.17243607938914e-11,-6.18747523792022e-11,3.03268552923054e-10)
(2.40567204326378e-11,-2.42703611432647e-10,2.72592984063335e-10)
(3.47485376845808e-11,-4.33575114733676e-10,2.60015808963355e-10)
(3.98567458503271e-11,-6.15914833659791e-10,1.7905319226091e-10)
(4.16745965761193e-11,-8.47539468006631e-10,9.16694746950163e-11)
(0,0,0)
(0,0,0)
(0,0,0)
(0,0,0)
(0,0,0)
(0,0,0)
(5.38608661902498e-13,-2.32464514609988e-12,4.29701129516673e-10)
(1.75627450952011e-12,-5.40436566115664e-12,4.30699310251597e-10)
(2.43087389794832e-12,-1.01234063943656e-11,4.32059974724033e-10)
(4.95494777431516e-12,-1.67081554978856e-11,4.33139445607883e-10)
(1.05736214045352e-11,-3.23150522711282e-11,4.36601005824741e-10)
(2.02192087618816e-11,-7.93949544848859e-11,4.42472085979664e-10)
(2.73977943166451e-11,-2.19063325288549e-10,4.36376833628516e-10)
(3.56272779619394e-11,-3.58613472925154e-10,3.71779687541132e-10)
(4.17604651156224e-11,-5.32291274804518e-10,2.70157667338461e-10)
(4.49073872664392e-11,-7.57764148077574e-10,1.45361212717105e-10)
(0,0,0)
(0,0,0)
(0,0,0)
(0,0,0)
(0,0,0)
(0,0,0)
(2.57436180707509e-13,-1.69393597546407e-12,6.34388437861763e-10)
(2.1931924730412e-12,-3.6430508226622e-12,6.34828126076248e-10)
(4.69374578732959e-12,-6.80449556926802e-12,6.3533130122682e-10)
(8.68415306774952e-12,-1.3160817526273e-11,6.35294729748782e-10)
(1.40023679269308e-11,-2.94622146224992e-11,6.34454279132654e-10)
(2.10981559798672e-11,-6.99959779298506e-11,6.28328900403831e-10)
(2.86863703692973e-11,-1.55039709018791e-10,6.02846238939949e-10)
(3.60824218722571e-11,-2.5952501470237e-10,5.29511817283971e-10)
(4.21775675677861e-11,-4.08695767115606e-10,4.09286486433882e-10)
(4.53010103590408e-11,-6.12491130790702e-10,2.34839180704093e-10)
(0,0,0)
(0,0,0)
(0,0,0)
(0,0,0)
(0,0,0)
(0,0,0)
(1.37257505881906e-14,-6.52403784967532e-13,8.85793863143222e-10)
(2.10340942490376e-12,-1.84745007525421e-12,8.86767253965185e-10)
(5.94454524163922e-12,-3.64797814082993e-12,8.8685847298395e-10)
(1.10916087903269e-11,-7.81842717977372e-12,8.85594402427127e-10)
(1.63660791058457e-11,-1.79239406221858e-11,8.81057547898132e-10)
(2.29224354735322e-11,-4.01508294605347e-11,8.66709335921122e-10)
(2.97153645226336e-11,-8.14074533607146e-11,8.29450832318205e-10)