/*--------------------------------*- C++ -*----------------------------------*\
| =========                 |                                                 |
| \\      /  F ield         | foam-extend: Open Source CFD                    |
|  \\    /   O peration     | Version:     4.0                                |
|   \\  /    A nd           | Web:         http://www.foam-extend.org         |
|    \\/     M anipulation  |                                                 |
\*---------------------------------------------------------------------------*/
FoamFile
{
    version 2.0;
    format ascii;
    class volVectorField;
    location "315";
    object      E;
}
// * * * * * * * * * * * * * * * * * * * * * * * * * * * * * * * * * * * * * //

dimensions      [0 1 -1 0 0 0 0];

internalField   nonuniform List<vector>
4096
(
(0,0,0)
(0,0,0)
(0,0,0)
(0,0,0)
(0,0,0)
(0,0,0)
(0,0,0)
(0,0,0)
(0,0,0)
(0,0,0)
(0,0,0)
(0,0,0)
(0,0,0)
(0,0,0)
(0,0,0)
(0,0,0)
(0,0,0)
(0,0,0)
(0,0,0)
(0,0,0)
(0,0,0)
(0,0,0)
(0,0,0)
(0,0,0)
(0,0,0)
(0,0,0)
(0,0,0)
(0,0,0)
(0,0,0)
(0,0,0)
(0,0,0)
(0,0,0)
(0,0,0)
(0,0,0)
(0,0,0)
(0,0,0)
(0,0,0)
(0,0,0)
(0,0,0)
(0,0,0)
(0,0,0)
(0,0,0)
(0,0,0)
(0,0,0)
(0,0,0)
(0,0,0)
(0,0,0)
(0,0,0)
(0,0,0)
(0,0,0)
(0,0,0)
(0,0,0)
(0,0,0)
(0,0,0)
(0,0,0)
(0,0,0)
(0,0,0)
(0,0,0)
(0,0,0)
(0,0,0)
(0,0,0)
(0,0,0)
(0,0,0)
(0,0,0)
(0,0,0)
(0,0,0)
(0,0,0)
(0,0,0)
(0,0,0)
(0,0,0)
(0,0,0)
(0,0,0)
(0,0,0)
(0,0,0)
(0,0,0)
(0,0,0)
(0,0,0)
(0,0,0)
(0,0,0)
(0,0,0)
(0,0,0)
(0,0,0)
(0,0,0)
(0,0,0)
(0,0,0)
(0,0,0)
(0,0,0)
(0,0,0)
(0,0,0)
(0,0,0)
(0,0,0)
(0,0,0)
(0,0,0)
(0,0,0)
(0,0,0)
(0,0,0)
(0,0,0)
(0,0,0)
(0,0,0)
(0,0,0)
(0,0,0)
(0,0,0)
(0,0,0)
(0,0,0)
(0,0,0)
(0,0,0)
(0,0,0)
(0,0,0)
(0,0,0)
(0,0,0)
(0,0,0)
(0,0,0)
(0,0,0)
(0,0,0)
(0,0,0)
(0,0,0)
(0,0,0)
(0,0,0)
(0,0,0)
(0,0,0)
(0,0,0)
(0,0,0)
(0,0,0)
(0,0,0)
(0,0,0)
(0,0,0)
(0,0,0)
(0,0,0)
(0,0,0)
(0,0,0)
(0,0,0)
(0,0,0)
(0,0,0)
(0,0,0)
(0,0,0)
(0,0,0)
(0,0,0)
(0,0,0)
(0,0,0)
(0,0,0)
(0,0,0)
(0,0,0)
(0,0,0)
(0,0,0)
(0,0,0)
(0,0,0)
(0,0,0)
(0,0,0)
(0,0,0)
(0,0,0)
(0,0,0)
(0,0,0)
(0,0,0)
(0,0,0)
(0,0,0)
(0,0,0)
(0,0,0)
(0,0,0)
(0,0,0)
(0,0,0)
(0,0,0)
(0,0,0)
(0,0,0)
(0,0,0)
(0,0,0)
(0,0,0)
(0,0,0)
(0,0,0)
(0,0,0)
(0,0,0)
(0,0,0)
(0,0,0)
(0,0,0)
(0,0,0)
(0,0,0)
(0,0,0)
(0,0,0)
(0,0,0)
(0,0,0)
(0,0,0)
(0,0,0)
(0,0,0)
(0,0,0)
(0,0,0)
(0,0,0)
(0,0,0)
(0,0,0)
(0,0,0)
(0,0,0)
(0,0,0)
(0,0,0)
(0,0,0)
(0,0,0)
(0,0,0)
(0,0,0)
(0,0,0)
(0,0,0)
(0,0,0)
(0,0,0)
(0,0,0)
(0,0,0)
(0,0,0)
(0,0,0)
(0,0,0)
(0,0,0)
(0,0,0)
(0,0,0)
(0,0,0)
(0,0,0)
(0,0,0)
(0,0,0)
(0,0,0)
(0,0,0)
(0,0,0)
(0,0,0)
(0,0,0)
(0,0,0)
(0,0,0)
(0,0,0)
(0,0,0)
(0,0,0)
(0,0,0)
(0,0,0)
(0,0,0)
(0,0,0)
(0,0,0)
(0,0,0)
(0,0,0)
(0,0,0)
(0,0,0)
(0,0,0)
(0,0,0)
(0,0,0)
(0,0,0)
(0,0,0)
(0,0,0)
(0,0,0)
(0,0,0)
(0,0,0)
(0,0,0)
(0,0,0)
(0,0,0)
(0,0,0)
(0,0,0)
(0,0,0)
(0,0,0)
(0,0,0)
(0,0,0)
(0,0,0)
(0,0,0)
(0,0,0)
(0,0,0)
(0,0,0)
(0,0,0)
(0,0,0)
(0,0,0)
(0,0,0)
(0,0,0)
(0,0,0)
(0,0,0)
(0,0,0)
(0,0,0)
(0,0,0)
(0,0,0)
(0,0,0)
(0,0,0)
(0,0,0)
(0,0,0)
(0,0,0)
(0,0,0)
(0,0,0)
(0,0,0)
(0,0,0)
(0,0,0)
(0,0,0)
(0,0,0)
(0,0,0)
(0,0,0)
(0,0,0)
(0,0,0)
(0,0,0)
(0,0,0)
(0,0,0)
(0,0,0)
(0,0,0)
(0,0,0)
(0,0,0)
(0,0,0)
(0,0,0)
(0,0,0)
(0,0,0)
(0,0,0)
(0,0,0)
(0,0,0)
(0,0,0)
(0,0,0)
(0,0,0)
(0,0,0)
(0,0,0)
(0,0,0)
(0,0,0)
(0,0,0)
(0,0,0)
(0,0,0)
(0,0,0)
(0,0,0)
(0,0,0)
(0,0,0)
(0,0,0)
(0,0,0)
(0,0,0)
(0,0,0)
(0,0,0)
(0,0,0)
(0,0,0)
(0,0,0)
(0,0,0)
(0,0,0)
(0,0,0)
(0,0,0)
(0,0,0)
(0,0,0)
(0,0,0)
(0,0,0)
(0,0,0)
(0,0,0)
(0,0,0)
(0,0,0)
(0,0,0)
(0,0,0)
(0,0,0)
(0,0,0)
(0,0,0)
(0,0,0)
(0,0,0)
(0,0,0)
(0,0,0)
(0,0,0)
(0,0,0)
(0,0,0)
(0,0,0)
(0,0,0)
(0,0,0)
(0,0,0)
(0,0,0)
(0,0,0)
(0,0,0)
(0,0,0)
(0,0,0)
(0,0,0)
(0,0,0)
(0,0,0)
(0,0,0)
(0,0,0)
(0,0,0)
(0,0,0)
(0,0,0)
(0,0,0)
(0,0,0)
(0,0,0)
(0,0,0)
(0,0,0)
(0,0,0)
(0,0,0)
(0,0,0)
(0,0,0)
(0,0,0)
(0,0,0)
(0,0,0)
(0,0,0)
(0,0,0)
(0,0,0)
(0,0,0)
(0,0,0)
(0,0,0)
(0,0,0)
(0,0,0)
(0,0,0)
(0,0,0)
(0,0,0)
(0,0,0)
(0,0,0)
(0,0,0)
(0,0,0)
(0,0,0)
(0,0,0)
(0,0,0)
(0,0,0)
(0,0,0)
(0,0,0)
(0,0,0)
(0,0,0)
(0,0,0)
(0,0,0)
(0,0,0)
(0,0,0)
(0,0,0)
(0,0,0)
(0,0,0)
(0,0,0)
(0,0,0)
(0,0,0)
(0,0,0)
(0,0,0)
(0,0,0)
(0,0,0)
(0,0,0)
(0,0,0)
(0,0,0)
(0,0,0)
(0,0,0)
(0,0,0)
(0,0,0)
(0,0,0)
(0,0,0)
(0,0,0)
(0,0,0)
(0,0,0)
(0,0,0)
(0,0,0)
(0,0,0)
(0,0,0)
(0,0,0)
(0,0,0)
(0,0,0)
(0,0,0)
(0,0,0)
(0,0,0)
(0,0,0)
(0,0,0)
(0,0,0)
(0,0,0)
(0,0,0)
(0,0,0)
(0,0,0)
(0,0,0)
(0,0,0)
(0,0,0)
(0,0,0)
(0,0,0)
(0,0,0)
(0,0,0)
(0,0,0)
(0,0,0)
(0,0,0)
(0,0,0)
(0,0,0)
(0,0,0)
(0,0,0)
(0,0,0)
(0,0,0)
(0,0,0)
(0,0,0)
(0,0,0)
(0,0,0)
(0,0,0)
(0,0,0)
(0,0,0)
(0,0,0)
(0,0,0)
(0,0,0)
(0,0,0)
(0,0,0)
(0,0,0)
(0,0,0)
(0,0,0)
(0,0,0)
(0,0,0)
(0,0,0)
(0,0,0)
(0,0,0)
(0,0,0)
(0,0,0)
(0,0,0)
(0,0,0)
(0,0,0)
(0,0,0)
(0,0,0)
(0,0,0)
(0,0,0)
(0,0,0)
(0,0,0)
(0,0,0)
(0,0,0)
(0,0,0)
(0,0,0)
(0,0,0)
(0,0,0)
(0,0,0)
(0,0,0)
(0,0,0)
(0,0,0)
(0,0,0)
(0,0,0)
(0,0,0)
(0,0,0)
(0,0,0)
(0,0,0)
(0,0,0)
(0,0,0)
(0,0,0)
(0,0,0)
(0,0,0)
(0,0,0)
(0,0,0)
(0,0,0)
(0,0,0)
(0,0,0)
(0,0,0)
(0,0,0)
(0,0,0)
(0,0,0)
(0,0,0)
(0,0,0)
(0,0,0)
(0,0,0)
(0,0,0)
(0,0,0)
(0,0,0)
(0,0,0)
(0,0,0)
(0,0,0)
(0,0,0)
(0,0,0)
(0,0,0)
(0,0,0)
(0,0,0)
(0,0,0)
(0,0,0)
(0,0,0)
(0,0,0)
(0,0,0)
(0,0,0)
(0,0,0)
(0,0,0)
(0,0,0)
(0,0,0)
(0,0,0)
(0,0,0)
(0,0,0)
(0,0,0)
(0,0,0)
(0,0,0)
(0,0,0)
(0,0,0)
(0,0,0)
(0,0,0)
(0,0,0)
(0,0,0)
(0,0,0)
(0,0,0)
(0,0,0)
(0,0,0)
(0,0,0)
(0,0,0)
(0,0,0)
(0,0,0)
(0,0,0)
(0,0,0)
(0,0,0)
(0,0,0)
(0,0,0)
(0,0,0)
(0,0,0)
(0,0,0)
(0,0,0)
(0,0,0)
(0,0,0)
(0,0,0)
(0,0,0)
(0,0,0)
(0,0,0)
(0,0,0)
(0,0,0)
(0,0,0)
(0,0,0)
(0,0,0)
(0,0,0)
(0,0,0)
(0,0,0)
(0,0,0)
(0,0,0)
(0,0,0)
(0,0,0)
(0,0,0)
(0,0,0)
(0,0,0)
(0,0,0)
(0,0,0)
(0,0,0)
(0,0,0)
(0,0,0)
(0,0,0)
(0,0,0)
(0,0,0)
(0,0,0)
(0,0,0)
(0,0,0)
(0,0,0)
(0,0,0)
(0,0,0)
(0,0,0)
(0,0,0)
(0,0,0)
(0,0,0)
(0,0,0)
(0,0,0)
(0,0,0)
(0,0,0)
(0,0,0)
(0,0,0)
(0,0,0)
(0,0,0)
(0,0,0)
(0,0,0)
(0,0,0)
(0,0,0)
(0,0,0)
(0,0,0)
(0,0,0)
(0,0,0)
(0,0,0)
(0,0,0)
(0,0,0)
(0,0,0)
(0,0,0)
(0,0,0)
(0,0,0)
(0,0,0)
(0,0,0)
(0,0,0)
(0,0,0)
(0,0,0)
(0,0,0)
(0,0,0)
(0,0,0)
(0,0,0)
(0,0,0)
(0,0,0)
(0,0,0)
(0,0,0)
(0,0,0)
(0,0,0)
(0,0,0)
(0,0,0)
(0,0,0)
(0,0,0)
(0,0,0)
(0,0,0)
(0,0,0)
(0,0,0)
(0,0,0)
(0,0,0)
(0,0,0)
(0,0,0)
(0,0,0)
(0,0,0)
(0,0,0)
(0,0,0)
(0,0,0)
(0,0,0)
(0,0,0)
(0,0,0)
(0,0,0)
(0,0,0)
(0,0,0)
(0,0,0)
(0,0,0)
(0,0,0)
(0,0,0)
(0,0,0)
(0,0,0)
(0,0,0)
(0,0,0)
(0,0,0)
(0,0,0)
(0,0,0)
(0,0,0)
(0,0,0)
(0,0,0)
(0,0,0)
(0,0,0)
(0,0,0)
(0,0,0)
(0,0,0)
(0,0,0)
(0,0,0)
(0,0,0)
(0,0,0)
(0,0,0)
(0,0,0)
(0,0,0)
(0,0,0)
(0,0,0)
(0,0,0)
(0,0,0)
(0,0,0)
(0,0,0)
(0,0,0)
(0,0,0)
(0,0,0)
(0,0,0)
(0,0,0)
(0,0,0)
(0,0,0)
(0,0,0)
(0,0,0)
(0,0,0)
(0,0,0)
(0,0,0)
(0,0,0)
(0,0,0)
(0,0,0)
(0,0,0)
(0,0,0)
(0,0,0)
(0,0,0)
(0,0,0)
(0,0,0)
(0,0,0)
(0,0,0)
(0,0,0)
(0,0,0)
(0,0,0)
(0,0,0)
(0,0,0)
(0,0,0)
(0,0,0)
(0,0,0)
(0,0,0)
(0,0,0)
(0,0,0)
(0,0,0)
(0,0,0)
(0,0,0)
(0,0,0)
(0,0,0)
(0,0,0)
(0,0,0)
(0,0,0)
(0,0,0)
(0,0,0)
(0,0,0)
(0,0,0)
(0,0,0)
(0,0,0)
(0,0,0)
(0,0,0)
(0,0,0)
(0,0,0)
(0,0,0)
(0,0,0)
(0,0,0)
(0,0,0)
(0,0,0)
(0,0,0)
(0,0,0)
(0,0,0)
(0,0,0)
(0,0,0)
(0,0,0)
(0,0,0)
(0,0,0)
(0,0,0)
(0,0,0)
(0,0,0)
(0,0,0)
(0,0,0)
(0,0,0)
(0,0,0)
(0,0,0)
(0,0,0)
(0,0,0)
(0,0,0)
(0,0,0)
(0,0,0)
(0,0,0)
(0,0,0)
(0,0,0)
(0,0,0)
(0,0,0)
(0,0,0)
(0,0,0)
(0,0,0)
(0,0,0)
(0,0,0)
(0,0,0)
(0,0,0)
(0,0,0)
(0,0,0)
(0,0,0)
(0,0,0)
(0,0,0)
(0,0,0)
(0,0,0)
(0,0,0)
(0,0,0)
(0,0,0)
(0,0,0)
(0,0,0)
(0,0,0)
(0,0,0)
(0,0,0)
(0,0,0)
(0,0,0)
(0,0,0)
(0,0,0)
(0,0,0)
(0,0,0)
(0,0,0)
(0,0,0)
(0,0,0)
(0,0,0)
(0,0,0)
(0,0,0)
(0,0,0)
(0,0,0)
(0,0,0)
(0,0,0)
(-147215.963779808,78243.6396709423,68972.3241088654)
(-155636.946205644,75016.6973509434,149592.572963566)
(-175178.974643735,68280.5528578037,256490.994749497)
(-212223.428152397,57701.6817293198,411012.741172574)
(-279014.214203598,43485.5053581399,646541.450018034)
(-398947.335816985,27111.1728920437,1018377.61294298)
(-616106.657186835,12210.2387914299,1622274.03133838)
(-1008519.18946968,3103.97986516258,2627689.24094289)
(-1663277.51725882,71.0610363479327,4290895.69716538)
(-2317394.11561666,-219.249720703921,6608509.06250274)
(0,0,0)
(0,0,0)
(0,0,0)
(0,0,0)
(0,0,0)
(0,0,0)
(-155714.87129416,168190.183208612,65768.3277564906)
(-164224.029118773,162106.879709268,142902.174516939)
(-184086.000912985,149294.08913317,245974.639154557)
(-221983.500696394,128873.348206881,396786.47337339)
(-290612.161686698,100694.254697832,630189.885720397)
(-413405.750038248,67184.8950076487,1003521.91364304)
(-632936.821832333,35503.1486996181,1613165.82556718)
(-1023884.32980226,15483.9575049511,2624670.17772965)
(-1673534.25109595,7605.08776510741,4290670.40209685)
(-2322189.71670151,3857.0094515264,6608783.85962612)
(0,0,0)
(0,0,0)
(0,0,0)
(0,0,0)
(0,0,0)
(0,0,0)
(-175101.620466474,283569.184792326,59722.6188827604)
(-183747.836199226,275396.246286021,130181.088505234)
(-204234.947478438,258044.598271093,225665.526845749)
(-244037.729026687,229877.403539062,368699.200540257)
(-317069.942002654,189697.934769884,596765.462470859)
(-447475.530181793,139554.766548541,971871.121111759)
(-674546.374351078,88810.7706866898,1593109.87347576)
(-1062186.68749079,53994.5843613286,2616785.93411018)
(-1698186.88411112,35617.9268814861,4286959.97910493)
(-2333342.9353024,19277.1063317321,6604882.81752712)
(0,0,0)
(0,0,0)
(0,0,0)
(0,0,0)
(0,0,0)
(0,0,0)
(-211253.051218187,443247.299329286,51574.9366812261)
(-220048.931619969,434133.224733529,112886.889853688)
(-241332.333390825,414687.769144091,197576.052371514)
(-283888.473002942,382704.248721829,328637.680191689)
(-364174.339010986,335845.02952653,546664.924446028)
(-509214.024871289,274309.31002281,921124.405843048)
(-754336.678159483,205991.282743042,1558280.57194618)
(-1136375.29120012,150220.288299876,2598430.15920775)
(-1743416.82189642,106770.498810464,4270694.4091752)
(-2353053.57262392,57443.1363665523,6585581.95176429)
(0,0,0)
(0,0,0)
(0,0,0)
(0,0,0)
(0,0,0)
(0,0,0)
(-276030.24503479,676808.019011971,42469.5253521053)
(-284812.220063161,667920.104737242,93494.8654115531)
(-306551.826159307,649055.658612782,165678.802102169)
(-351420.364793614,617925.805617725,281877.609999886)
(-439173.7208047,571756.22947204,485140.130859077)
(-602321.684306625,508989.575992508,852781.549196004)
(-875821.89269084,432098.962751277,1502495.76187861)
(-1249335.17093937,347067.846448156,2554983.3746697)
(-1809163.29568216,249489.021323425,4221428.1478389)
(-2381575.4260433,132237.829652357,6528208.8805964)
(0,0,0)
(0,0,0)
(0,0,0)
(0,0,0)
(0,0,0)
(0,0,0)
(-392982.510684132,1036204.30836974,33586.2213263626)
(-401343.561995596,1028284.50768803,74565.3803711741)
(-422383.166341271,1011494.4667786,134509.738546625)
(-466785.907594756,983491.531186679,235729.920572427)
(-555447.441425328,940503.753811052,422429.837658744)
(-721676.625904234,877172.13577444,775923.903781045)
(-996010.454515497,786531.319723496,1417502.00132433)
(-1352597.39152748,659735.133065725,2457432.10623424)
(-1880355.15392378,483048.979312305,4104227.30216914)
(-2417450.51727084,257865.765544926,6396049.88354741)
(0,0,0)
(0,0,0)
(0,0,0)
(0,0,0)
(0,0,0)
(0,0,0)
(-607634.690716991,1618178.72814859,25660.2709381404)
(-615069.989367108,1611356.23241436,57658.5355789133)
(-633967.440405797,1596708.71519171,106411.727571608)
(-674510.359043937,1571655.31465348,192758.30314874)
(-756851.078862596,1530927.09570826,359186.040114132)
(-913028.617730116,1464045.53830458,685341.255314108)
(-1170498.7081664,1351590.78700336,1290780.49620064)
(-1494761.66036746,1164467.86504708,2280809.42458674)
(-1986440.79067008,871231.942672494,3879067.25189663)
(-2475957.90446287,474687.919066634,6138203.00283781)
(0,0,0)
(0,0,0)
(0,0,0)
(0,0,0)
(0,0,0)
(0,0,0)
(-1000261.57063011,2599624.20534691,18816.0934317972)
(-1006220.96633525,2593438.80159368,42954.4905877325)
(-1021438.51195734,2579763.15652017,81338.5612166118)
(-1054396.03130251,2555350.18502197,152039.722150633)
(-1122070.09406938,2512718.05327583,292318.858652439)
(-1251879.19927163,2435315.35138541,572928.24484324)
(-1467491.18208724,2288260.18728964,1103750.0266442)
(-1729984.61673537,2010524.22039856,1987678.28802811)
(-2179035.2264472,1555384.39466746,3482561.06248034)
(-2587859.17291844,881612.811241361,5663495.34322405)
(0,0,0)
(0,0,0)
(0,0,0)
(0,0,0)
(0,0,0)
(0,0,0)
(-1657681.31185941,4244699.43461729,12606.0825890278)
(-1661729.15325042,4238480.58260287,29293.4548302613)
(-1672059.36901113,4224189.41901782,56926.5613437297)
(-1694208.80271645,4197101.86616943,109383.682912711)
(-1738908.52732872,4146122.1607107,214888.102806564)
(-1822894.93118385,4047222.37359056,425876.011785255)
(-1964019.2680099,3852125.81938813,826029.647696664)
(-2173681.07501401,3477673.28640422,1532561.65670502)
(-2534243.76907046,2813433.3350713,2808756.48537164)
(-2783033.68361533,1691579.68518794,4781823.2950404)
(0,0,0)
(0,0,0)
(0,0,0)
(0,0,0)
(0,0,0)
(0,0,0)
(-2314814.02869428,6553106.35354891,6407.10976266535)
(-2316830.93456794,6546626.79309943,15091.8338340463)
(-2321959.90446835,6531375.07911843,29866.0782017827)
(-2332842.4368544,6501439.98946671,58370.3917589081)
(-2354499.50644063,6443099.76045366,115892.298456577)
(-2394945.72623534,6327364.08179645,230696.316486023)
(-2465556.25835772,6096854.35754625,451524.036685619)
(-2584550.58947775,5645459.38322693,868288.529340654)
(-2782418.99963633,4777234.89004986,1686905.97399842)
(-2802144.94054054,3090340.17893047,3090290.42079643)
(0,0,0)
(0,0,0)
(0,0,0)
(0,0,0)
(0,0,0)
(0,0,0)
(0,0,0)
(0,0,0)
(0,0,0)
(0,0,0)
(0,0,0)
(0,0,0)
(0,0,0)
(0,0,0)
(0,0,0)
(0,0,0)
(0,0,0)
(0,0,0)
(0,0,0)
(0,0,0)
(0,0,0)
(0,0,0)
(0,0,0)
(0,0,0)
(0,0,0)
(0,0,0)
(0,0,0)
(0,0,0)
(0,0,0)
(0,0,0)
(0,0,0)
(0,0,0)
(0,0,0)
(0,0,0)
(0,0,0)
(0,0,0)
(0,0,0)
(0,0,0)
(0,0,0)
(0,0,0)
(0,0,0)
(0,0,0)
(0,0,0)
(0,0,0)
(0,0,0)
(0,0,0)
(0,0,0)
(0,0,0)
(0,0,0)
(0,0,0)
(0,0,0)
(0,0,0)
(0,0,0)
(0,0,0)
(0,0,0)
(0,0,0)
(0,0,0)
(0,0,0)
(0,0,0)
(0,0,0)
(0,0,0)
(0,0,0)
(0,0,0)
(0,0,0)
(0,0,0)
(0,0,0)
(0,0,0)
(0,0,0)
(0,0,0)
(0,0,0)
(0,0,0)
(0,0,0)
(0,0,0)
(0,0,0)
(0,0,0)
(0,0,0)
(0,0,0)
(0,0,0)
(0,0,0)
(0,0,0)
(0,0,0)
(0,0,0)
(0,0,0)
(0,0,0)
(0,0,0)
(0,0,0)
(0,0,0)
(0,0,0)
(0,0,0)
(0,0,0)
(0,0,0)
(0,0,0)
(0,0,0)
(0,0,0)
(0,0,0)
(0,0,0)
(0,0,0)
(0,0,0)
(0,0,0)
(0,0,0)
(0,0,0)
(0,0,0)
(21732395.0454683,69745.0862956245,60436.9287275956)
(21718247.4377687,66446.8850119284,129898.684012716)
(21685739.0402483,59396.5339544756,219377.159437571)
(21624867.3903152,47943.1149674613,344136.250273849)
(21516473.2744545,31877.5290051467,526564.256881961)
(21323615.1320022,12630.0336227113,801164.779711378)
(20969778.6869175,-4675.15951582755,1229747.61939426)
(20270573.6737243,-12294.072107744,1972741.85257944)
(18692928.5103303,-10200.8191250914,3636529.66838675)
(14408376.7609868,-5019.11599600724,8925570.93205069)
(0,0,0)
(0,0,0)
(0,0,0)
(0,0,0)
(0,0,0)
(0,0,0)
(21717875.5008791,148778.014834918,57169.72355883)
(21703713.2868496,142557.491289788,122914.825584001)
(21670908.1487671,129117.301354164,207992.932775631)
(21608894.3916713,106796.083683749,328055.095963051)
(21497545.0482163,74253.7182479463,507314.721088597)
(21299283.7201103,33144.6987116861,783903.610122444)
(20940060.188948,-6116.1792073763,1222140.64330504)
(20243750.5596369,-22858.7949469125,1974863.50097642)
(18676249.411825,-17104.9620436558,3641777.00524533)
(14401084.096125,-7336.54160522941,8930613.64229941)
(0,0,0)
(0,0,0)
(0,0,0)
(0,0,0)
(0,0,0)
(0,0,0)
(21685094.2616378,247404.377252581,50970.7797494434)
(21670903.3471724,239095.418853631,109574.693085388)
(21637466.3672037,220967.436305548,185816.267723247)
(21572735.642229,190055.777112768,295576.22730995)
(21453639.5928199,142674.435022921,466238.999983813)
(21239111.7880356,77913.3232494802,744676.081499963)
(20859318.7458389,9107.19889296561,1205380.60748103)
(20169660.9909595,-20161.8120997768,1980628.97045499)
(18633182.0457536,-9637.34670526542,3651585.44952319)
(14383236.901798,-461.14558825738,8937923.24067718)
(0,0,0)
(0,0,0)
(0,0,0)
(0,0,0)
(0,0,0)
(0,0,0)
(21624846.255687,378434.636397013,42663.4582217825)
(21610645.8246322,369371.251441058,91485.8936535161)
(21576384.161837,349530.693771573,154999.165231026)
(21507421.8792606,315265.725417518,248271.888934147)
(21374089.8401145,260955.830309482,401519.338793431)
(21122793.6597641,181291.597455445,675926.404223475)
(20679771.3955814,84578.5845025663,1176139.9691444)
(20000882.6104526,37308.347018391,1991204.93264492)
(18546071.2417694,41025.513961434,3660847.03258369)
(14349812.5089203,28920.1004180779,8938392.7293045)
(0,0,0)
(0,0,0)
(0,0,0)
(0,0,0)
(0,0,0)
(0,0,0)
(21518769.5319699,559830.603623696,33597.2800400543)
(21504877.8311448,551414.481087721,71657.0234567334)
(21470402.8803633,533259.166193051,120766.868784033)
(21397804.5263916,502574.027941636,194026.699346107)
(21248202.0834212,455482.315838191,321917.433862869)
(20941816.910508,389594.557889441,579268.902885631)
(20357063.7386998,311841.687158658,1128913.19311027)
(19687943.4826225,243760.926149004,1994974.98468914)
(18409507.0356681,178271.31573916,3648851.87583248)
(14300052.7073804,96350.2490778932,8909586.61802033)
(0,0,0)
(0,0,0)
(0,0,0)
(0,0,0)
(0,0,0)
(0,0,0)
(21329996.6577261,821466.143404168,25178.3160806718)
(21317035.3723739,814554.574646873,53452.3124233299)
(21284182.8249767,799912.42399965,90026.0875701351)
(21212922.3664307,775740.476390765,146944.389366944)
(21061608.264175,739063.556264344,256100.467611757)
(20746483.5824978,685761.839028693,501566.002341821)
(20154338.7903684,611980.835261509,1060870.6336264)
(19514736.526399,517549.448832277,1929541.21728802)
(18293307.9059449,376940.221318431,3567002.27611148)
(14243055.3494673,199328.794091759,8813310.88863082)
(0,0,0)
(0,0,0)
(0,0,0)
(0,0,0)
(0,0,0)
(0,0,0)
(20979886.6278502,1225504.96928395,18232.8798243923)
(20968574.873185,1220205.86402192,38729.7521685584)
(20939454.0941681,1209225.2950273,65788.3708383422)
(20874791.8530787,1191734.10819658,110285.551181305)
(20733729.4414456,1165691.76385866,202869.847550096)
(20432410.2864755,1125157.87203088,427827.934613691)
(19858092.724831,1054539.36634317,966470.99480607)
(19280882.4681365,929198.88267842,1788970.45672737)
(18121251.4946835,678620.825524043,3389390.59143956)
(14145809.7672953,362768.308255624,8613976.42978888)
(0,0,0)
(0,0,0)
(0,0,0)
(0,0,0)
(0,0,0)
(0,0,0)
(20280061.2993082,1942096.95440318,12878.1692138072)
(20271144.9281488,1937815.18568862,27695.9773343783)
(20247968.6210893,1929020.06044828,48287.1031380785)
(20195747.0533902,1915411.86430559,84259.2866077869)
(20079525.2471238,1895784.28406521,162364.449479383)
(19823941.8347978,1864230.65034768,357263.661364504)
(19321248.5377545,1791649.93711023,841206.395027041)
(18944993.711473,1566738.164526,1538481.8092425)
(17774183.6812183,1200105.68680153,3073571.06457084)
(13920677.3580674,686392.613767721,8251203.25234423)
(0,0,0)
(0,0,0)
(0,0,0)
(0,0,0)
(0,0,0)
(0,0,0)
(18698380.7531825,3587273.54520456,8554.36842803379)
(18692403.0891429,3583111.89902787,18918.436966784)
(18676930.1966335,3574055.66993139,34686.2861103702)
(18642794.3136918,3558286.99640473,64601.061874342)
(18570076.1061778,3530414.10353639,130779.633168016)
(18422104.8662328,3475106.87201876,284696.638351664)
(18155267.5214425,3350523.14608919,616329.664191716)
(17780536.1762794,3066734.42356061,1171909.17813509)
(16722496.1855914,2565205.17208557,2559862.76246054)
(13235793.0521961,1672435.48020712,7564786.18448108)
(0,0,0)
(0,0,0)
(0,0,0)
(0,0,0)
(0,0,0)
(0,0,0)
(14410367.6501291,8867505.97825385,4378.91239864763)
(14407418.5906479,8863097.61907496,9936.69140702456)
(14399837.6682104,8853037.89413454,18949.9187964561)
(14383435.1295863,8834054.72137686,36697.6516549912)
(14349615.6071132,8797408.53131039,75381.1345984913)
(14283128.9287007,8722172.20533332,160034.170619237)
(14159994.6304671,8562301.74163998,332497.710514933)
(13924177.6989171,8229917.66931311,670379.200638967)
(13236287.3270271,7559562.22984978,1667108.84048266)
(10762340.631095,5892451.88901877,5892399.88430684)
(0,0,0)
(0,0,0)
(0,0,0)
(0,0,0)
(0,0,0)
(0,0,0)
(0,0,0)
(0,0,0)
(0,0,0)
(0,0,0)
(0,0,0)
(0,0,0)
(0,0,0)
(0,0,0)
(0,0,0)
(0,0,0)
(0,0,0)
(0,0,0)
(0,0,0)
(0,0,0)
(0,0,0)
(0,0,0)
(0,0,0)
(0,0,0)
(0,0,0)
(0,0,0)
(0,0,0)
(0,0,0)
(0,0,0)
(0,0,0)
(0,0,0)
(0,0,0)
(0,0,0)
(0,0,0)
(0,0,0)
(0,0,0)
(0,0,0)
(0,0,0)
(0,0,0)
(0,0,0)
(0,0,0)
(0,0,0)
(0,0,0)
(0,0,0)
(0,0,0)
(0,0,0)
(0,0,0)
(0,0,0)
(0,0,0)
(0,0,0)
(0,0,0)
(0,0,0)
(0,0,0)
(0,0,0)
(0,0,0)
(0,0,0)
(0,0,0)
(0,0,0)
(0,0,0)
(0,0,0)
(0,0,0)
(0,0,0)
(0,0,0)
(0,0,0)
(0,0,0)
(0,0,0)
(0,0,0)
(0,0,0)
(0,0,0)
(0,0,0)
(0,0,0)
(0,0,0)
(0,0,0)
(0,0,0)
(0,0,0)
(0,0,0)
(0,0,0)
(0,0,0)
(0,0,0)
(0,0,0)
(0,0,0)
(0,0,0)
(0,0,0)
(0,0,0)
(0,0,0)
(0,0,0)
(0,0,0)
(0,0,0)
(0,0,0)
(0,0,0)
(0,0,0)
(0,0,0)
(0,0,0)
(0,0,0)
(0,0,0)
(0,0,0)
(0,0,0)
(0,0,0)
(0,0,0)
(0,0,0)
(0,0,0)
(0,0,0)
(-378900.725705044,55263.5087713211,46239.2381306953)
(-394524.401681932,51942.0666320378,97275.9866778966)
(-429818.248738637,44617.8980051223,158422.353388345)
(-494171.057406937,32034.7553307216,235633.021508424)
(-604307.898197541,13000.1650919765,333621.004797132)
(-788116.123648307,-11659.5507305266,447218.786906851)
(-1088762.76684746,-34392.0141304258,530359.230530844)
(-1564563.57523185,-39124.1245084504,394827.579724031)
(-2246733.34012995,-26888.5133814869,-648415.080705584)
(-2753998.30034848,-12321.6779105743,-5483511.36573112)
(0,0,0)
(0,0,0)
(0,0,0)
(0,0,0)
(0,0,0)
(0,0,0)
(-395521.532390288,115930.423119575,42937.0946497498)
(-410861.404715267,109679.021829238,89981.8067460123)
(-445801.698060363,95640.8434838862,145875.683823308)
(-510210.519847305,70639.3390644972,216582.987336736)
(-621999.40724194,30392.3982584738,308942.185357135)
(-810772.881875929,-26964.5180249936,424510.730366462)
(-1118434.74585766,-86819.3188858179,525639.945656135)
(-1589639.82767255,-96980.8318960329,407094.016081794)
(-2259302.21622885,-60238.5807835914,-633797.312733533)
(-2758429.85450662,-25213.9644387341,-5471184.09984512)
(0,0,0)
(0,0,0)
(0,0,0)
(0,0,0)
(0,0,0)
(0,0,0)
(-432504.185387372,187072.521128877,36663.3247444902)
(-447318.137606088,178807.747121633,75963.0599591695)
(-481608.110104299,159922.827896654,120962.528583019)
(-546610.829491964,124794.394209621,176360.92088745)
(-664205.166569081,63210.2004761656,251594.853787349)
(-872445.207192225,-38314.8540613179,364709.160780161)
(-1217752.06095648,-170346.067477963,515513.691896299)
(-1676558.17660827,-188929.927075042,443888.930371692)
(-2297426.30833634,-96803.4775103707,-598730.843082896)
(-2770645.49497307,-33926.3936612454,-5445929.04136068)
(0,0,0)
(0,0,0)
(0,0,0)
(0,0,0)
(0,0,0)
(0,0,0)
(-498516.011931002,272278.023658538,28363.7408169389)
(-512601.254370228,263566.005618226,57059.5370514453)
(-545941.668491623,243602.426171327,85912.7448340356)
(-612254.663742005,205758.479164025,114832.178610823)
(-742964.239330202,135174.911770135,150128.522490223)
(-1008338.09604395,358.636738916753,232793.763226643)
(-1526506.04935935,-238113.414809323,497045.531227349)
(-1961282.431217,-275655.510941292,536143.132491785)
(-2393045.71027545,-95605.9927402973,-535730.424504738)
(-2796864.08489858,-20872.0676745415,-5411901.18094391)
(0,0,0)
(0,0,0)
(0,0,0)
(0,0,0)
(0,0,0)
(0,0,0)
(-609408.055299684,371039.034062201,19623.5525944945)
(-622355.950574487,363592.39978826,37037.9158724431)
(-653885.21076011,347099.179519729,48036.2293760653)
(-720257.30933259,317765.150573495,44298.3694193803)
(-866481.578657554,268936.405942305,15427.513054594)
(-1240892.64222588,194236.383916616,-5533.70566060398)
(-2465066.8576348,109014.979809253,459675.471784049)
(-2924586.89898172,70442.2999625075,716315.018213114)
(-2580685.85675058,61973.9425243948,-460865.048904225)
(-2839904.99618021,39309.8670302352,-5390882.30431977)
(0,0,0)
(0,0,0)
(0,0,0)
(0,0,0)
(0,0,0)
(0,0,0)
(-792233.266294987,471311.225255465,12164.7085564471)
(-803585.736507769,466087.657994976,20497.5349600945)
(-831854.298863394,455197.567704903,18643.2463436399)
(-893591.763796338,437625.146174502,-4495.64330172354)
(-1035770.22133465,411186.755742117,-59160.5318631839)
(-1409266.91655425,371663.270379515,-90629.9435453833)
(-2573951.94537419,315675.557561921,421207.19017321)
(-2994987.95189695,283636.365065977,707944.579094314)
(-2667952.53285836,204830.02075175,-483444.084601182)
(-2882832.63315493,102051.766332544,-5430091.02555261)
(0,0,0)
(0,0,0)
(0,0,0)
(0,0,0)
(0,0,0)
(0,0,0)
(-1091137.64856988,525630.846643498,6911.63076068172)
(-1100507.21883366,522718.488275784,9569.86822721913)
(-1124287.71268543,517675.630698784,1040.58781553402)
(-1178084.5179985,512647.779581489,-30898.6987856626)
(-1308624.5879801,511459.048651491,-98609.9865406382)
(-1674434.39296423,516640.567298535,-146535.628291323)
(-2889427.73873627,517638.12007157,389229.24849487)
(-3278492.71773328,593250.288073556,629197.487085666)
(-2799820.91854409,331532.228957954,-586225.332164334)
(-2953651.35956905,137629.249807949,-5532134.71304676)
(0,0,0)
(0,0,0)
(0,0,0)
(0,0,0)
(0,0,0)
(0,0,0)
(-1568274.56504413,360225.383370852,3948.30335362192)
(-1575314.19930555,358851.071503865,4481.82330856875)
(-1593438.16560541,357777.749564973,-4006.53313423075)
(-1635615.79740874,362275.129187786,-32064.0562130205)
(-1743648.4266981,386152.492496645,-93376.8505076054)
(-2079335.14893447,462230.133905343,-145482.457653489)
(-3406822.24686699,625526.019168859,464907.403599372)
(-2776349.48413507,402154.625139425,367553.237870169)
(-2904702.93390327,148322.379959909,-780143.322281545)
(-3063274.75466025,1455.18900050398,-5669810.17301778)
(0,0,0)
(0,0,0)
(0,0,0)
(0,0,0)
(0,0,0)
(0,0,0)
(-2252610.17282008,-701134.825562122,2558.11066422625)
(-2257164.78307877,-702251.343375792,3435.3734942317)
(-2268754.02259045,-703383.811266611,488.1292784478)
(-2294674.2274478,-701361.684264312,-8199.54040121271)
(-2354152.96174032,-690301.246021316,-17309.7582365016)
(-2496485.18732738,-664086.715253636,17804.1202112779)
(-2807781.61958111,-644958.994794961,241545.250927299)
(-2909522.8479509,-789814.430259996,113780.306285617)
(-3177014.24643089,-921156.746959427,-927023.159044118)
(-3227167.96116889,-801100.262558198,-5671299.71839181)
(0,0,0)
(0,0,0)
(0,0,0)
(0,0,0)
(0,0,0)
(0,0,0)
(-2758460.33737314,-5543510.8288924,1410.96656120861)
(-2760656.56702935,-5544907.55236712,2349.30895845824)
(-2766191.69982656,-5547328.49838041,2530.33983787045)
(-2778187.50346593,-5549866.76698293,2865.03133736292)
(-2803750.00906779,-5552700.96238621,8837.33961191204)
(-2857351.06532754,-5561411.10823268,36848.7023478629)
(-2956427.02868721,-5598114.48065606,96632.8230919696)
(-3066584.31874456,-5694650.11760446,-17562.4961733029)
(-3228172.76266547,-5677077.72493231,-806974.452779179)
(-3115262.20435008,-4870102.60743528,-4870162.29672837)
(0,0,0)
(0,0,0)
(0,0,0)
(0,0,0)
(0,0,0)
(0,0,0)
(0,0,0)
(0,0,0)
(0,0,0)
(0,0,0)
(0,0,0)
(0,0,0)
(0,0,0)
(0,0,0)
(0,0,0)
(0,0,0)
(0,0,0)
(0,0,0)
(0,0,0)
(0,0,0)
(0,0,0)
(0,0,0)
(0,0,0)
(0,0,0)
(0,0,0)
(0,0,0)
(0,0,0)
(0,0,0)
(0,0,0)
(0,0,0)
(0,0,0)
(0,0,0)
(0,0,0)
(0,0,0)
(0,0,0)
(0,0,0)
(0,0,0)
(0,0,0)
(0,0,0)
(0,0,0)
(0,0,0)
(0,0,0)
(0,0,0)
(0,0,0)
(0,0,0)
(0,0,0)
(0,0,0)
(0,0,0)
(0,0,0)
(0,0,0)
(0,0,0)
(0,0,0)
(0,0,0)
(0,0,0)
(0,0,0)
(0,0,0)
(0,0,0)
(0,0,0)
(0,0,0)
(0,0,0)
(0,0,0)
(0,0,0)
(0,0,0)
(0,0,0)
(0,0,0)
(0,0,0)
(0,0,0)
(0,0,0)
(0,0,0)
(0,0,0)
(0,0,0)
(0,0,0)
(0,0,0)
(0,0,0)
(0,0,0)
(0,0,0)
(0,0,0)
(0,0,0)
(0,0,0)
(0,0,0)
(0,0,0)
(0,0,0)
(0,0,0)
(0,0,0)
(0,0,0)
(0,0,0)
(0,0,0)
(0,0,0)
(0,0,0)
(0,0,0)
(0,0,0)
(0,0,0)
(0,0,0)
(0,0,0)
(0,0,0)
(0,0,0)
(0,0,0)
(0,0,0)
(0,0,0)
(0,0,0)
(0,0,0)
(0,0,0)
(-448163.941885476,38687.6472004866,30575.5689799453)
(-461433.551117799,35640.2967903223,61844.4216254906)
(-490636.653205339,28692.5141022035,93970.31198999)
(-541642.687693186,16068.06438298,125373.877893258)
(-623954.150175271,-4635.16340763108,149655.293278619)
(-750559.821760319,-34291.0096939033,146390.001084534)
(-932610.280613047,-64075.2048221147,54312.7196722361)
(-1158305.03161812,-64229.3050237092,-287716.518917781)
(-1338796.44436816,-39483.5297203978,-1156169.88495917)
(-1163282.63470748,-16767.7274514313,-2730117.82314874)
(0,0,0)
(0,0,0)
(0,0,0)
(0,0,0)
(0,0,0)
(0,0,0)
(-463271.647246388,78919.368610238,27518.3934463477)
(-475786.360496059,73199.6156074951,54884.0304099653)
(-503371.043599448,59814.2140705632,81331.6759806903)
(-551649.602937646,34213.9123009944,104624.911153017)
(-630171.240287161,-11811.3222867541,119972.903077361)
(-753090.882210949,-88629.2936358458,116629.187354323)
(-933932.063013162,-186144.812138898,54196.1118266114)
(-1152780.7564968,-183957.229683846,-262935.034688994)
(-1329888.49073219,-98423.014221843,-1133409.27568421)
(-1157807.24052699,-37459.0990992528,-2713340.51801603)
(0,0,0)
(0,0,0)
(0,0,0)
(0,0,0)
(0,0,0)
(0,0,0)
(-496272.720312935,120937.864940447,21750.0385953548)
(-507340.794101659,113488.989582293,41483.321116128)
(-531690.301156556,95604.6197752716,55775.1064636762)
(-574370.590053453,59160.987087724,58587.7922384367)
(-645055.726832345,-15524.8760468437,43151.9062617901)
(-762922.666118959,-174180.039964113,19180.1115167921)
(-962141.223109985,-479038.165983007,56462.627514404)
(-1153084.40385521,-473642.429417986,-177325.945504515)
(-1308310.10550068,-192467.738258445,-1072397.42430357)
(-1144477.10907365,-60199.4555504331,-2675825.45375182)
(0,0,0)
(0,0,0)
(0,0,0)
(0,0,0)
(0,0,0)
(0,0,0)
(-553083.999730154,161264.132919693,14241.7198199069)
(-562172.591737446,153738.681075348,23563.3656940707)
(-581821.521809118,135650.078579592,19397.7602072455)
(-615445.892288314,97800.6918126767,-16050.7159713982)
(-670833.334342599,11724.9715152087,-115431.468521051)
(-780224.287170833,-232160.641896876,-285564.675461409)
(-1176478.6063958,-1176619.71197262,61989.427564651)
(-1238018.58411535,-1238918.37710341,104001.528148431)
(-1258267.79971308,-283268.92006768,-939975.200604712)
(-1117594.98956972,-63942.8115222249,-2615500.93996177)
(0,0,0)
(0,0,0)
(0,0,0)
(0,0,0)
(0,0,0)
(0,0,0)
(-642920.999233768,188108.052849931,6669.02400384501)
(-649644.676322405,182287.048414814,5409.38241229802)
(-663425.084562182,169074.749571132,-18475.4147771687)
(-683249.950330841,144383.120902372,-102065.202868614)
(-697249.197686725,99598.5277690273,-359171.140093261)
(-628145.813868827,25775.9600394608,-1229854.57038665)