/*--------------------------------*- C++ -*----------------------------------*\
| =========                 |                                                 |
| \\      /  F ield         | foam-extend: Open Source CFD                    |
|  \\    /   O peration     | Version:     4.0                                |
|   \\  /    A nd           | Web:         http://www.foam-extend.org         |
|    \\/     M anipulation  |                                                 |
\*---------------------------------------------------------------------------*/
FoamFile
{
    version 2.0;
    format ascii;
    class volVectorField;
    location "3161";
    object      E;
}
// * * * * * * * * * * * * * * * * * * * * * * * * * * * * * * * * * * * * * //

dimensions      [0 1 -1 0 0 0 0];

internalField   nonuniform List<vector>
4096
(
(0,0,0)
(0,0,0)
(0,0,0)
(0,0,0)
(0,0,0)
(0,0,0)
(0,0,0)
(0,0,0)
(0,0,0)
(0,0,0)
(0,0,0)
(0,0,0)
(0,0,0)
(0,0,0)
(0,0,0)
(0,0,0)
(0,0,0)
(0,0,0)
(0,0,0)
(0,0,0)
(0,0,0)
(0,0,0)
(0,0,0)
(0,0,0)
(0,0,0)
(0,0,0)
(0,0,0)
(0,0,0)
(0,0,0)
(0,0,0)
(0,0,0)
(0,0,0)
(0,0,0)
(0,0,0)
(0,0,0)
(0,0,0)
(0,0,0)
(0,0,0)
(0,0,0)
(0,0,0)
(0,0,0)
(0,0,0)
(0,0,0)
(0,0,0)
(0,0,0)
(0,0,0)
(0,0,0)
(0,0,0)
(0,0,0)
(0,0,0)
(0,0,0)
(0,0,0)
(0,0,0)
(0,0,0)
(0,0,0)
(0,0,0)
(0,0,0)
(0,0,0)
(0,0,0)
(0,0,0)
(0,0,0)
(0,0,0)
(0,0,0)
(0,0,0)
(0,0,0)
(0,0,0)
(0,0,0)
(0,0,0)
(0,0,0)
(0,0,0)
(0,0,0)
(0,0,0)
(0,0,0)
(0,0,0)
(0,0,0)
(0,0,0)
(0,0,0)
(0,0,0)
(0,0,0)
(0,0,0)
(0,0,0)
(0,0,0)
(0,0,0)
(0,0,0)
(0,0,0)
(0,0,0)
(0,0,0)
(0,0,0)
(0,0,0)
(0,0,0)
(0,0,0)
(0,0,0)
(0,0,0)
(0,0,0)
(0,0,0)
(0,0,0)
(0,0,0)
(0,0,0)
(0,0,0)
(0,0,0)
(0,0,0)
(0,0,0)
(0,0,0)
(0,0,0)
(0,0,0)
(0,0,0)
(0,0,0)
(0,0,0)
(0,0,0)
(0,0,0)
(0,0,0)
(0,0,0)
(0,0,0)
(0,0,0)
(0,0,0)
(0,0,0)
(0,0,0)
(0,0,0)
(0,0,0)
(0,0,0)
(0,0,0)
(0,0,0)
(0,0,0)
(0,0,0)
(0,0,0)
(0,0,0)
(0,0,0)
(0,0,0)
(0,0,0)
(0,0,0)
(0,0,0)
(0,0,0)
(0,0,0)
(0,0,0)
(0,0,0)
(0,0,0)
(0,0,0)
(0,0,0)
(0,0,0)
(0,0,0)
(0,0,0)
(0,0,0)
(0,0,0)
(0,0,0)
(0,0,0)
(0,0,0)
(0,0,0)
(0,0,0)
(0,0,0)
(0,0,0)
(0,0,0)
(0,0,0)
(0,0,0)
(0,0,0)
(0,0,0)
(0,0,0)
(0,0,0)
(0,0,0)
(0,0,0)
(0,0,0)
(0,0,0)
(0,0,0)
(0,0,0)
(0,0,0)
(0,0,0)
(0,0,0)
(0,0,0)
(0,0,0)
(0,0,0)
(0,0,0)
(0,0,0)
(0,0,0)
(0,0,0)
(0,0,0)
(0,0,0)
(0,0,0)
(0,0,0)
(0,0,0)
(0,0,0)
(0,0,0)
(0,0,0)
(0,0,0)
(0,0,0)
(0,0,0)
(0,0,0)
(0,0,0)
(0,0,0)
(0,0,0)
(0,0,0)
(0,0,0)
(0,0,0)
(0,0,0)
(0,0,0)
(0,0,0)
(0,0,0)
(0,0,0)
(0,0,0)
(0,0,0)
(0,0,0)
(0,0,0)
(0,0,0)
(0,0,0)
(0,0,0)
(0,0,0)
(0,0,0)
(0,0,0)
(0,0,0)
(0,0,0)
(0,0,0)
(0,0,0)
(0,0,0)
(0,0,0)
(0,0,0)
(0,0,0)
(0,0,0)
(0,0,0)
(0,0,0)
(0,0,0)
(0,0,0)
(0,0,0)
(0,0,0)
(0,0,0)
(0,0,0)
(0,0,0)
(0,0,0)
(0,0,0)
(0,0,0)
(0,0,0)
(0,0,0)
(0,0,0)
(0,0,0)
(0,0,0)
(0,0,0)
(0,0,0)
(0,0,0)
(0,0,0)
(0,0,0)
(0,0,0)
(0,0,0)
(0,0,0)
(0,0,0)
(0,0,0)
(0,0,0)
(0,0,0)
(0,0,0)
(0,0,0)
(0,0,0)
(0,0,0)
(0,0,0)
(0,0,0)
(0,0,0)
(0,0,0)
(0,0,0)
(0,0,0)
(0,0,0)
(0,0,0)
(0,0,0)
(0,0,0)
(0,0,0)
(0,0,0)
(0,0,0)
(0,0,0)
(0,0,0)
(0,0,0)
(0,0,0)
(0,0,0)
(0,0,0)
(0,0,0)
(0,0,0)
(0,0,0)
(0,0,0)
(0,0,0)
(0,0,0)
(0,0,0)
(0,0,0)
(0,0,0)
(0,0,0)
(0,0,0)
(0,0,0)
(0,0,0)
(0,0,0)
(0,0,0)
(0,0,0)
(0,0,0)
(0,0,0)
(0,0,0)
(0,0,0)
(0,0,0)
(0,0,0)
(0,0,0)
(0,0,0)
(0,0,0)
(0,0,0)
(0,0,0)
(0,0,0)
(0,0,0)
(0,0,0)
(0,0,0)
(0,0,0)
(0,0,0)
(0,0,0)
(0,0,0)
(0,0,0)
(0,0,0)
(0,0,0)
(0,0,0)
(0,0,0)
(0,0,0)
(0,0,0)
(0,0,0)
(0,0,0)
(0,0,0)
(0,0,0)
(0,0,0)
(0,0,0)
(0,0,0)
(0,0,0)
(0,0,0)
(0,0,0)
(0,0,0)
(0,0,0)
(0,0,0)
(0,0,0)
(0,0,0)
(0,0,0)
(0,0,0)
(0,0,0)
(0,0,0)
(0,0,0)
(0,0,0)
(0,0,0)
(0,0,0)
(0,0,0)
(0,0,0)
(0,0,0)
(0,0,0)
(0,0,0)
(0,0,0)
(0,0,0)
(0,0,0)
(0,0,0)
(0,0,0)
(0,0,0)
(0,0,0)
(0,0,0)
(0,0,0)
(0,0,0)
(0,0,0)
(0,0,0)
(0,0,0)
(0,0,0)
(0,0,0)
(0,0,0)
(0,0,0)
(0,0,0)
(0,0,0)
(0,0,0)
(0,0,0)
(0,0,0)
(0,0,0)
(0,0,0)
(0,0,0)
(0,0,0)
(0,0,0)
(0,0,0)
(0,0,0)
(0,0,0)
(0,0,0)
(0,0,0)
(0,0,0)
(0,0,0)
(0,0,0)
(0,0,0)
(0,0,0)
(0,0,0)
(0,0,0)
(0,0,0)
(0,0,0)
(0,0,0)
(0,0,0)
(0,0,0)
(0,0,0)
(0,0,0)
(0,0,0)
(0,0,0)
(0,0,0)
(0,0,0)
(0,0,0)
(0,0,0)
(0,0,0)
(0,0,0)
(0,0,0)
(0,0,0)
(0,0,0)
(0,0,0)
(0,0,0)
(0,0,0)
(0,0,0)
(0,0,0)
(0,0,0)
(0,0,0)
(0,0,0)
(0,0,0)
(0,0,0)
(0,0,0)
(0,0,0)
(0,0,0)
(0,0,0)
(0,0,0)
(0,0,0)
(0,0,0)
(0,0,0)
(0,0,0)
(0,0,0)
(0,0,0)
(0,0,0)
(0,0,0)
(0,0,0)
(0,0,0)
(0,0,0)
(0,0,0)
(0,0,0)
(0,0,0)
(0,0,0)
(0,0,0)
(0,0,0)
(0,0,0)
(0,0,0)
(0,0,0)
(0,0,0)
(0,0,0)
(0,0,0)
(0,0,0)
(0,0,0)
(0,0,0)
(0,0,0)
(0,0,0)
(0,0,0)
(0,0,0)
(0,0,0)
(0,0,0)
(0,0,0)
(0,0,0)
(0,0,0)
(0,0,0)
(0,0,0)
(0,0,0)
(0,0,0)
(0,0,0)
(0,0,0)
(0,0,0)
(0,0,0)
(0,0,0)
(0,0,0)
(0,0,0)
(0,0,0)
(0,0,0)
(0,0,0)
(0,0,0)
(0,0,0)
(0,0,0)
(0,0,0)
(0,0,0)
(0,0,0)
(0,0,0)
(0,0,0)
(0,0,0)
(0,0,0)
(0,0,0)
(0,0,0)
(0,0,0)
(0,0,0)
(0,0,0)
(0,0,0)
(0,0,0)
(0,0,0)
(0,0,0)
(0,0,0)
(0,0,0)
(0,0,0)
(0,0,0)
(0,0,0)
(0,0,0)
(0,0,0)
(0,0,0)
(0,0,0)
(0,0,0)
(0,0,0)
(0,0,0)
(0,0,0)
(0,0,0)
(0,0,0)
(0,0,0)
(0,0,0)
(0,0,0)
(0,0,0)
(0,0,0)
(0,0,0)
(0,0,0)
(0,0,0)
(0,0,0)
(0,0,0)
(0,0,0)
(0,0,0)
(0,0,0)
(0,0,0)
(0,0,0)
(0,0,0)
(0,0,0)
(0,0,0)
(0,0,0)
(0,0,0)
(0,0,0)
(0,0,0)
(0,0,0)
(0,0,0)
(0,0,0)
(0,0,0)
(0,0,0)
(0,0,0)
(0,0,0)
(0,0,0)
(0,0,0)
(0,0,0)
(0,0,0)
(0,0,0)
(0,0,0)
(0,0,0)
(0,0,0)
(0,0,0)
(0,0,0)
(0,0,0)
(0,0,0)
(0,0,0)
(0,0,0)
(0,0,0)
(0,0,0)
(0,0,0)
(0,0,0)
(0,0,0)
(0,0,0)
(0,0,0)
(0,0,0)
(0,0,0)
(0,0,0)
(0,0,0)
(0,0,0)
(0,0,0)
(0,0,0)
(0,0,0)
(0,0,0)
(0,0,0)
(0,0,0)
(0,0,0)
(0,0,0)
(0,0,0)
(0,0,0)
(0,0,0)
(0,0,0)
(0,0,0)
(0,0,0)
(0,0,0)
(0,0,0)
(0,0,0)
(0,0,0)
(0,0,0)
(0,0,0)
(0,0,0)
(0,0,0)
(0,0,0)
(0,0,0)
(0,0,0)
(0,0,0)
(0,0,0)
(0,0,0)
(0,0,0)
(0,0,0)
(0,0,0)
(0,0,0)
(0,0,0)
(0,0,0)
(0,0,0)
(0,0,0)
(0,0,0)
(0,0,0)
(0,0,0)
(0,0,0)
(0,0,0)
(0,0,0)
(0,0,0)
(0,0,0)
(0,0,0)
(0,0,0)
(0,0,0)
(0,0,0)
(0,0,0)
(0,0,0)
(0,0,0)
(0,0,0)
(0,0,0)
(0,0,0)
(0,0,0)
(0,0,0)
(0,0,0)
(0,0,0)
(0,0,0)
(0,0,0)
(0,0,0)
(0,0,0)
(0,0,0)
(0,0,0)
(0,0,0)
(0,0,0)
(0,0,0)
(0,0,0)
(0,0,0)
(0,0,0)
(0,0,0)
(0,0,0)
(0,0,0)
(0,0,0)
(0,0,0)
(0,0,0)
(0,0,0)
(0,0,0)
(0,0,0)
(0,0,0)
(0,0,0)
(0,0,0)
(0,0,0)
(0,0,0)
(0,0,0)
(0,0,0)
(0,0,0)
(0,0,0)
(0,0,0)
(0,0,0)
(0,0,0)
(0,0,0)
(0,0,0)
(0,0,0)
(0,0,0)
(0,0,0)
(0,0,0)
(0,0,0)
(0,0,0)
(0,0,0)
(0,0,0)
(0,0,0)
(0,0,0)
(0,0,0)
(0,0,0)
(0,0,0)
(0,0,0)
(0,0,0)
(0,0,0)
(0,0,0)
(0,0,0)
(0,0,0)
(0,0,0)
(0,0,0)
(0,0,0)
(0,0,0)
(0,0,0)
(0,0,0)
(0,0,0)
(0,0,0)
(0,0,0)
(0,0,0)
(0,0,0)
(0,0,0)
(0,0,0)
(0,0,0)
(0,0,0)
(0,0,0)
(0,0,0)
(0,0,0)
(0,0,0)
(0,0,0)
(0,0,0)
(0,0,0)
(0,0,0)
(0,0,0)
(0,0,0)
(0,0,0)
(0,0,0)
(0,0,0)
(0,0,0)
(0,0,0)
(0,0,0)
(0,0,0)
(0,0,0)
(0,0,0)
(0,0,0)
(0,0,0)
(0,0,0)
(0,0,0)
(0,0,0)
(0,0,0)
(0,0,0)
(0,0,0)
(0,0,0)
(0,0,0)
(0,0,0)
(0,0,0)
(0,0,0)
(0,0,0)
(0,0,0)
(0,0,0)
(0,0,0)
(0,0,0)
(0,0,0)
(0,0,0)
(0,0,0)
(0,0,0)
(0,0,0)
(0,0,0)
(0,0,0)
(0,0,0)
(0,0,0)
(0,0,0)
(0,0,0)
(0,0,0)
(0,0,0)
(0,0,0)
(0,0,0)
(0,0,0)
(0,0,0)
(0,0,0)
(0,0,0)
(0,0,0)
(0,0,0)
(0,0,0)
(0,0,0)
(0,0,0)
(0,0,0)
(0,0,0)
(0,0,0)
(0,0,0)
(0,0,0)
(0,0,0)
(0,0,0)
(0,0,0)
(0,0,0)
(0,0,0)
(0,0,0)
(0,0,0)
(0,0,0)
(0,0,0)
(0,0,0)
(0,0,0)
(0,0,0)
(0,0,0)
(0,0,0)
(0,0,0)
(0,0,0)
(0,0,0)
(0,0,0)
(0,0,0)
(0,0,0)
(0,0,0)
(0,0,0)
(0,0,0)
(0,0,0)
(0,0,0)
(0,0,0)
(0,0,0)
(0,0,0)
(0,0,0)
(0,0,0)
(0,0,0)
(0,0,0)
(0,0,0)
(0,0,0)
(0,0,0)
(0,0,0)
(0,0,0)
(0,0,0)
(0,0,0)
(0,0,0)
(0,0,0)
(0,0,0)
(0,0,0)
(0,0,0)
(0,0,0)
(0,0,0)
(0,0,0)
(0,0,0)
(0,0,0)
(0,0,0)
(0,0,0)
(0,0,0)
(0,0,0)
(0,0,0)
(0,0,0)
(0,0,0)
(0,0,0)
(0,0,0)
(0,0,0)
(0,0,0)
(0,0,0)
(0,0,0)
(0,0,0)
(0,0,0)
(0,0,0)
(0,0,0)
(0,0,0)
(0,0,0)
(0,0,0)
(0,0,0)
(0,0,0)
(0,0,0)
(0,0,0)
(0,0,0)
(0,0,0)
(0,0,0)
(0,0,0)
(0,0,0)
(0,0,0)
(-3868.48880622338,1938.73252446793,1929.75628175454)
(-4089.9854929506,1866.1653129344,4153.57646177003)
(-4639.88081980574,1760.58535229451,7032.87192927775)
(-5766.76567337147,1566.49074933187,11233.146853328)
(-7734.40026285399,1240.63092341055,17726.9161927707)
(-11218.9493817632,854.642577785114,28091.2229967535)
(-17437.6407983675,466.595241283251,45062.2685538608)
(-28688.4993447802,192.013797109606,73558.7541015422)
(-47559.7657852448,71.4659822851804,121047.053904467)
(-66563.9110083714,30.2925924721982,187580.672320445)
(0,0,0)
(0,0,0)
(0,0,0)
(0,0,0)
(0,0,0)
(0,0,0)
(-4138.05449123977,4263.64885073858,1813.13816496742)
(-4399.97050760243,4144.65249756353,3934.62148794313)
(-4972.37567598717,3939.4735929589,6728.10892326295)
(-6098.46701163444,3559.74915716771,10833.3175270621)
(-8106.48793744894,2907.77156356152,17272.6648243571)
(-11649.4220375519,2083.66021461773,27693.0692250648)
(-17938.2213975972,1228.22811411103,44869.6577498258)
(-29142.2041579119,632.380617147047,73571.4950876595)
(-47877.3290621493,346.512247831096,121173.77788431)
(-66702.0223059431,166.985459458704,187739.107323168)
(0,0,0)
(0,0,0)
(0,0,0)
(0,0,0)
(0,0,0)
(0,0,0)
(-4748.42783009335,7420.0953234241,1591.98135740795)
(-5013.49336207957,7270.50681026957,3479.62040678525)
(-5602.10571606051,6951.05260014209,6070.14711566776)
(-6751.39209070312,6399.26809110531,9982.02027243422)
(-8859.92260454784,5444.42860152213,16305.2858390085)
(-12598.8877061239,4168.74313254832,26819.0906272043)
(-19109.8474274561,2758.47959997287,44398.686568812)
(-30223.000531245,1747.31507090408,73506.7526462398)
(-48573.4305986145,1147.72914694682,121278.966345813)
(-67004.9940871506,586.020666564537,187864.925225852)
(0,0,0)
(0,0,0)
(0,0,0)
(0,0,0)
(0,0,0)
(0,0,0)
(-5816.54648375097,11973.3409973967,1263.30080977946)
(-6095.38081823715,11784.9598067833,2844.22863150487)
(-6708.45365644313,11367.4878506248,5136.24703745747)
(-7913.81466527327,10685.4741537263,8763.85564010179)
(-10200.841330757,9532.82420327919,14876.3013691131)
(-14329.9535118185,7951.9609920992,25423.0370213716)
(-21331.2923677981,6029.45223326361,43483.3567558753)
(-32276.9125604203,4421.81795575122,73085.7664314252)
(-49817.219270625,3100.52534380766,120950.189505124)
(-67544.1369490233,1631.5126713162,187448.834449571)
(0,0,0)
(0,0,0)
(0,0,0)
(0,0,0)
(0,0,0)
(0,0,0)
(-7694.93196632806,18715.5512931551,952.721670563165)
(-7986.05691565583,18518.1150662321,2205.62332676881)
(-8608.87763723104,18051.9763500347,4130.01246458834)
(-9860.14114836988,17294.9695692067,7380.65819747903)
(-12329.185245212,16101.9231345036,13140.7445114664)
(-16933.6575721743,14470.0473459637,23556.315729757)
(-24703.8091953393,12273.7537962599,42015.8233620974)
(-35391.8376278214,9849.06920608491,71980.4097396259)
(-51620.1839737995,7030.69003292414,119670.429024419)
(-68331.9352737057,3698.84565492029,185935.031314512)
(0,0,0)
(0,0,0)
(0,0,0)
(0,0,0)
(0,0,0)
(0,0,0)
(-11090.5088154958,29084.9165046285,721.143604028598)
(-11336.2539222136,28867.7341184545,1707.77847401198)
(-11918.7847586248,28391.1405771194,3287.39900555537)
(-13149.6743961183,27612.2668992983,6119.77607157283)
(-15620.6501706251,26437.9237022246,11404.4256744854)
(-20284.6930494605,24728.6123848339,21430.5536850845)
(-28077.7368223805,22127.2079586691,39654.8363450506)
(-38278.9449227169,18511.0067436037,69271.843730261)
(-53623.2751311859,13502.0543057147,116423.754588712)
(-69358.1728914323,7194.78775621249,182285.98537879)
(0,0,0)
(0,0,0)
(0,0,0)
(0,0,0)
(0,0,0)
(0,0,0)
(-17231.5812815989,45762.4091101517,554.088676067769)
(-17463.3555107091,45538.4119452272,1346.76636001118)
(-17993.4676540703,45091.8774481081,2639.49714309354)
(-19110.7710867189,44337.7530828214,5024.78204628818)
(-21372.9211631468,43147.0229967121,9688.60391494715)
(-25734.6961717008,41228.8008529051,18923.1116185877)
(-33045.7410548804,37995.1838475985,36100.8767845532)
(-42366.4312660132,32650.1928515808,64328.1219425859)
(-56712.1119008506,24415.7235532961,110126.564595796)
(-71086.0709481859,13323.7179218138,175083.705378481)
(0,0,0)
(0,0,0)
(0,0,0)
(0,0,0)
(0,0,0)
(0,0,0)
(-28502.6503297571,73848.5688062873,416.490633618484)
(-28685.1518215246,73617.3090722617,1022.74532812147)
(-29128.0814676955,73185.000967021,2057.70327692732)
(-30060.7701262506,72440.5908944154,4015.63559156787)
(-31919.4997959033,71142.7308832182,7939.42750096532)
(-35533.6622205117,68816.299260959,15885.5913134098)
(-41648.6583901452,64581.5055678412,30947.9279832689)
(-49254.5579953527,56682.5365359826,56170.1422942411)
(-62333.8352691563,43908.7645667793,99010.9365499088)
(-74333.1998950228,24948.2365228718,161719.617843831)
(0,0,0)
(0,0,0)
(0,0,0)
(0,0,0)
(0,0,0)
(0,0,0)
(-47461.3540926579,121015.704454581,294.21844435999)
(-47591.5813805241,120771.427607706,731.681289432835)
(-47906.2572325173,120329.041890576,1493.89759833489)
(-48539.8188017381,119504.336009787,2969.97128468571)
(-49761.77496791,117934.070850736,5940.406285082)
(-52095.0042898613,114944.237248851,11907.4725870606)
(-56114.391459901,109352.346210786,23251.023404024)
(-62195.1108728213,98732.6010021446,43396.0698107139)
(-72686.6723373607,79991.4918169939,80000.0148977464)
(-80008.6974955267,48194.3686734038,136762.580242755)
(0,0,0)
(0,0,0)
(0,0,0)
(0,0,0)
(0,0,0)
(0,0,0)
(-66509.8485292251,187352.251618369,173.301365429005)
(-66580.3425143872,187108.168584158,416.902903360479)
(-66745.6233329148,186675.652759253,815.915367623541)
(-67055.3659460663,185765.216941297,1610.40038222463)
(-67635.4255638263,183945.425185653,3234.4716111432)
(-68758.0640135524,180471.578549115,6465.1943243912)
(-70772.1077281849,173877.984430827,12711.6638325099)
(-74218.16336724,161064.157800243,24598.2704016325)
(-79982.2845083254,136475.671629049,48096.3750978399)
(-80636.3621643235,88434.2716820458,88492.8342535748)
(0,0,0)
(0,0,0)
(0,0,0)
(0,0,0)
(0,0,0)
(0,0,0)
(0,0,0)
(0,0,0)
(0,0,0)
(0,0,0)
(0,0,0)
(0,0,0)
(0,0,0)
(0,0,0)
(0,0,0)
(0,0,0)
(0,0,0)
(0,0,0)
(0,0,0)
(0,0,0)
(0,0,0)
(0,0,0)
(0,0,0)
(0,0,0)
(0,0,0)
(0,0,0)
(0,0,0)
(0,0,0)
(0,0,0)
(0,0,0)
(0,0,0)
(0,0,0)
(0,0,0)
(0,0,0)
(0,0,0)
(0,0,0)
(0,0,0)
(0,0,0)
(0,0,0)
(0,0,0)
(0,0,0)
(0,0,0)
(0,0,0)
(0,0,0)
(0,0,0)
(0,0,0)
(0,0,0)
(0,0,0)
(0,0,0)
(0,0,0)
(0,0,0)
(0,0,0)
(0,0,0)
(0,0,0)
(0,0,0)
(0,0,0)
(0,0,0)
(0,0,0)
(0,0,0)
(0,0,0)
(0,0,0)
(0,0,0)
(0,0,0)
(0,0,0)
(0,0,0)
(0,0,0)
(0,0,0)
(0,0,0)
(0,0,0)
(0,0,0)
(0,0,0)
(0,0,0)
(0,0,0)
(0,0,0)
(0,0,0)
(0,0,0)
(0,0,0)
(0,0,0)
(0,0,0)
(0,0,0)
(0,0,0)
(0,0,0)
(0,0,0)
(0,0,0)
(0,0,0)
(0,0,0)
(0,0,0)
(0,0,0)
(0,0,0)
(0,0,0)
(0,0,0)
(0,0,0)
(0,0,0)
(0,0,0)
(0,0,0)
(0,0,0)
(0,0,0)
(0,0,0)
(0,0,0)
(0,0,0)
(0,0,0)
(0,0,0)
(627723.64760997,1713.40860166355,1657.58829115631)
(627322.602820197,1660.10990359143,3548.02338356572)
(626389.957651347,1541.47262080434,5939.84560055191)
(624553.54468051,1291.1329363599,9291.53561930323)
(621358.39715177,898.58178968851,14263.28972396)
(615737.345499156,438.996424549259,21831.1317274579)
(605560.263213302,-7.32157546118897,33803.6826001368)
(585477.59597772,-242.221485585967,54842.942072254)
(539984.703381373,-222.684063607373,102484.290278299)
(416217.23603044,-124.722387704249,254790.99893627)
(0,0,0)
(0,0,0)
(0,0,0)
(0,0,0)
(0,0,0)
(0,0,0)
(627226.889194747,3759.50121338386,1552.09701135204)
(626797.443145177,3657.17600521739,3320.75056603352)
(625836.832294221,3416.86849047799,5599.28003520145)
(623996.330141108,2929.63514200429,8829.11398589014)
(620727.531010034,2135.88478746889,13720.9253497039)
(614997.60075323,1103.29121184766,21372.7410806763)
(604686.143740837,47.1638798457252,33657.0237960734)
(584698.095496836,-445.113782597981,54982.7497473191)
(539493.05612928,-349.393143714869,102702.206944954)
(416001.47277636,-162.135718755829,254999.258502582)
(0,0,0)
(0,0,0)
(0,0,0)
(0,0,0)
(0,0,0)
(0,0,0)
(626180.503169397,6454.49748821299,1339.20603458783)
(625750.199277308,6327.56341418092,2868.25929523319)
(624776.513501793,5963.69357532366,4905.94830161347)
(622903.885041665,5281.59381946718,7861.84580095385)
(619448.032050744,4104.65629666298,12548.2529455268)
(613301.062009298,2419.59172003552,20295.1360310264)
(602418.622367414,511.895795397966,33265.0676296761)
(582623.509977169,-323.999261278955,55260.5759090813)
(538295.544655976,-109.365028076431,103114.705847712)
(415509.588955512,43.1930149108784,255357.927380515)
(0,0,0)
(0,0,0)
(0,0,0)
(0,0,0)
(0,0,0)
(0,0,0)
(624379.723746295,10192.7059731173,1028.6545940404)
(623954.992643749,10024.8901530607,2244.08770222983)
(622969.191347774,9572.08077970915,3921.1888026696)
(621013.901771032,8789.480566595,6448.71892833151)
(617203.041271038,7409.13636793864,10703.4895643636)
(610051.08794118,5312.19138677108,18392.9817536562)
(597426.473853006,2602.57951776099,32507.6651195952)
(577977.446987696,1252.77449651857,55639.6651228239)
(535931.63670548,1266.9751928788,103477.602234664)
(414617.926899184,851.775857589779,255470.088853022)
(0,0,0)
(0,0,0)
(0,0,0)
(0,0,0)
(0,0,0)
(0,0,0)
(621275.044078018,15465.4522093963,720.41102840376)
(620855.164679845,15263.9700161319,1603.24287883896)
(619881.007004862,14787.7466523352,2860.82567329006)
(617863.730158148,14020.7666063917,4868.80163595)
(613651.997842157,12788.6562544117,8471.2319712786)
(605002.616302132,11048.7807491777,15761.5020437193)
(588445.496225916,8856.73380276836,31321.1756465398)
(569337.105018795,6925.72931431835,55882.4114912243)
(532206.516100772,5022.84619374988,103262.973724696)
(413268.288425144,2705.66762664867,254771.991565714)
(0,0,0)
(0,0,0)
(0,0,0)
(0,0,0)
(0,0,0)
(0,0,0)
(615817.249451705,22999.0647490783,521.76250205897)
(615453.894835265,22797.6932815075,1161.02378821798)
(614553.313635719,22373.0723566413,2066.732998636)
(612597.813719045,21683.319031403,3619.82576765819)
(608377.62500043,20674.8485391503,6698.49162090325)
(599521.24527157,19226.3207191586,13678.1466388731)
(582787.191697028,17134.6463423554,29498.4388889926)
(564553.674202374,14448.2817760676,54106.4006111802)
(528951.874501631,10489.5331731094,101027.697308085)
(411643.412414424,5554.33019453905,252140.582743265)
(0,0,0)
(0,0,0)
(0,0,0)
(0,0,0)
(0,0,0)
(0,0,0)
(605788.95818055,34554.1297521722,387.528843797176)
(605452.552883069,34368.8066901214,863.6403504291)
(604648.30402303,34025.1238964291,1532.95044265525)
(602890.430238276,33457.7915362528,2720.40992179592)
(598997.14566595,32680.2592173605,5308.06572354005)
(590564.580050678,31513.4517405243,11684.7917887387)
(574383.839591593,29476.3291568549,26876.6616367322)
(557836.053633416,25885.9884573546,50199.6033650757)
(523939.492426985,18897.6227378416,96103.0427814229)
(408777.483079017,10137.8293186353,246619.122939222)
(0,0,0)
(0,0,0)
(0,0,0)
(0,0,0)
(0,0,0)
(0,0,0)
(585699.432336708,55034.7852764885,280.395118292712)
(585414.867342808,54873.7285308963,638.587422189493)
(584752.039266173,54583.0283566374,1163.69553718051)
(583315.521047458,54094.0856809852,2114.24352774262)
(580123.765015164,53424.361710466,4290.00953250018)
(573018.4500631,52406.1625105388,9808.31978804051)
(558919.942418693,50261.3173630883,23417.8640820344)
(547846.753653408,43918.6259767674,43247.048222745)
(513760.560682661,33707.8321179555,87305.5761998557)
(402223.221210534,19358.1158673577,236492.001854573)
(0,0,0)
(0,0,0)
(0,0,0)
(0,0,0)
(0,0,0)
(0,0,0)
(540072.39707752,102260.826340571,203.341074850156)
(539861.744989837,102108.457827168,478.418717300817)
(539406.652057255,101806.122480846,905.548612323769)
(538462.634351698,101249.527569935,1710.78687892929)
(536471.495819449,100318.313589959,3546.69752105221)
(532368.427638256,98570.7583656692,7881.80304697021)
(524817.426844771,94964.4457127946,17209.9897017316)
(513887.876933437,86984.3469732866,33024.4142080655)
(483192.716622603,72924.3112122522,72891.6794628821)
(382373.125295166,47695.2933966685,217135.81245193)
(0,0,0)
(0,0,0)
(0,0,0)
(0,0,0)
(0,0,0)
(0,0,0)
(416242.861390311,254355.140840931,116.108889078863)
(416118.860632769,254210.899807705,277.597070324209)
(415885.03268087,253895.152010121,521.044836348417)
(415430.446262961,253254.666656052,993.226850378005)
(414515.023511514,252057.570095681,2066.65457844029)
(412678.117903232,249725.328159847,4439.03617659333)
(409161.86576669,245144.117380491,9288.52432310428)
(402307.696063517,235779.212751788,18930.9324230513)
(382374.194451781,216872.589221123,47589.3087631814)
(310882.950881354,169342.880830567,169385.541592638)
(0,0,0)
(0,0,0)
(0,0,0)
(0,0,0)
(0,0,0)
(0,0,0)
(0,0,0)
(0,0,0)
(0,0,0)
(0,0,0)
(0,0,0)
(0,0,0)
(0,0,0)
(0,0,0)
(0,0,0)
(0,0,0)
(0,0,0)
(0,0,0)
(0,0,0)
(0,0,0)
(0,0,0)
(0,0,0)
(0,0,0)
(0,0,0)
(0,0,0)
(0,0,0)
(0,0,0)
(0,0,0)
(0,0,0)
(0,0,0)
(0,0,0)
(0,0,0)
(0,0,0)
(0,0,0)
(0,0,0)
(0,0,0)
(0,0,0)
(0,0,0)
(0,0,0)
(0,0,0)
(0,0,0)
(0,0,0)
(0,0,0)
(0,0,0)
(0,0,0)
(0,0,0)
(0,0,0)
(0,0,0)
(0,0,0)
(0,0,0)
(0,0,0)
(0,0,0)
(0,0,0)
(0,0,0)
(0,0,0)
(0,0,0)
(0,0,0)
(0,0,0)
(0,0,0)
(0,0,0)
(0,0,0)
(0,0,0)
(0,0,0)
(0,0,0)
(0,0,0)
(0,0,0)
(0,0,0)
(0,0,0)
(0,0,0)
(0,0,0)
(0,0,0)
(0,0,0)
(0,0,0)
(0,0,0)
(0,0,0)
(0,0,0)
(0,0,0)
(0,0,0)
(0,0,0)
(0,0,0)
(0,0,0)
(0,0,0)
(0,0,0)
(0,0,0)
(0,0,0)
(0,0,0)
(0,0,0)
(0,0,0)
(0,0,0)
(0,0,0)
(0,0,0)
(0,0,0)
(0,0,0)
(0,0,0)
(0,0,0)
(0,0,0)
(0,0,0)
(0,0,0)
(0,0,0)
(0,0,0)
(0,0,0)
(0,0,0)
(-9844.89626338273,1397.62646131087,1207.78410302961)
(-10324.9572716679,1343.73885222727,2548.47203351546)
(-11340.3804580425,1203.80373868634,4111.87309527818)
(-13285.6309511508,887.891411340082,6100.02400660281)
(-16589.1593596726,398.270430899172,8686.17677818676)
(-21996.2423458435,-209.440687260968,11666.0720014697)
(-30683.5482168948,-820.245321643094,13766.9954443866)
(-44362.7289040611,-982.144953719442,9626.3319708436)
(-64087.734343012,-681.289899872398,-20583.073713935)
(-78940.0574951413,-333.183954306245,-160055.729543042)
(0,0,0)
(0,0,0)
(0,0,0)
(0,0,0)
(0,0,0)
(0,0,0)
(-10444.461451556,2983.90949788284,1121.93430066849)
(-10911.9005704398,2884.74564372562,2327.13791569894)
(-11934.1773512699,2595.25259735646,3743.5653934687)
(-13861.4295460926,1965.94947492433,5560.1337080123)
(-17198.4764568356,930.334936502563,7990.94336021706)
(-22697.7017137522,-558.589202463002,11072.2610333459)
(-31544.7885369958,-2199.02020316406,13718.8348835791)
(-45071.1886292813,-2494.81205506635,10037.6528020222)
(-64439.7468640221,-1532.74005602453,-20141.2273574583)
(-79074.3040698646,-661.36246041896,-159700.405314012)
(0,0,0)
(0,0,0)
(0,0,0)
(0,0,0)
(0,0,0)
(0,0,0)
(-11614.4233600884,4902.15037987458,913.552338587064)
(-12059.6996923453,4772.66478405822,1872.39885890767)
(-13057.1660931675,4343.48845471256,2994.7092874288)
(-14952.0040498332,3464.64145824538,4388.77308644452)
(-18422.7821298379,1857.85462234356,6368.93427211649)
(-24429.1501672239,-860.475253531717,9437.899190598)
(-34307.3766321581,-4519.99131189474,13521.7359898248)
(-47451.41714535,-5001.18973599072,11139.9074841465)
(-65456.7143741213,-2502.27359099862,-19101.4332596352)
(-79404.5783084686,-886.634885422885,-158925.126879782)
(0,0,0)
(0,0,0)
(0,0,0)
(0,0,0)
(0,0,0)
(0,0,0)
(-13601.8495862895,7308.08160052106,612.508802941516)
(-14007.9509904558,7133.72341235533,1251.26049979533)
(-14970.0633918532,6642.16227451476,1928.70811057325)
(-16872.4781596286,5703.50733976348,2613.08885061891)
(-20655.2900370492,3840.203540336,3525.9379316212)
(-28224.8987584566,172.697834448341,5805.61823427462)
(-42902.4692640742,-6480.21808528332,13131.6548156274)
(-55200.0935741806,-7456.98844785208,13801.8607802343)
(-67952.3570948414,-2488.60146052128,-17290.9508588355)
(-80062.2320073001,-524.227157803805,-157936.332989137)
(0,0,0)
(0,0,0)
(0,0,0)
(0,0,0)
(0,0,0)
(0,0,0)
(-16870.8424819469,10176.8135363661,314.021315087521)
(-17232.1318629113,9968.0531913262,603.854769860927)
(-18124.13074284,9517.15201992711,770.869462974808)
(-19987.7222529589,8758.06847239245,604.627432480189)
(-24133.9213766617,7474.37111764158,-206.75423517324)
(-34713.5961051941,5467.86824318606,-748.845545727848)
(-69193.2365730035,3123.6359189446,12322.8999398474)
(-81891.1484086414,2130.96194862257,19000.0696617498)
(-72936.4756754462,1799.91506075996,-15108.5883922378)
(-81170.2356852046,1123.42730108456,-157280.852049762)
(0,0,0)
(0,0,0)
(0,0,0)
(0,0,0)
(0,0,0)
(0,0,0)
(-22165.9292619933,13043.29398708,153.564954046773)
(-22460.9096698906,12869.5128136124,203.776527913874)
(-23229.8192937535,12532.5299951259,8.39817311480791)
(-24924.574747612,12011.7724338483,-686.050630876768)
(-28904.7349093964,11304.0230591789,-2196.47597161857)
(-39408.5770588857,10252.798247074,-3014.71695402699)
(-72125.1742564463,8741.93698123291,11316.2146280224)
(-83546.232651836,7831.4610352841,18752.4890864792)
(-75371.4247657645,5617.80873656004,-15705.2386310779)
(-82389.3524032884,2803.20498891736,-158315.384810097)
(0,0,0)
(0,0,0)
(0,0,0)
(0,0,0)
(0,0,0)
(0,0,0)
(-30764.8751878973,14554.4279975596,79.566048912065)
(-31019.7098784795,14435.6351223615,22.5731926879589)
(-31671.8865861687,14231.1587031666,-318.998215287826)
(-33114.7416419418,14001.2764992853,-1266.46370948663)
(-36710.4028012858,13939.9844235741,-3158.00991569205)
(-46931.519758772,14093.5533077987,-4465.79847589991)
(-80873.7616255454,14143.8263502377,10426.7800632805)
(-91554.4267001151,16106.1193202219,16579.4688028596)
(-79220.7057664657,8886.11279241464,-18491.7703683928)
(-84492.396215646,3669.86467171092,-161051.68406563)
(0,0,0)
(0,0,0)
(0,0,0)
(0,0,0)
(0,0,0)
(0,0,0)
(-44473.9429041505,9714.26098998973,50.4089393574431)
(-44694.3262197673,9643.94800488983,-11.8436895964903)
(-45214.7584408634,9547.21654344704,-324.237131913193)
(-46346.0457706522,9544.48951831032,-1169.01664184194)
(-49290.4404615143,10090.5940697366,-2868.55412025299)
(-58560.6492692999,12095.903480337,-4254.93826953919)
(-95146.9796170369,16512.117308979,12480.5594983867)
(-78283.5025212591,10341.6320454762,9412.16963883137)
(-82668.0785201938,3462.11709996963,-23698.3287748318)
(-87790.1123356414,-327.230419321912,-164651.033446538)
(0,0,0)
(0,0,0)
(0,0,0)
(0,0,0)
(0,0,0)
(0,0,0)
(-64263.5338781908,-20977.9554216598,65.0140582500491)
(-64423.6063557277,-21038.0438168462,69.2239164703742)
(-64762.5667659402,-21129.191808352,-48.2822175359238)
(-65464.2871041657,-21201.5923027792,-338.41224958376)
(-67078.8718249712,-21046.4872229792,-614.0966214259)
(-70979.8898419201,-20514.0729277925,381.063957703448)
(-79568.9145917778,-20100.241071192,6416.63046532817)
(-82860.4944041214,-24005.578151893,2549.07869114255)
(-90884.5886918429,-27370.0770747051,-27504.5551287718)
(-92655.4791582296,-23481.7923084805,-164284.522095298)
(0,0,0)
(0,0,0)
(0,0,0)
(0,0,0)
(0,0,0)
(0,0,0)
(-79082.212235024,-160656.675159142,40.6600537870061)
(-79182.6805737309,-160730.340469584,71.364603937676)
(-79354.520804246,-160845.12242321,63.7153948934169)
(-79683.0569468802,-161025.61988873,38.1128815239427)
(-80368.2021738433,-161267.67520324,179.393238090079)
(-81829.8745543911,-161749.484203016,959.66366180862)
(-84621.3075672286,-162846.542156883,2526.00477235334)
(-87902.951557087,-165381.320667183,-850.73840097101)
(-92696.1493508967,-164481.552974431,-23632.0520076674)
(-89601.7836577725,-140802.380007385,-140789.863078769)
(0,0,0)
(0,0,0)
(0,0,0)
(0,0,0)
(0,0,0)
(0,0,0)
(0,0,0)
(0,0,0)
(0,0,0)
(0,0,0)
(0,0,0)
(0,0,0)
(0,0,0)
(0,0,0)
(0,0,0)
(0,0,0)
(0,0,0)
(0,0,0)
(0,0,0)
(0,0,0)
(0,0,0)
(0,0,0)
(0,0,0)
(0,0,0)
(0,0,0)
(0,0,0)
(0,0,0)
(0,0,0)
(0,0,0)
(0,0,0)
(0,0,0)
(0,0,0)
(0,0,0)
(0,0,0)
(0,0,0)
(0,0,0)
(0,0,0)
(0,0,0)
(0,0,0)
(0,0,0)
(0,0,0)
(0,0,0)
(0,0,0)
(0,0,0)
(0,0,0)
(0,0,0)
(0,0,0)
(0,0,0)
(0,0,0)
(0,0,0)
(0,0,0)
(0,0,0)
(0,0,0)
(0,0,0)
(0,0,0)
(0,0,0)
(0,0,0)
(0,0,0)
(0,0,0)
(0,0,0)
(0,0,0)
(0,0,0)
(0,0,0)
(0,0,0)
(0,0,0)
(0,0,0)
(0,0,0)
(0,0,0)
(0,0,0)
(0,0,0)
(0,0,0)
(0,0,0)
(0,0,0)
(0,0,0)
(0,0,0)
(0,0,0)
(0,0,0)
(0,0,0)
(0,0,0)
(0,0,0)
(0,0,0)
(0,0,0)
(0,0,0)
(0,0,0)
(0,0,0)
(0,0,0)
(0,0,0)
(0,0,0)
(0,0,0)
(0,0,0)
(0,0,0)
(0,0,0)
(0,0,0)
(0,0,0)
(0,0,0)
(0,0,0)
(0,0,0)
(0,0,0)
(0,0,0)
(0,0,0)
(0,0,0)
(0,0,0)
(-11572.1584307555,1010.73018321233,716.531984159929)
(-11988.433004169,931.967806001026,1448.03991066416)
(-12846.7526493739,785.774144723316,2168.63795727412)
(-14452.4394904822,464.792287109258,2870.65420949304)
(-17000.8212853136,-99.4991655824825,3381.81530071543)
(-20807.4106009713,-853.748314332782,3046.73187017605)
(-26144.4218836813,-1651.34860130561,158.954138268421)
(-32677.9677570136,-1682.90115301348,-9842.90585576389)
(-37976.7513108279,-1035.82866041202,-34918.0602275003)
(-33152.1614957824,-450.801089018618,-80255.1551378175)
(0,0,0)
(0,0,0)
(0,0,0)
(0,0,0)
(0,0,0)
(0,0,0)
(-12130.9945236903,2065.99399479287,631.269260551943)
(-12524.6570760238,1928.38055118161,1247.61302095713)
(-13341.930221062,1622.65165442089,1818.48838105577)
(-14834.6946943323,957.902073543733,2298.64374285484)
(-17259.6633625445,-279.720484353946,2540.05196732958)
(-20931.8449030722,-2327.37228653125,2247.81912885297)
(-26203.5964604732,-4997.60554909792,252.884000123875)
(-32523.758315121,-4903.50928106231,-9073.93818598585)
(-37728.2602516442,-2573.59687039635,-34247.6565883624)
(-33000.942896916,-972.053520395372,-79799.7653300149)
(0,0,0)
(0,0,0)
(0,0,0)
(0,0,0)
(0,0,0)
(0,0,0)
(-13166.4731948306,3172.00205445903,446.041775081634)
(-13524.7798227019,2999.29278155927,840.209675059191)
(-14241.5270077578,2561.09727151536,1086.12497255303)
(-15520.1406470812,1616.36050963387,995.803133711143)
(-17702.8507093018,-401.721696269848,397.872925089504)
(-21211.3660283157,-4745.83440258542,-401.449097780692)
(-26974.9638959364,-13207.7140261663,476.246643066179)
(-32402.0645537786,-12857.1693343407,-6619.44589524428)
(-37037.4529735338,-5076.09117044667,-32536.2129957773)
(-32600.3056085795,-1564.07619899537,-78748.4630170863)
(0,0,0)
(0,0,0)
(0,0,0)
(0,0,0)
(0,0,0)
(0,0,0)
(-14905.0623723741,4279.71857728224,195.496263270105)
(-15191.9151237434,4080.76298255375,297.99019556805)
(-15774.4761222719,3617.91356875089,45.5866287558737)
(-16772.1309648889,2649.9621244054,-1088.36218075464)
(-18483.4291758077,319.127099830546,-3981.07183809428)
(-21720.3376223857,-6447.79034556486,-8783.67703119238)
(-32998.3625962319,-32907.3307234938,1011.83299828963)
(-34134.4613853902,-34254.8453664549,1343.87684160522)
(-35302.8074440109,-7525.059857035,-28856.7041226505)
(-31748.9473871821,-1643.53334887199,-77090.5315929546)
(0,0,0)
(0,0,0)
(0,0,0)
(0,0,0)
(0,0,0)
(0,0,0)
(-17612.3102908444,5083.95741500547,-62.7710288259721)
(-17819.71660059,4881.1564784173,-275.579787008819)
(-18219.4939468711,4510.89000532452,-1073.19301954391)
(-18786.6599101802,3864.36201560101,-3488.65525351699)
(-19261.7979683188,2676.71292092066,-10718.3644829563)
(-17449.385192344,663.813972127165,-35094.1797135058)
(-2.17914618035894e-05,-4.46598224172866e-06,1.31126545376591e-05)