/*--------------------------------*- C++ -*----------------------------------*\
| =========                 |                                                 |
| \\      /  F ield         | foam-extend: Open Source CFD                    |
|  \\    /   O peration     | Version:     4.0                                |
|   \\  /    A nd           | Web:         http://www.foam-extend.org         |
|    \\/     M anipulation  |                                                 |
\*---------------------------------------------------------------------------*/
FoamFile
{
    version 2.0;
    format ascii;
    class volVectorField;
    location "3161";
    object      H;
}
// * * * * * * * * * * * * * * * * * * * * * * * * * * * * * * * * * * * * * //

dimensions      [0 1 -1 0 0 0 0];

internalField   nonuniform List<vector>
4096
(
(0,0,0)
(0,0,0)
(0,0,0)
(0,0,0)
(0,0,0)
(0,0,0)
(0,0,0)
(0,0,0)
(0,0,0)
(0,0,0)
(0,0,0)
(0,0,0)
(0,0,0)
(0,0,0)
(0,0,0)
(0,0,0)
(0,0,0)
(0,0,0)
(0,0,0)
(0,0,0)
(0,0,0)
(0,0,0)
(0,0,0)
(0,0,0)
(0,0,0)
(0,0,0)
(0,0,0)
(0,0,0)
(0,0,0)
(0,0,0)
(0,0,0)
(0,0,0)
(0,0,0)
(0,0,0)
(0,0,0)
(0,0,0)
(0,0,0)
(0,0,0)
(0,0,0)
(0,0,0)
(0,0,0)
(0,0,0)
(0,0,0)
(0,0,0)
(0,0,0)
(0,0,0)
(0,0,0)
(0,0,0)
(0,0,0)
(0,0,0)
(0,0,0)
(0,0,0)
(0,0,0)
(0,0,0)
(0,0,0)
(0,0,0)
(0,0,0)
(0,0,0)
(0,0,0)
(0,0,0)
(0,0,0)
(0,0,0)
(0,0,0)
(0,0,0)
(0,0,0)
(0,0,0)
(0,0,0)
(0,0,0)
(0,0,0)
(0,0,0)
(0,0,0)
(0,0,0)
(0,0,0)
(0,0,0)
(0,0,0)
(0,0,0)
(0,0,0)
(0,0,0)
(0,0,0)
(0,0,0)
(0,0,0)
(0,0,0)
(0,0,0)
(0,0,0)
(0,0,0)
(0,0,0)
(0,0,0)
(0,0,0)
(0,0,0)
(0,0,0)
(0,0,0)
(0,0,0)
(0,0,0)
(0,0,0)
(0,0,0)
(0,0,0)
(0,0,0)
(0,0,0)
(0,0,0)
(0,0,0)
(0,0,0)
(0,0,0)
(0,0,0)
(0,0,0)
(0,0,0)
(0,0,0)
(0,0,0)
(0,0,0)
(0,0,0)
(0,0,0)
(0,0,0)
(0,0,0)
(0,0,0)
(0,0,0)
(0,0,0)
(0,0,0)
(0,0,0)
(0,0,0)
(0,0,0)
(0,0,0)
(0,0,0)
(0,0,0)
(0,0,0)
(0,0,0)
(0,0,0)
(0,0,0)
(0,0,0)
(0,0,0)
(0,0,0)
(0,0,0)
(0,0,0)
(0,0,0)
(0,0,0)
(0,0,0)
(0,0,0)
(0,0,0)
(0,0,0)
(0,0,0)
(0,0,0)
(0,0,0)
(0,0,0)
(0,0,0)
(0,0,0)
(0,0,0)
(0,0,0)
(0,0,0)
(0,0,0)
(0,0,0)
(0,0,0)
(0,0,0)
(0,0,0)
(0,0,0)
(0,0,0)
(0,0,0)
(0,0,0)
(0,0,0)
(0,0,0)
(0,0,0)
(0,0,0)
(0,0,0)
(0,0,0)
(0,0,0)
(0,0,0)
(0,0,0)
(0,0,0)
(0,0,0)
(0,0,0)
(0,0,0)
(0,0,0)
(0,0,0)
(0,0,0)
(0,0,0)
(0,0,0)
(0,0,0)
(0,0,0)
(0,0,0)
(0,0,0)
(0,0,0)
(0,0,0)
(0,0,0)
(0,0,0)
(0,0,0)
(0,0,0)
(0,0,0)
(0,0,0)
(0,0,0)
(0,0,0)
(0,0,0)
(0,0,0)
(0,0,0)
(0,0,0)
(0,0,0)
(0,0,0)
(0,0,0)
(0,0,0)
(0,0,0)
(0,0,0)
(0,0,0)
(0,0,0)
(0,0,0)
(0,0,0)
(0,0,0)
(0,0,0)
(0,0,0)
(0,0,0)
(0,0,0)
(0,0,0)
(0,0,0)
(0,0,0)
(0,0,0)
(0,0,0)
(0,0,0)
(0,0,0)
(0,0,0)
(0,0,0)
(0,0,0)
(0,0,0)
(0,0,0)
(0,0,0)
(0,0,0)
(0,0,0)
(0,0,0)
(0,0,0)
(0,0,0)
(0,0,0)
(0,0,0)
(0,0,0)
(0,0,0)
(0,0,0)
(0,0,0)
(0,0,0)
(0,0,0)
(0,0,0)
(0,0,0)
(0,0,0)
(0,0,0)
(0,0,0)
(0,0,0)
(0,0,0)
(0,0,0)
(0,0,0)
(0,0,0)
(0,0,0)
(0,0,0)
(0,0,0)
(0,0,0)
(0,0,0)
(0,0,0)
(0,0,0)
(0,0,0)
(0,0,0)
(0,0,0)
(0,0,0)
(0,0,0)
(0,0,0)
(0,0,0)
(0,0,0)
(0,0,0)
(0,0,0)
(0,0,0)
(0,0,0)
(0,0,0)
(0,0,0)
(0,0,0)
(0,0,0)
(0,0,0)
(0,0,0)
(0,0,0)
(0,0,0)
(0,0,0)
(0,0,0)
(0,0,0)
(0,0,0)
(0,0,0)
(0,0,0)
(0,0,0)
(0,0,0)
(0,0,0)
(0,0,0)
(0,0,0)
(0,0,0)
(0,0,0)
(0,0,0)
(0,0,0)
(0,0,0)
(0,0,0)
(0,0,0)
(0,0,0)
(0,0,0)
(0,0,0)
(0,0,0)
(0,0,0)
(0,0,0)
(0,0,0)
(0,0,0)
(0,0,0)
(0,0,0)
(0,0,0)
(0,0,0)
(0,0,0)
(0,0,0)
(0,0,0)
(0,0,0)
(0,0,0)
(0,0,0)
(0,0,0)
(0,0,0)
(0,0,0)
(0,0,0)
(0,0,0)
(0,0,0)
(0,0,0)
(0,0,0)
(0,0,0)
(0,0,0)
(0,0,0)
(0,0,0)
(0,0,0)
(0,0,0)
(0,0,0)
(0,0,0)
(0,0,0)
(0,0,0)
(0,0,0)
(0,0,0)
(0,0,0)
(0,0,0)
(0,0,0)
(0,0,0)
(0,0,0)
(0,0,0)
(0,0,0)
(0,0,0)
(0,0,0)
(0,0,0)
(0,0,0)
(0,0,0)
(0,0,0)
(0,0,0)
(0,0,0)
(0,0,0)
(0,0,0)
(0,0,0)
(0,0,0)
(0,0,0)
(0,0,0)
(0,0,0)
(0,0,0)
(0,0,0)
(0,0,0)
(0,0,0)
(0,0,0)
(0,0,0)
(0,0,0)
(0,0,0)
(0,0,0)
(0,0,0)
(0,0,0)
(0,0,0)
(0,0,0)
(0,0,0)
(0,0,0)
(0,0,0)
(0,0,0)
(0,0,0)
(0,0,0)
(0,0,0)
(0,0,0)
(0,0,0)
(0,0,0)
(0,0,0)
(0,0,0)
(0,0,0)
(0,0,0)
(0,0,0)
(0,0,0)
(0,0,0)
(0,0,0)
(0,0,0)
(0,0,0)
(0,0,0)
(0,0,0)
(0,0,0)
(0,0,0)
(0,0,0)
(0,0,0)
(0,0,0)
(0,0,0)
(0,0,0)
(0,0,0)
(0,0,0)
(0,0,0)
(0,0,0)
(0,0,0)
(0,0,0)
(0,0,0)
(0,0,0)
(0,0,0)
(0,0,0)
(0,0,0)
(0,0,0)
(0,0,0)
(0,0,0)
(0,0,0)
(0,0,0)
(0,0,0)
(0,0,0)
(0,0,0)
(0,0,0)
(0,0,0)
(0,0,0)
(0,0,0)
(0,0,0)
(0,0,0)
(0,0,0)
(0,0,0)
(0,0,0)
(0,0,0)
(0,0,0)
(0,0,0)
(0,0,0)
(0,0,0)
(0,0,0)
(0,0,0)
(0,0,0)
(0,0,0)
(0,0,0)
(0,0,0)
(0,0,0)
(0,0,0)
(0,0,0)
(0,0,0)
(0,0,0)
(0,0,0)
(0,0,0)
(0,0,0)
(0,0,0)
(0,0,0)
(0,0,0)
(0,0,0)
(0,0,0)
(0,0,0)
(0,0,0)
(0,0,0)
(0,0,0)
(0,0,0)
(0,0,0)
(0,0,0)
(0,0,0)
(0,0,0)
(0,0,0)
(0,0,0)
(0,0,0)
(0,0,0)
(0,0,0)
(0,0,0)
(0,0,0)
(0,0,0)
(0,0,0)
(0,0,0)
(0,0,0)
(0,0,0)
(0,0,0)
(0,0,0)
(0,0,0)
(0,0,0)
(0,0,0)
(0,0,0)
(0,0,0)
(0,0,0)
(0,0,0)
(0,0,0)
(0,0,0)
(0,0,0)
(0,0,0)
(0,0,0)
(0,0,0)
(0,0,0)
(0,0,0)
(0,0,0)
(0,0,0)
(0,0,0)
(0,0,0)
(0,0,0)
(0,0,0)
(0,0,0)
(0,0,0)
(0,0,0)
(0,0,0)
(0,0,0)
(0,0,0)
(0,0,0)
(0,0,0)
(0,0,0)
(0,0,0)
(0,0,0)
(0,0,0)
(0,0,0)
(0,0,0)
(0,0,0)
(0,0,0)
(0,0,0)
(0,0,0)
(0,0,0)
(0,0,0)
(0,0,0)
(0,0,0)
(0,0,0)
(0,0,0)
(0,0,0)
(0,0,0)
(0,0,0)
(0,0,0)
(0,0,0)
(0,0,0)
(0,0,0)
(0,0,0)
(0,0,0)
(0,0,0)
(0,0,0)
(0,0,0)
(0,0,0)
(0,0,0)
(0,0,0)
(0,0,0)
(0,0,0)
(0,0,0)
(0,0,0)
(0,0,0)
(0,0,0)
(0,0,0)
(0,0,0)
(0,0,0)
(0,0,0)
(0,0,0)
(0,0,0)
(0,0,0)
(0,0,0)
(0,0,0)
(0,0,0)
(0,0,0)
(0,0,0)
(0,0,0)
(0,0,0)
(0,0,0)
(0,0,0)
(0,0,0)
(0,0,0)
(0,0,0)
(0,0,0)
(0,0,0)
(0,0,0)
(0,0,0)
(0,0,0)
(0,0,0)
(0,0,0)
(0,0,0)
(0,0,0)
(0,0,0)
(0,0,0)
(0,0,0)
(0,0,0)
(0,0,0)
(0,0,0)
(0,0,0)
(0,0,0)
(0,0,0)
(0,0,0)
(0,0,0)
(0,0,0)
(0,0,0)
(0,0,0)
(0,0,0)
(0,0,0)
(0,0,0)
(0,0,0)
(0,0,0)
(0,0,0)
(0,0,0)
(0,0,0)
(0,0,0)
(0,0,0)
(0,0,0)
(0,0,0)
(0,0,0)
(0,0,0)
(0,0,0)
(0,0,0)
(0,0,0)
(0,0,0)
(0,0,0)
(0,0,0)
(0,0,0)
(0,0,0)
(0,0,0)
(0,0,0)
(0,0,0)
(0,0,0)
(0,0,0)
(0,0,0)
(0,0,0)
(0,0,0)
(0,0,0)
(0,0,0)
(0,0,0)
(0,0,0)
(0,0,0)
(0,0,0)
(0,0,0)
(0,0,0)
(0,0,0)
(0,0,0)
(0,0,0)
(0,0,0)
(0,0,0)
(0,0,0)
(0,0,0)
(0,0,0)
(0,0,0)
(0,0,0)
(0,0,0)
(0,0,0)
(0,0,0)
(0,0,0)
(0,0,0)
(0,0,0)
(0,0,0)
(0,0,0)
(0,0,0)
(0,0,0)
(0,0,0)
(0,0,0)
(0,0,0)
(0,0,0)
(0,0,0)
(0,0,0)
(0,0,0)
(0,0,0)
(0,0,0)
(0,0,0)
(0,0,0)
(0,0,0)
(0,0,0)
(0,0,0)
(0,0,0)
(0,0,0)
(0,0,0)
(0,0,0)
(0,0,0)
(0,0,0)
(0,0,0)
(0,0,0)
(0,0,0)
(0,0,0)
(0,0,0)
(0,0,0)
(0,0,0)
(0,0,0)
(0,0,0)
(0,0,0)
(0,0,0)
(0,0,0)
(0,0,0)
(0,0,0)
(0,0,0)
(0,0,0)
(0,0,0)
(0,0,0)
(0,0,0)
(0,0,0)
(0,0,0)
(0,0,0)
(0,0,0)
(0,0,0)
(0,0,0)
(0,0,0)
(0,0,0)
(0,0,0)
(0,0,0)
(0,0,0)
(0,0,0)
(0,0,0)
(0,0,0)
(0,0,0)
(0,0,0)
(0,0,0)
(0,0,0)
(0,0,0)
(0,0,0)
(0,0,0)
(0,0,0)
(0,0,0)
(0,0,0)
(0,0,0)
(0,0,0)
(0,0,0)
(0,0,0)
(0,0,0)
(0,0,0)
(0,0,0)
(0,0,0)
(0,0,0)
(0,0,0)
(0,0,0)
(0,0,0)
(0,0,0)
(0,0,0)
(0,0,0)
(0,0,0)
(0,0,0)
(0,0,0)
(0,0,0)
(0,0,0)
(0,0,0)
(0,0,0)
(0,0,0)
(0,0,0)
(0,0,0)
(0,0,0)
(0,0,0)
(0,0,0)
(0,0,0)
(0,0,0)
(0,0,0)
(0,0,0)
(0,0,0)
(0,0,0)
(0,0,0)
(0,0,0)
(0,0,0)
(0,0,0)
(0,0,0)
(0,0,0)
(0,0,0)
(0,0,0)
(0,0,0)
(0,0,0)
(0,0,0)
(0,0,0)
(0,0,0)
(0,0,0)
(0,0,0)
(0,0,0)
(0,0,0)
(0,0,0)
(0,0,0)
(0,0,0)
(0,0,0)
(0,0,0)
(0,0,0)
(0,0,0)
(0,0,0)
(0,0,0)
(0,0,0)
(0,0,0)
(0,0,0)
(0,0,0)
(0,0,0)
(0,0,0)
(0,0,0)
(0,0,0)
(0,0,0)
(0,0,0)
(0,0,0)
(0,0,0)
(0,0,0)
(0,0,0)
(0,0,0)
(0,0,0)
(0,0,0)
(0,0,0)
(0,0,0)
(0,0,0)
(0,0,0)
(0,0,0)
(0,0,0)
(0,0,0)
(0,0,0)
(0,0,0)
(0,0,0)
(0,0,0)
(0,0,0)
(0,0,0)
(0,0,0)
(0,0,0)
(0,0,0)
(0,0,0)
(0,0,0)
(0,0,0)
(0,0,0)
(0,0,0)
(0,0,0)
(0,0,0)
(0,0,0)
(0,0,0)
(0,0,0)
(0,0,0)
(0,0,0)
(0,0,0)
(0,0,0)
(0,0,0)
(0,0,0)
(0,0,0)
(0,0,0)
(0,0,0)
(0,0,0)
(0,0,0)
(0,0,0)
(0,0,0)
(0,0,0)
(0,0,0)
(0,0,0)
(0,0,0)
(0,0,0)
(0,0,0)
(0,0,0)
(0,0,0)
(0,0,0)
(0,0,0)
(-5.726522358394e-13,3.78456643440877e-12,-3.24958925485186e-12)
(-1.43711497855417e-12,8.44099158630631e-12,-2.55691671511735e-12)
(-9.29270242379779e-13,1.25630098515225e-11,-2.24697220583929e-12)
(4.10048265331766e-13,1.97377582111115e-11,-2.25872588834597e-12)
(1.62170480288893e-12,3.20078940344183e-11,-1.84049589874297e-12)
(2.89291610832579e-12,5.15042930687059e-11,-1.28236029607133e-12)
(4.34812291567262e-12,8.20005609784165e-11,-5.59942253736345e-13)
(5.41996249788236e-12,1.31409236547771e-10,-3.07442936719663e-13)
(6.41114900568485e-12,2.12613816026122e-10,-1.39567635863599e-13)
(6.67545813680817e-12,3.27502307172998e-10,-2.32864741808555e-13)
(0,0,0)
(0,0,0)
(0,0,0)
(0,0,0)
(0,0,0)
(0,0,0)
(-1.89676360754182e-12,3.40059854162273e-12,-5.49578704085371e-12)
(-3.15425526935357e-12,8.15948762129582e-12,-5.25154256669299e-12)
(-2.16662018520096e-12,1.23146712717707e-11,-5.3342071570339e-12)
(1.44718801192577e-13,1.91301073064365e-11,-5.43080403499179e-12)
(2.58193455034862e-12,3.14619423193566e-11,-4.70436593129615e-12)
(5.29781699538652e-12,5.06198623344842e-11,-3.28064022370251e-12)
(7.89386257970013e-12,8.16640360413356e-11,-1.63712952182039e-12)
(9.58701768170984e-12,1.31730926894412e-10,-7.45243307142163e-13)
(1.13672519033442e-11,2.13566318684449e-10,-3.09416221479079e-13)
(1.18124536476727e-11,3.28415158695228e-10,-2.19832090849373e-13)
(0,0,0)
(0,0,0)
(0,0,0)
(0,0,0)
(0,0,0)
(0,0,0)
(-2.46376925446504e-12,3.00425806853072e-12,-1.09902731216908e-11)
(-3.02207112084043e-12,7.26832748089535e-12,-1.06098809578067e-11)
(-1.8532375100786e-12,1.118510058695e-11,-1.02231237263038e-11)
(1.16412685189151e-12,1.77521180437603e-11,-9.95306726136546e-12)
(4.32899014643022e-12,2.98898507763523e-11,-9.02999943888171e-12)
(6.9061986381712e-12,4.90046908731588e-11,-7.12396112604045e-12)
(8.95985996033388e-12,8.10095202913058e-11,-4.9804664479564e-12)
(1.11954961266306e-11,1.31883803593281e-10,-3.17900335394055e-12)
(1.45560778999157e-11,2.142175870069e-10,-1.93760027550705e-12)
(1.54595864316262e-11,3.29031754614635e-10,-8.32910378771965e-13)
(0,0,0)
(0,0,0)
(0,0,0)
(0,0,0)
(0,0,0)
(0,0,0)
(-1.72862849279553e-12,2.15127360844734e-12,-1.98880499588612e-11)
(-1.65376884143094e-12,5.75766211753047e-12,-1.93533905871437e-11)
(-5.47835199869927e-13,9.79641202883787e-12,-1.85766149599672e-11)
(2.68914483947901e-12,1.634495691599e-11,-1.76806020712791e-11)
(6.12370149840476e-12,2.78364159149756e-11,-1.62410230844043e-11)
(9.03952316578927e-12,4.67595626976046e-11,-1.3809243966105e-11)
(1.1403517645941e-11,7.93215583993188e-11,-1.0895942505607e-11)
(1.44893524674304e-11,1.30905959220778e-10,-8.07067739896311e-12)
(1.7717590150746e-11,2.13413920198314e-10,-5.55653997263674e-12)
(1.86299416041551e-11,3.28165196644324e-10,-2.64440521642045e-12)
(0,0,0)
(0,0,0)
(0,0,0)
(0,0,0)
(0,0,0)
(0,0,0)
(-9.98756481812496e-13,1.17374059978381e-12,-3.22869912629888e-11)
(-3.37947779345703e-13,4.18880963598726e-12,-3.2111920996659e-11)
(1.00136577853371e-12,8.2018784010816e-12,-3.10578235130227e-11)
(3.6487039260107e-12,1.43349581288904e-11,-2.96720146270144e-11)
(7.06356759612987e-12,2.46873456850739e-11,-2.81238654952398e-11)
(1.07367660156352e-11,4.2763482071345e-11,-2.58048704424171e-11)
(1.37462282444275e-11,7.57127862184933e-11,-2.2374917958475e-11)
(1.75854454215358e-11,1.28264591529688e-10,-1.78712899956581e-11)
(2.04253779793309e-11,2.10482181197859e-10,-1.25117720720892e-11)
(2.18485272798375e-11,3.25111145159677e-10,-6.18249905948649e-12)
(0,0,0)
(0,0,0)
(0,0,0)
(0,0,0)
(0,0,0)
(0,0,0)
(-6.40194676479091e-13,3.69515069857186e-13,-5.14356433828613e-11)
(2.9946866061316e-13,2.31573167038517e-12,-5.10364710107505e-11)
(1.85114970519882e-12,5.91610740587686e-12,-4.97307281457134e-11)
(4.33705413824149e-12,1.16395161799682e-11,-4.82465712262937e-11)
(8.2951706414204e-12,2.1044192778036e-11,-4.69736304759071e-11)
(1.26873620317049e-11,3.79579490453566e-11,-4.45770255894538e-11)
(1.68113126520388e-11,7.08519386039831e-11,-4.00845245970189e-11)
(2.05887788614769e-11,1.22856932885291e-10,-3.30083715052579e-11)
(2.326933939229e-11,2.04040897807637e-10,-2.34747126709972e-11)
(2.45673481046745e-11,3.18649537065932e-10,-1.21081507900803e-11)
(0,0,0)
(0,0,0)
(0,0,0)
(0,0,0)
(0,0,0)
(0,0,0)
(4.59751660991718e-13,-4.97653224536863e-13,-8.27090054037959e-11)
(1.70245567313994e-12,7.61488445624464e-13,-8.21751433926798e-11)
(3.21325942115678e-12,3.96618614384863e-12,-8.07183830848558e-11)
(5.96862560170894e-12,9.42994754283342e-12,-7.8801208274806e-11)
(1.03977809676809e-11,1.78135621916506e-11,-7.68836381729291e-11)
(1.50346055370099e-11,3.31400410823928e-11,-7.3564190416458e-11)
(2.01197929163603e-11,6.42962633843911e-11,-6.76768606917355e-11)
(2.27575160389556e-11,1.141260441208e-10,-5.8007984800166e-11)
(2.52452536001482e-11,1.93125239142298e-10,-4.30064214259175e-11)
(2.61303328914051e-11,3.06642385203567e-10,-2.33198653034599e-11)
(0,0,0)
(0,0,0)
(0,0,0)
(0,0,0)
(0,0,0)
(0,0,0)
(2.20892580840865e-12,-7.53388573403155e-13,-1.32857294534713e-10)
(4.49282958576561e-12,-6.33448536838355e-14,-1.32083486254232e-10)
(6.0134198438528e-12,2.24572905785892e-12,-1.30813252480044e-10)
(8.76018999807218e-12,7.31193479036162e-12,-1.29313622012699e-10)
(1.33400180471429e-11,1.5005826679404e-11,-1.27104321315212e-10)
(1.73728763684427e-11,2.87677929688968e-11,-1.227292090638e-10)
(2.12986167387682e-11,5.58584719822781e-11,-1.14921763720457e-10)
(2.21981671405542e-11,1.0030199319089e-10,-1.00470517251154e-10)
(2.37979188374628e-11,1.74275375414019e-10,-7.71418838611844e-11)
(2.44489900107185e-11,2.83388351729329e-10,-4.36256763348513e-11)
(0,0,0)
(0,0,0)
(0,0,0)
(0,0,0)
(0,0,0)
(0,0,0)
(3.75938160487126e-12,-8.75433118047422e-13,-2.14286024266343e-10)
(6.67310739639207e-12,-4.14644772501734e-13,-2.13792463677283e-10)
(8.48680850721496e-12,1.01852739289744e-12,-2.13144550952107e-10)
(1.112893121336e-11,4.89974615389157e-12,-2.12025436395181e-10)
(1.51673263379889e-11,1.10855527295106e-11,-2.09402852127735e-10)
(1.83009124570838e-11,2.16975956427612e-11,-2.03910133426829e-10)
(2.10725341425553e-11,4.21693862075446e-11,-1.93718961570362e-10)
(2.17608174816957e-11,7.73753590369989e-11,-1.74247856926009e-10)
(2.18875616447294e-11,1.40958959317462e-10,-1.40502132341804e-10)
(2.1693928344359e-11,2.39369766359592e-10,-8.44587831998656e-11)
(0,0,0)
(0,0,0)
(0,0,0)
(0,0,0)
(0,0,0)
(0,0,0)
(3.99508757611645e-12,-3.60356683639719e-13,-3.29576785911602e-10)
(7.35817064849173e-12,3.42029894354953e-14,-3.29380089254693e-10)
(1.02770245208448e-11,5.58714539203477e-13,-3.28719606043461e-10)
(1.35130877291127e-11,2.28632500084465e-12,-3.27286948864206e-10)
(1.69324907374664e-11,5.61048288612584e-12,-3.24549805952859e-10)
(1.94197056412905e-11,1.16024093156715e-11,-3.18625788940516e-10)
(2.10570454789928e-11,2.30352799703077e-11,-3.06448985998458e-10)
(2.15352407902651e-11,4.36114161123653e-11,-2.82906378791205e-10)
(2.08764229744667e-11,8.45571978681791e-11,-2.38776901445199e-10)
(2.03203222922005e-11,1.54452875437246e-10,-1.54186947528255e-10)
(0,0,0)
(0,0,0)
(0,0,0)
(0,0,0)
(0,0,0)
(0,0,0)
(0,0,0)
(0,0,0)
(0,0,0)
(0,0,0)
(0,0,0)
(0,0,0)
(0,0,0)
(0,0,0)
(0,0,0)
(0,0,0)
(0,0,0)
(0,0,0)
(0,0,0)
(0,0,0)
(0,0,0)
(0,0,0)
(0,0,0)
(0,0,0)
(0,0,0)
(0,0,0)
(0,0,0)
(0,0,0)
(0,0,0)
(0,0,0)
(0,0,0)
(0,0,0)
(0,0,0)
(0,0,0)
(0,0,0)
(0,0,0)
(0,0,0)
(0,0,0)
(0,0,0)
(0,0,0)
(0,0,0)
(0,0,0)
(0,0,0)
(0,0,0)
(0,0,0)
(0,0,0)
(0,0,0)
(0,0,0)
(0,0,0)
(0,0,0)
(0,0,0)
(0,0,0)
(0,0,0)
(0,0,0)
(0,0,0)
(0,0,0)
(0,0,0)
(0,0,0)
(0,0,0)
(0,0,0)
(0,0,0)
(0,0,0)
(0,0,0)
(0,0,0)
(0,0,0)
(0,0,0)
(0,0,0)
(0,0,0)
(0,0,0)
(0,0,0)
(0,0,0)
(0,0,0)
(0,0,0)
(0,0,0)
(0,0,0)
(0,0,0)
(0,0,0)
(0,0,0)
(0,0,0)
(0,0,0)
(0,0,0)
(0,0,0)
(0,0,0)
(0,0,0)
(0,0,0)
(0,0,0)
(0,0,0)
(0,0,0)
(0,0,0)
(0,0,0)
(0,0,0)
(0,0,0)
(0,0,0)
(0,0,0)
(0,0,0)
(0,0,0)
(0,0,0)
(0,0,0)
(0,0,0)
(0,0,0)
(0,0,0)
(0,0,0)
(-8.81356882788627e-13,6.67039211566441e-12,-4.95820548232321e-12)
(-1.46555552282632e-12,1.46313406915744e-11,-4.64971685794426e-12)
(-6.6917798012026e-13,2.29829826769677e-11,-4.30987227547437e-12)
(5.99469180388824e-13,3.59969943203729e-11,-3.80997773953534e-12)
(1.609520915235e-12,5.7007708514958e-11,-2.78378385205475e-12)
(3.0549288002646e-12,9.00272197561149e-11,-1.64565341299156e-12)
(4.43214853584669e-12,1.42142106714857e-10,-4.2157075980968e-13)
(4.93039685018135e-12,2.29157467927897e-10,-3.11735689510053e-14)
(5.55194345289101e-12,3.93512699579309e-10,1.02026576990891e-13)
(5.52974187229367e-12,7.72826113505791e-10,-1.74512033357148e-14)
(0,0,0)
(0,0,0)
(0,0,0)
(0,0,0)
(0,0,0)
(0,0,0)
(-1.7446676086114e-12,6.14604698164626e-12,-1.13178069081334e-11)
(-2.18043053859828e-12,1.39589204998901e-11,-1.11624026429112e-11)
(-9.40452622442226e-13,2.2138963723294e-11,-1.08098535667767e-11)
(7.96269960169834e-13,3.46354134890847e-11,-9.95865489636462e-12)
(2.73030038576816e-12,5.59229851648635e-11,-8.08355882910409e-12)
(5.26947775481267e-12,8.87676933297801e-11,-5.0845161954801e-12)
(7.65649211489957e-12,1.41731554257322e-10,-1.84814977975421e-12)
(8.99831389755635e-12,2.29407254089296e-10,-5.52321255114698e-13)
(1.06263994507638e-11,3.94181091587676e-10,-3.44407156718314e-13)
(1.09760256374868e-11,7.73693192384697e-10,-3.03784729504082e-13)
(0,0,0)
(0,0,0)
(0,0,0)
(0,0,0)
(0,0,0)
(0,0,0)
(-1.99117695826482e-12,5.46465266365395e-12,-2.15845469977955e-11)
(-1.89816298897459e-12,1.25722642970207e-11,-2.13557386816648e-11)
(-7.34605416881722e-13,2.0275960176298e-11,-2.0479002544202e-11)
(1.64822015717211e-12,3.20090855638039e-11,-1.9080768870742e-11)
(4.47638669491161e-12,5.27109743016904e-11,-1.6455449895511e-11)
(7.00783213564298e-12,8.55028414464077e-11,-1.16076759738857e-11)
(8.84635875832337e-12,1.40470681642747e-10,-6.31111978319456e-12)
(1.0931937420516e-11,2.29879417467387e-10,-3.87128059626686e-12)
(1.4255054811654e-11,3.95165300256265e-10,-2.89139387651169e-12)
(1.54932340230785e-11,7.74767396749931e-10,-1.72551827447086e-12)
(0,0,0)
(0,0,0)
(0,0,0)
(0,0,0)
(0,0,0)
(0,0,0)
(-1.2857548558496e-12,4.41930912835685e-12,-3.74294151159219e-11)
(-8.61691987066078e-13,1.04019686924561e-11,-3.69241090158452e-11)
(1.5068553919043e-13,1.77761733757459e-11,-3.557848550127e-11)
(3.25956463970878e-12,2.88197902227592e-11,-3.33332602309818e-11)
(6.84099261000188e-12,4.77510845466021e-11,-2.94406846410126e-11)
(1.01223023315729e-11,7.99912807865654e-11,-2.30627404454928e-11)
(1.21870247201193e-11,1.37023695051882e-10,-1.56190323677178e-11)
(1.46165827322379e-11,2.28920025508527e-10,-1.15625997902418e-11)
(1.77371943955735e-11,3.94735120207171e-10,-8.67036543095906e-12)
(1.90395878731813e-11,7.74306117641151e-10,-4.85151212838689e-12)
(0,0,0)
(0,0,0)
(0,0,0)
(0,0,0)
(0,0,0)
(0,0,0)
(-3.6960121821586e-13,2.88444039249123e-12,-5.98670187958654e-11)
(4.81032702619154e-13,7.84510721560035e-12,-5.95526767000771e-11)
(1.90132788772737e-12,1.47350563621444e-11,-5.77359707762036e-11)
(4.79599674314659e-12,2.45454797622963e-11,-5.48776958467825e-11)
(8.38772545036755e-12,4.08636186933957e-11,-5.05974565298566e-11)
(1.21123465576274e-11,7.12199214753891e-11,-4.47063166404194e-11)
(1.41034478961683e-11,1.29781648876999e-10,-3.83108285490625e-11)
(1.76335861424989e-11,2.25820129527235e-10,-2.95536116081004e-11)
(2.05373883567013e-11,3.91371986728041e-10,-2.09992433379318e-11)
(2.21276363136289e-11,7.70219374280423e-10,-1.08360020958417e-11)
(0,0,0)
(0,0,0)
(0,0,0)
(0,0,0)
(0,0,0)
(0,0,0)
(-1.72198754195078e-13,1.5327887718167e-12,-9.23473538492852e-11)
(5.47969020332377e-13,5.20961825796329e-12,-9.18292874569149e-11)
(2.31691404780326e-12,1.12753106985952e-11,-9.01333891957412e-11)
(5.27368202500095e-12,1.97466332849071e-11,-8.74545854969606e-11)
(9.12919634136583e-12,3.38590749389696e-11,-8.37670740739455e-11)
(1.30127690021909e-11,6.26963697244546e-11,-7.82776920680894e-11)
(1.62908347799109e-11,1.23491016391385e-10,-7.01670626976068e-11)
(1.97860087916282e-11,2.18425796709001e-10,-5.72895892558472e-11)
(2.28184361766566e-11,3.81728725882696e-10,-4.12017759759142e-11)
(2.4466349177612e-11,7.59711102256505e-10,-2.1637219753062e-11)
(0,0,0)
(0,0,0)
(0,0,0)
(0,0,0)
(0,0,0)
(0,0,0)
(1.81624998740648e-13,1.52008322073188e-13,-1.45216280727236e-10)
(1.07052866462645e-12,2.72668474024624e-12,-1.44322413237761e-10)
(3.01654169710066e-12,7.70817346471912e-12,-1.42696562604353e-10)
(6.16906825229666e-12,1.51260653657447e-11,-1.40005731318323e-10)
(9.88606872348535e-12,2.73059301525732e-11,-1.36539955852201e-10)
(1.35195239258064e-11,5.30924233219188e-11,-1.31027065004629e-10)
(1.88887084268923e-11,1.12296112689482e-10,-1.18812008193204e-10)
(2.1580003594492e-11,2.03431359478778e-10,-1.03011108062562e-10)
(2.44085612059475e-11,3.62866462680596e-10,-7.64745421027204e-11)
(2.60645010625156e-11,7.38672817471624e-10,-4.15660551734929e-11)
(0,0,0)
(0,0,0)
(0,0,0)
(0,0,0)
(0,0,0)
(0,0,0)
(1.55716207257245e-12,-9.80615945702202e-13,-2.31783391989419e-10)
(3.57389573039643e-12,8.13135553343311e-13,-2.30779017833871e-10)
(5.74099104147266e-12,4.68475883129598e-12,-2.29348087944912e-10)
(8.96307793704976e-12,1.14605955847181e-11,-2.27031629862087e-10)
(1.28851797455993e-11,2.32683379889159e-11,-2.23412859117384e-10)
(1.66356283512641e-11,4.74954163666575e-11,-2.1703401704915e-10)
(2.05364560442471e-11,9.80129726289333e-11,-2.0381334509631e-10)
(2.17961679043329e-11,1.77541929815621e-10,-1.78297771254444e-10)
(2.35981274078428e-11,3.28548823142913e-10,-1.37150832208304e-10)
(2.48418990452305e-11,6.97684706737365e-10,-7.81916381129064e-11)
(0,0,0)
(0,0,0)
(0,0,0)
(0,0,0)
(0,0,0)
(0,0,0)
(2.75074458140326e-12,-1.61211331590523e-12,-3.95530244979134e-10)
(5.5763469092793e-12,-2.61772224684833e-13,-3.95120566950592e-10)
(7.82750680398731e-12,2.50601182618172e-12,-3.94235281819453e-10)
(1.1119768098969e-11,7.80764080605727e-12,-3.92214890446826e-10)
(1.5149677480477e-11,1.75703481740887e-11,-3.87957143704958e-10)
(1.82049269276921e-11,3.62812377956662e-11,-3.79641702918268e-10)
(2.07355357354527e-11,7.31056947465783e-11,-3.62492098802715e-10)
(2.17790358221115e-11,1.36412999817488e-10,-3.28680251403658e-10)
(2.22459739520783e-11,2.69563177307097e-10,-2.69520625075568e-10)
(2.21520360666015e-11,6.19253216583597e-10,-1.68421832757582e-10)
(0,0,0)
(0,0,0)
(0,0,0)
(0,0,0)
(0,0,0)
(0,0,0)
(3.43803423556743e-12,-1.13135359273071e-12,-7.74950693386954e-10)
(6.73189042669552e-12,-1.69921648228062e-13,-7.75459473696927e-10)
(9.4030818807898e-12,1.19570120712819e-12,-7.74623532693893e-10)
(1.30622698186099e-11,3.81469996951395e-12,-7.72401677345762e-10)
(1.66189566112427e-11,9.33281637964089e-12,-7.67936385628366e-10)
(1.88453120148898e-11,1.96785311852766e-11,-7.58398662023331e-10)
(2.05497182420188e-11,3.98772735298387e-11,-7.37960529625529e-10)
(2.10171795566629e-11,7.7648358293589e-11,-6.97406847525145e-10)
(2.08436669256974e-11,1.68425903865261e-10,-6.1909072170835e-10)
(2.05862502012959e-11,4.50328806088547e-10,-4.50279899733187e-10)
(0,0,0)
(0,0,0)
(0,0,0)
(0,0,0)
(0,0,0)
(0,0,0)
(0,0,0)
(0,0,0)
(0,0,0)
(0,0,0)
(0,0,0)
(0,0,0)
(0,0,0)
(0,0,0)
(0,0,0)
(0,0,0)
(0,0,0)
(0,0,0)
(0,0,0)
(0,0,0)
(0,0,0)
(0,0,0)
(0,0,0)
(0,0,0)
(0,0,0)
(0,0,0)
(0,0,0)
(0,0,0)
(0,0,0)
(0,0,0)
(0,0,0)
(0,0,0)
(0,0,0)
(0,0,0)
(0,0,0)
(0,0,0)
(0,0,0)
(0,0,0)
(0,0,0)
(0,0,0)
(0,0,0)
(0,0,0)
(0,0,0)
(0,0,0)
(0,0,0)
(0,0,0)
(0,0,0)
(0,0,0)
(0,0,0)
(0,0,0)
(0,0,0)
(0,0,0)
(0,0,0)
(0,0,0)
(0,0,0)
(0,0,0)
(0,0,0)
(0,0,0)
(0,0,0)
(0,0,0)
(0,0,0)
(0,0,0)
(0,0,0)
(0,0,0)
(0,0,0)
(0,0,0)
(0,0,0)
(0,0,0)
(0,0,0)
(0,0,0)
(0,0,0)
(0,0,0)
(0,0,0)
(0,0,0)
(0,0,0)
(0,0,0)
(0,0,0)
(0,0,0)
(0,0,0)
(0,0,0)
(0,0,0)
(0,0,0)
(0,0,0)
(0,0,0)
(0,0,0)
(0,0,0)
(0,0,0)
(0,0,0)
(0,0,0)
(0,0,0)
(0,0,0)
(0,0,0)
(0,0,0)
(0,0,0)
(0,0,0)
(0,0,0)
(0,0,0)
(0,0,0)
(0,0,0)
(0,0,0)
(0,0,0)
(0,0,0)
(-6.65500373454833e-13,9.35537746365683e-12,-7.66404892938916e-12)
(-1.1329799139212e-12,2.00313862956404e-11,-8.11776411298449e-12)
(-3.25053561426607e-13,3.09753030430768e-11,-7.69150105943838e-12)
(9.34856123796282e-13,4.7110615502709e-11,-6.30030074517818e-12)
(1.55611382644204e-12,7.27069095515576e-11,-4.23301482731155e-12)
(3.09037257360609e-12,1.11261099291067e-10,-2.03586879473709e-12)
(4.45230380190935e-12,1.67358363331153e-10,2.94145543517214e-13)
(4.54741054257336e-12,2.4694558051293e-10,1.0787559702738e-12)
(5.00302922534614e-12,3.5909682237945e-10,9.12771354188309e-13)
(4.64521178917208e-12,4.95762840135158e-10,5.02002635068616e-13)
(0,0,0)
(0,0,0)
(0,0,0)
(0,0,0)
(0,0,0)
(0,0,0)
(-1.21867755592822e-12,9.02043440560946e-12,-1.78149814658936e-11)
(-1.14632341208902e-12,1.89335954368822e-11,-1.80705470621442e-11)
(7.13522524851266e-14,2.94884468792779e-11,-1.70362504003002e-11)
(1.54750181877142e-12,4.5163522120812e-11,-1.46434739030846e-11)
(2.94326861580523e-12,7.10738146469741e-11,-1.07494861839475e-11)
(5.29796322213297e-12,1.09701547247778e-10,-5.28727906646682e-12)
(7.62153620451525e-12,1.67108793114338e-10,5.57102690547262e-13)
(8.31823642168454e-12,2.47550894090119e-10,2.19901996743686e-12)
(9.60156835537032e-12,3.60272547566964e-10,1.28841651310131e-12)
(9.59803654300438e-12,4.97343187696928e-10,6.13614951495808e-13)
(0,0,0)
(0,0,0)
(0,0,0)
(0,0,0)
(0,0,0)
(0,0,0)
(-1.17464174080602e-12,7.9390932133719e-12,-3.21171289907127e-11)
(-6.04603520935917e-13,1.66024741311817e-11,-3.200454050342e-11)
(3.66947710589275e-13,2.66947802013524e-11,-3.01316250703384e-11)
(2.21219652258568e-12,4.12164069063015e-11,-2.65934173630208e-11)
(4.58850252797207e-12,6.59298020354614e-11,-2.08091683462118e-11)
(7.2228366050314e-12,1.04485665541886e-10,-1.11408078020233e-11)
(9.85350616217787e-12,1.6588792995458e-10,1.3824942183572e-13)
(1.0911442659504e-11,2.49429102662319e-10,1.5786295013998e-12)
(1.35193592597424e-11,3.62388558936646e-10,-9.9398111510269e-14)
(1.42289948567073e-11,4.99382164640286e-10,-4.43548900797486e-13)
(0,0,0)
(0,0,0)
(0,0,0)
(0,0,0)
(0,0,0)
(0,0,0)
(-2.56192220485808e-13,6.38854223450795e-12,-5.33672920734452e-11)
(3.49545976046708e-13,1.31894355975913e-11,-5.2430698590563e-11)
(9.46577281767468e-13,2.24234645476766e-11,-4.97829991694313e-11)
(3.64129950911782e-12,3.54165478505001e-11,-4.51241381225976e-11)
(7.35051426798239e-12,5.67288610859659e-11,-3.72064268899549e-11)
(1.14499535658761e-11,9.36395174000844e-11,-2.36712606610929e-11)
(1.53726383177562e-11,1.62607120427463e-10,-4.67301649527978e-12)
(1.48242443539625e-11,2.52242871092586e-10,-3.99561206702526e-12)
(1.72814745729589e-11,3.64217522100498e-10,-5.59958110118317e-12)
(1.8274819104216e-11,5.00361413646442e-10,-3.97477595870142e-12)
(0,0,0)
(0,0,0)
(0,0,0)
(0,0,0)
(0,0,0)
(0,0,0)
(6.67708305966253e-13,4.56072632966181e-12,-8.09810643566629e-11)
(1.29981573720723e-12,9.63099250074366e-12,-7.99030166585356e-11)
(2.50279862052066e-12,1.73767758403858e-11,-7.7073063839555e-11)
(5.31460390368118e-12,2.79025038476822e-11,-7.21254610874362e-11)
(9.50112931695163e-12,4.38085376641935e-11,-6.42218311517786e-11)
(1.4240410216152e-11,7.35839533501367e-11,-5.34517229315609e-11)
(1.16368634397474e-11,1.45301090770211e-10,-4.91811168133687e-11)
(1.64735506903257e-11,2.56136247631543e-10,-3.10535062067835e-11)
(2.00174079616899e-11,3.64564426439274e-10,-2.26978396610988e-11)
(2.17999062413236e-11,4.97662926863376e-10,-1.23042748527594e-11)
(0,0,0)
(0,0,0)
(0,0,0)
(0,0,0)
(0,0,0)
(0,0,0)
(6.90515303414383e-13,3.09120144444711e-12,-1.18829522496992e-10)
(1.33500427661662e-12,6.69767564903051e-12,-1.17636211867488e-10)
(3.20524758305134e-12,1.26375566457837e-11,-1.15187756667176e-10)
(6.2067385223369e-12,2.02816180717225e-11,-1.10949357765685e-10)
(1.01929591211959e-11,3.16016092973475e-11,-1.04523031374673e-10)
(1.45060860338865e-11,5.84648389488986e-11,-9.54803082661027e-11)
(1.46082650411022e-11,1.45411534434013e-10,-8.83410313157552e-11)
(1.86926327410245e-11,2.51711726953238e-10,-6.89446894001071e-11)
(2.21161431564721e-11,3.55747172730031e-10,-4.97084719947892e-11)
(2.38674142089266e-11,4.86312425535705e-10,-2.6038567807077e-11)
(0,0,0)
(0,0,0)
(0,0,0)
(0,0,0)
(0,0,0)
(0,0,0)
(4.20381778766567e-13,1.33698501307814e-12,-1.74693605230616e-10)
(1.35822721619614e-12,3.60749949104157e-12,-1.73286735144221e-10)
(3.34912504467482e-12,7.97163470467512e-12,-1.71526409700564e-10)
(6.36876256728585e-12,1.3203822562955e-11,-1.68523553573834e-10)
(8.41077003962659e-12,1.96192762620854e-11,-1.65141928876549e-10)
(6.90147407016852e-12,3.66740258248222e-11,-1.62474785093915e-10)
(1.73709483564787e-11,1.31989449649092e-10,-1.36948621084726e-10)
(2.09328672968689e-11,2.33997830704522e-10,-1.29665000603445e-10)
(2.38177138150786e-11,3.32968120689404e-10,-9.16918771430311e-11)
(2.54865566230754e-11,4.60879144217615e-10,-4.77483113888065e-11)
(0,0,0)
(0,0,0)
(0,0,0)
(0,0,0)
(0,0,0)
(0,0,0)
(1.18428528814767e-12,-6.50161943010872e-13,-2.53812138038413e-10)
(3.2178736196346e-12,8.65692161838674e-13,-2.52600174427801e-10)
(5.60327996296341e-12,4.28735268790825e-12,-2.51224533364974e-10)
(8.99726197185569e-12,9.32992481527894e-12,-2.48792152232916e-10)
(1.22043274915345e-11,1.90372503361727e-11,-2.45795714438607e-10)
(1.46291349696344e-11,4.57544121938444e-11,-2.42629522253122e-10)
(1.99281600842838e-11,1.22087286471763e-10,-2.31739807553151e-10)
(2.17781588558046e-11,1.95878348504796e-10,-1.96962767047663e-10)
(2.36245791481212e-11,2.89567396307722e-10,-1.44198660270803e-10)
(2.50817510868491e-11,4.13606797806599e-10,-7.80992490339818e-11)
(0,0,0)
(0,0,0)
(0,0,0)
(0,0,0)
(0,0,0)
(0,0,0)
(1.86030682906758e-12,-1.80579375951967e-12,-3.63923868965627e-10)
(4.59921120127826e-12,-7.51413990761953e-13,-3.63504381139354e-10)
(7.1174260516735e-12,1.86485908911858e-12,-3.62786341876893e-10)
(1.08549621931466e-11,6.69497953076822e-12,-3.60672874194588e-10)
(1.50717684887812e-11,1.67998026019208e-11,-3.56336148121652e-10)
(1.76580294224591e-11,3.94625989306909e-11,-3.48474113625722e-10)
(2.01521095535131e-11,8.62826149671264e-11,-3.30478541335236e-10)
(2.13840510163088e-11,1.42741104787238e-10,-2.89601815505479e-10)
(2.22844550772292e-11,2.23700850614299e-10,-2.24073175838224e-10)
(2.26546138036749e-11,3.3556066865023e-10,-1.28535116060591e-10)
(0,0,0)
(0,0,0)
(0,0,0)
(0,0,0)
(0,0,0)
(0,0,0)
(2.81546095162476e-12,-1.55984013204882e-12,-4.99440181653448e-10)
(5.72602777557987e-12,-8.25874766855628e-13,-5.00044997026817e-10)
(8.37692773986555e-12,7.47484309251187e-13,-4.99756531238051e-10)
(1.24116780709727e-11,3.67443659789739e-12,-4.97633982271961e-10)
(1.64140493859949e-11,9.8802626563747e-12,-4.9226590443761e-10)
(1.80857108014697e-11,2.23916410245263e-11,-4.8136966060314e-10)
(1.98733096721422e-11,4.55119814656717e-11,-4.5852136102756e-10)
(2.03494120320328e-11,7.76094596624824e-11,-4.12721087336627e-10)
(2.04587488160701e-11,1.28579780796508e-10,-3.35017796277595e-10)