/*--------------------------------*- C++ -*----------------------------------*\
| =========                 |                                                 |
| \\      /  F ield         | foam-extend: Open Source Cstd::filesystem::create_directory();FD                    |
|  \\    /   O peration     | Version:     4.0                                |
|   \\  /    A nd           | Web:         http://www.foam-extend.org         |
|    \\/     M anipulation  |                                                 |
\*---------------------------------------------------------------------------*/
FoamFile
{
    version 2.0;
    format ascii;
    class volVectorField;
    location "Data/1780";
    object      H;
}
// * * * * * * * * * * * * * * * * * * * * * * * * * * * * * * * * * * * * * //

dimensions      [0 1 -1 0 0 0 0];

internalField   nonuniform List<vector>
4096
(
(0,0,0)
(0,0,0)
(0,0,0)
(0,0,0)
(0,0,0)
(0,0,0)
(0,0,0)
(0,0,0)
(0,0,0)
(0,0,0)
(0,0,0)
(0,0,0)
(0,0,0)
(0,0,0)
(0,0,0)
(0,0,0)
(0,0,0)
(0,0,0)
(0,0,0)
(0,0,0)
(0,0,0)
(0,0,0)
(0,0,0)
(0,0,0)
(0,0,0)
(0,0,0)
(0,0,0)
(0,0,0)
(0,0,0)
(0,0,0)
(0,0,0)
(0,0,0)
(0,0,0)
(0,0,0)
(0,0,0)
(0,0,0)
(0,0,0)
(0,0,0)
(0,0,0)
(0,0,0)
(0,0,0)
(0,0,0)
(0,0,0)
(0,0,0)
(0,0,0)
(0,0,0)
(0,0,0)
(0,0,0)
(0,0,0)
(0,0,0)
(0,0,0)
(0,0,0)
(0,0,0)
(0,0,0)
(0,0,0)
(0,0,0)
(0,0,0)
(0,0,0)
(0,0,0)
(0,0,0)
(0,0,0)
(0,0,0)
(0,0,0)
(0,0,0)
(0,0,0)
(0,0,0)
(0,0,0)
(0,0,0)
(0,0,0)
(0,0,0)
(0,0,0)
(0,0,0)
(0,0,0)
(0,0,0)
(0,0,0)
(0,0,0)
(0,0,0)
(0,0,0)
(0,0,0)
(0,0,0)
(0,0,0)
(0,0,0)
(0,0,0)
(0,0,0)
(0,0,0)
(0,0,0)
(0,0,0)
(0,0,0)
(0,0,0)
(0,0,0)
(0,0,0)
(0,0,0)
(0,0,0)
(0,0,0)
(0,0,0)
(0,0,0)
(0,0,0)
(0,0,0)
(0,0,0)
(0,0,0)
(0,0,0)
(0,0,0)
(0,0,0)
(0,0,0)
(0,0,0)
(0,0,0)
(0,0,0)
(0,0,0)
(0,0,0)
(0,0,0)
(0,0,0)
(0,0,0)
(0,0,0)
(0,0,0)
(0,0,0)
(0,0,0)
(0,0,0)
(0,0,0)
(0,0,0)
(0,0,0)
(0,0,0)
(0,0,0)
(0,0,0)
(0,0,0)
(0,0,0)
(0,0,0)
(0,0,0)
(0,0,0)
(0,0,0)
(0,0,0)
(0,0,0)
(0,0,0)
(0,0,0)
(0,0,0)
(0,0,0)
(0,0,0)
(0,0,0)
(0,0,0)
(0,0,0)
(0,0,0)
(0,0,0)
(0,0,0)
(0,0,0)
(0,0,0)
(0,0,0)
(0,0,0)
(0,0,0)
(0,0,0)
(0,0,0)
(0,0,0)
(0,0,0)
(0,0,0)
(0,0,0)
(0,0,0)
(0,0,0)
(0,0,0)
(0,0,0)
(0,0,0)
(0,0,0)
(0,0,0)
(0,0,0)
(0,0,0)
(0,0,0)
(0,0,0)
(0,0,0)
(0,0,0)
(0,0,0)
(0,0,0)
(0,0,0)
(0,0,0)
(0,0,0)
(0,0,0)
(0,0,0)
(0,0,0)
(0,0,0)
(0,0,0)
(0,0,0)
(0,0,0)
(0,0,0)
(0,0,0)
(0,0,0)
(0,0,0)
(0,0,0)
(0,0,0)
(0,0,0)
(0,0,0)
(0,0,0)
(0,0,0)
(0,0,0)
(0,0,0)
(0,0,0)
(0,0,0)
(0,0,0)
(0,0,0)
(0,0,0)
(0,0,0)
(0,0,0)
(0,0,0)
(0,0,0)
(0,0,0)
(0,0,0)
(0,0,0)
(0,0,0)
(0,0,0)
(0,0,0)
(0,0,0)
(0,0,0)
(0,0,0)
(0,0,0)
(0,0,0)
(0,0,0)
(0,0,0)
(0,0,0)
(0,0,0)
(0,0,0)
(0,0,0)
(0,0,0)
(0,0,0)
(0,0,0)
(0,0,0)
(0,0,0)
(0,0,0)
(0,0,0)
(0,0,0)
(0,0,0)
(0,0,0)
(0,0,0)
(0,0,0)
(0,0,0)
(0,0,0)
(0,0,0)
(0,0,0)
(0,0,0)
(0,0,0)
(0,0,0)
(0,0,0)
(0,0,0)
(0,0,0)
(0,0,0)
(0,0,0)
(0,0,0)
(0,0,0)
(0,0,0)
(0,0,0)
(0,0,0)
(0,0,0)
(0,0,0)
(0,0,0)
(0,0,0)
(0,0,0)
(0,0,0)
(0,0,0)
(0,0,0)
(0,0,0)
(0,0,0)
(0,0,0)
(0,0,0)
(0,0,0)
(0,0,0)
(0,0,0)
(0,0,0)
(0,0,0)
(0,0,0)
(0,0,0)
(0,0,0)
(0,0,0)
(0,0,0)
(0,0,0)
(0,0,0)
(0,0,0)
(0,0,0)
(0,0,0)
(0,0,0)
(0,0,0)
(0,0,0)
(0,0,0)
(0,0,0)
(0,0,0)
(0,0,0)
(0,0,0)
(0,0,0)
(0,0,0)
(0,0,0)
(0,0,0)
(0,0,0)
(0,0,0)
(0,0,0)
(0,0,0)
(0,0,0)
(0,0,0)
(0,0,0)
(0,0,0)
(0,0,0)
(0,0,0)
(0,0,0)
(0,0,0)
(0,0,0)
(0,0,0)
(0,0,0)
(0,0,0)
(0,0,0)
(0,0,0)
(0,0,0)
(0,0,0)
(0,0,0)
(0,0,0)
(0,0,0)
(0,0,0)
(0,0,0)
(0,0,0)
(0,0,0)
(0,0,0)
(0,0,0)
(0,0,0)
(0,0,0)
(0,0,0)
(0,0,0)
(0,0,0)
(0,0,0)
(0,0,0)
(0,0,0)
(0,0,0)
(0,0,0)
(0,0,0)
(0,0,0)
(0,0,0)
(0,0,0)
(0,0,0)
(0,0,0)
(0,0,0)
(0,0,0)
(0,0,0)
(0,0,0)
(0,0,0)
(0,0,0)
(0,0,0)
(0,0,0)
(0,0,0)
(0,0,0)
(0,0,0)
(0,0,0)
(0,0,0)
(0,0,0)
(0,0,0)
(0,0,0)
(0,0,0)
(0,0,0)
(0,0,0)
(0,0,0)
(0,0,0)
(0,0,0)
(0,0,0)
(0,0,0)
(0,0,0)
(0,0,0)
(0,0,0)
(0,0,0)
(0,0,0)
(0,0,0)
(0,0,0)
(0,0,0)
(0,0,0)
(0,0,0)
(0,0,0)
(0,0,0)
(0,0,0)
(0,0,0)
(0,0,0)
(0,0,0)
(0,0,0)
(0,0,0)
(0,0,0)
(0,0,0)
(0,0,0)
(0,0,0)
(0,0,0)
(0,0,0)
(0,0,0)
(0,0,0)
(0,0,0)
(0,0,0)
(0,0,0)
(0,0,0)
(0,0,0)
(0,0,0)
(0,0,0)
(0,0,0)
(0,0,0)
(0,0,0)
(0,0,0)
(0,0,0)
(0,0,0)
(0,0,0)
(0,0,0)
(0,0,0)
(0,0,0)
(0,0,0)
(0,0,0)
(0,0,0)
(0,0,0)
(0,0,0)
(0,0,0)
(0,0,0)
(0,0,0)
(0,0,0)
(0,0,0)
(0,0,0)
(0,0,0)
(0,0,0)
(0,0,0)
(0,0,0)
(0,0,0)
(0,0,0)
(0,0,0)
(0,0,0)
(0,0,0)
(0,0,0)
(0,0,0)
(0,0,0)
(0,0,0)
(0,0,0)
(0,0,0)
(0,0,0)
(0,0,0)
(0,0,0)
(0,0,0)
(0,0,0)
(0,0,0)
(0,0,0)
(0,0,0)
(0,0,0)
(0,0,0)
(0,0,0)
(0,0,0)
(0,0,0)
(0,0,0)
(0,0,0)
(0,0,0)
(0,0,0)
(0,0,0)
(0,0,0)
(0,0,0)
(0,0,0)
(0,0,0)
(0,0,0)
(0,0,0)
(0,0,0)
(0,0,0)
(0,0,0)
(0,0,0)
(0,0,0)
(0,0,0)
(0,0,0)
(0,0,0)
(0,0,0)
(0,0,0)
(0,0,0)
(0,0,0)
(0,0,0)
(0,0,0)
(0,0,0)
(0,0,0)
(0,0,0)
(0,0,0)
(0,0,0)
(0,0,0)
(0,0,0)
(0,0,0)
(0,0,0)
(0,0,0)
(0,0,0)
(0,0,0)
(0,0,0)
(0,0,0)
(0,0,0)
(0,0,0)
(0,0,0)
(0,0,0)
(0,0,0)
(0,0,0)
(0,0,0)
(0,0,0)
(0,0,0)
(0,0,0)
(0,0,0)
(0,0,0)
(0,0,0)
(0,0,0)
(0,0,0)
(0,0,0)
(0,0,0)
(0,0,0)
(0,0,0)
(0,0,0)
(0,0,0)
(0,0,0)
(0,0,0)
(0,0,0)
(0,0,0)
(0,0,0)
(0,0,0)
(0,0,0)
(0,0,0)
(0,0,0)
(0,0,0)
(0,0,0)
(0,0,0)
(0,0,0)
(0,0,0)
(0,0,0)
(0,0,0)
(0,0,0)
(0,0,0)
(0,0,0)
(0,0,0)
(0,0,0)
(0,0,0)
(0,0,0)
(0,0,0)
(0,0,0)
(0,0,0)
(0,0,0)
(0,0,0)
(0,0,0)
(0,0,0)
(0,0,0)
(0,0,0)
(0,0,0)
(0,0,0)
(0,0,0)
(0,0,0)
(0,0,0)
(0,0,0)
(0,0,0)
(0,0,0)
(0,0,0)
(0,0,0)
(0,0,0)
(0,0,0)
(0,0,0)
(0,0,0)
(0,0,0)
(0,0,0)
(0,0,0)
(0,0,0)
(0,0,0)
(0,0,0)
(0,0,0)
(0,0,0)
(0,0,0)
(0,0,0)
(0,0,0)
(0,0,0)
(0,0,0)
(0,0,0)
(0,0,0)
(0,0,0)
(0,0,0)
(0,0,0)
(0,0,0)
(0,0,0)
(0,0,0)
(0,0,0)
(0,0,0)
(0,0,0)
(0,0,0)
(0,0,0)
(0,0,0)
(0,0,0)
(0,0,0)
(0,0,0)
(0,0,0)
(0,0,0)
(0,0,0)
(0,0,0)
(0,0,0)
(0,0,0)
(0,0,0)
(0,0,0)
(0,0,0)
(0,0,0)
(0,0,0)
(0,0,0)
(0,0,0)
(0,0,0)
(0,0,0)
(0,0,0)
(0,0,0)
(0,0,0)
(0,0,0)
(0,0,0)
(0,0,0)
(0,0,0)
(0,0,0)
(0,0,0)
(0,0,0)
(0,0,0)
(0,0,0)
(0,0,0)
(0,0,0)
(0,0,0)
(0,0,0)
(0,0,0)
(0,0,0)
(0,0,0)
(0,0,0)
(0,0,0)
(0,0,0)
(0,0,0)
(0,0,0)
(0,0,0)
(0,0,0)
(0,0,0)
(0,0,0)
(0,0,0)
(0,0,0)
(0,0,0)
(0,0,0)
(0,0,0)
(0,0,0)
(0,0,0)
(0,0,0)
(0,0,0)
(0,0,0)
(0,0,0)
(0,0,0)
(0,0,0)
(0,0,0)
(0,0,0)
(0,0,0)
(0,0,0)
(0,0,0)
(0,0,0)
(0,0,0)
(0,0,0)
(0,0,0)
(0,0,0)
(0,0,0)
(0,0,0)
(0,0,0)
(0,0,0)
(0,0,0)
(0,0,0)
(0,0,0)
(0,0,0)
(0,0,0)
(0,0,0)
(0,0,0)
(0,0,0)
(0,0,0)
(0,0,0)
(0,0,0)
(0,0,0)
(0,0,0)
(0,0,0)
(0,0,0)
(0,0,0)
(0,0,0)
(0,0,0)
(0,0,0)
(0,0,0)
(0,0,0)
(0,0,0)
(0,0,0)
(0,0,0)
(0,0,0)
(0,0,0)
(0,0,0)
(0,0,0)
(0,0,0)
(0,0,0)
(0,0,0)
(0,0,0)
(0,0,0)
(0,0,0)
(0,0,0)
(0,0,0)
(0,0,0)
(0,0,0)
(0,0,0)
(0,0,0)
(0,0,0)
(0,0,0)
(0,0,0)
(0,0,0)
(0,0,0)
(0,0,0)
(0,0,0)
(0,0,0)
(0,0,0)
(0,0,0)
(0,0,0)
(0,0,0)
(0,0,0)
(0,0,0)
(0,0,0)
(0,0,0)
(0,0,0)
(0,0,0)
(0,0,0)
(0,0,0)
(0,0,0)
(0,0,0)
(0,0,0)
(0,0,0)
(0,0,0)
(0,0,0)
(0,0,0)
(0,0,0)
(0,0,0)
(0,0,0)
(0,0,0)
(0,0,0)
(0,0,0)
(0,0,0)
(0,0,0)
(0,0,0)
(0,0,0)
(0,0,0)
(0,0,0)
(0,0,0)
(0,0,0)
(0,0,0)
(0,0,0)
(0,0,0)
(0,0,0)
(0,0,0)
(0,0,0)
(0,0,0)
(0,0,0)
(0,0,0)
(0,0,0)
(0,0,0)
(0,0,0)
(0,0,0)
(0,0,0)
(0,0,0)
(0,0,0)
(0,0,0)
(0,0,0)
(0,0,0)
(0,0,0)
(0,0,0)
(0,0,0)
(0,0,0)
(0,0,0)
(0,0,0)
(0,0,0)
(0,0,0)
(0,0,0)
(0,0,0)
(0,0,0)
(0,0,0)
(0,0,0)
(0,0,0)
(0,0,0)
(0,0,0)
(0,0,0)
(0,0,0)
(0,0,0)
(0,0,0)
(0,0,0)
(0,0,0)
(0,0,0)
(0,0,0)
(0,0,0)
(0,0,0)
(0,0,0)
(0,0,0)
(0,0,0)
(0,0,0)
(0,0,0)
(0,0,0)
(0,0,0)
(0,0,0)
(0,0,0)
(0,0,0)
(0,0,0)
(0,0,0)
(0,0,0)
(0,0,0)
(0,0,0)
(0,0,0)
(0,0,0)
(0,0,0)
(0,0,0)
(0,0,0)
(0,0,0)
(0,0,0)
(0,0,0)
(0,0,0)
(0,0,0)
(0,0,0)
(0,0,0)
(0,0,0)
(0,0,0)
(0,0,0)
(0,0,0)
(0,0,0)
(0,0,0)
(0,0,0)
(0,0,0)
(0,0,0)
(0,0,0)
(0,0,0)
(0,0,0)
(0,0,0)
(0,0,0)
(0,0,0)
(0,0,0)
(0,0,0)
(0,0,0)
(0,0,0)
(0,0,0)
(0,0,0)
(0,0,0)
(0,0,0)
(0,0,0)
(0,0,0)
(6.40936618593472e-13,-1.18194393472666e-11,1.17535631537272e-11)
(1.20295002309473e-12,-2.67205905743155e-11,1.11782146483294e-11)
(2.74568015810985e-12,-4.74796837888072e-11,1.03719113945794e-11)
(3.40799777313304e-12,-7.5932126862057e-11,9.2995169191552e-12)
(2.86790886632657e-12,-1.19181770775778e-10,7.59222304968273e-12)
(2.68386925627633e-12,-1.8761259795665e-10,5.36645851007422e-12)
(2.65144769679301e-12,-2.97265873592253e-10,3.58879882094458e-12)
(3.44602336603292e-12,-4.78902048423277e-10,2.33862077327691e-12)
(5.12924981509109e-12,-7.78328688247918e-10,1.12153369998464e-12)
(6.56350142959964e-12,-1.19603591546977e-09,4.46338261655801e-13)
(0,0,0)
(0,0,0)
(0,0,0)
(0,0,0)
(0,0,0)
(0,0,0)
(1.57031162582039e-12,-1.10928602669854e-11,2.65121190243527e-11)
(3.41522123335943e-12,-2.52890110332019e-11,2.59511022495006e-11)
(6.08524159714973e-12,-4.55018020952057e-11,2.47105646165168e-11)
(8.12831688268604e-12,-7.37147448640753e-11,2.22002750272554e-11)
(7.77798747443795e-12,-1.17025567507811e-10,1.87872269543314e-11)
(7.36312731725741e-12,-1.85528173151161e-10,1.41151292996892e-11)
(7.35764340350096e-12,-2.95748910566789e-10,9.69104931491017e-12)
(9.20609122124271e-12,-4.781643399275e-10,6.68795026019777e-12)
(1.23390850689545e-11,-7.7844446356418e-10,4.04312158109124e-12)
(1.48718210079836e-11,-1.19633274394753e-09,1.84283904869297e-12)
(0,0,0)
(0,0,0)
(0,0,0)
(0,0,0)
(0,0,0)
(0,0,0)
(1.96286155365105e-12,-1.02396605881449e-11,4.67279961410368e-11)
(4.71250384310106e-12,-2.31728029397163e-11,4.59674034557763e-11)
(7.44982791882094e-12,-4.19563318981389e-11,4.44107886590811e-11)
(1.0369865602245e-11,-6.92512397641784e-11,4.05824928289707e-11)
(1.17986905724913e-11,-1.11669977221139e-10,3.52101422866149e-11)
(1.19720169328151e-11,-1.80277368206569e-10,2.82241312673225e-11)
(1.27422335939053e-11,-2.92532818196239e-10,2.08811575351242e-11)
(1.63294423526547e-11,-4.76530303542323e-10,1.50328025725169e-11)
(2.08529336442739e-11,-7.77593211287244e-10,1.00885506044814e-11)
(2.37163815035761e-11,-1.19559742816314e-09,4.99836291674687e-12)
(0,0,0)
(0,0,0)
(0,0,0)
(0,0,0)
(0,0,0)
(0,0,0)
(1.94275150802168e-12,-9.0324071117938e-12,7.47001884787176e-11)
(5.62923804889524e-12,-2.07266693649055e-11,7.38032536989203e-11)
(8.39146738473652e-12,-3.70857316587162e-11,7.19416996871877e-11)
(1.11534868484747e-11,-6.22183466377569e-11,6.7921662852874e-11)
(1.40315031273658e-11,-1.02704435150084e-10,6.1429271816936e-11)
(1.61972123995958e-11,-1.71313046027908e-10,5.30137694207905e-11)
(1.8976275491906e-11,-2.86429530046586e-10,4.36278911964553e-11)
(2.35198021128847e-11,-4.73001511754242e-10,3.36327584085856e-11)
(2.86151880279096e-11,-7.74335079888649e-10,2.31245216185353e-11)
(3.20844308587252e-11,-1.19202852734429e-09,1.15565245344637e-11)
(0,0,0)
(0,0,0)
(0,0,0)
(0,0,0)
(0,0,0)
(0,0,0)
(2.31873573740536e-12,-7.51775078730159e-12,1.16391134884305e-10)
(5.97524938628785e-12,-1.77526159347686e-11,1.15767630222373e-10)
(8.18146693224994e-12,-3.17063469409003e-11,1.13971081980397e-10)
(1.01263723046613e-11,-5.3412766119451e-11,1.10036691021464e-10)
(1.3980299789562e-11,-9.06101509287579e-11,1.03596116009202e-10)
(1.87813881008686e-11,-1.57967825545584e-10,9.55262183790819e-11)
(2.4580219379073e-11,-2.74842326707204e-10,8.54435647390175e-11)
(2.98411891613431e-11,-4.64445997419042e-10,6.8685789620454e-11)
(3.55087391809124e-11,-7.65287252776477e-10,4.81350389593846e-11)
(3.93254139298601e-11,-1.18224808143515e-09,2.47163450834936e-11)
(0,0,0)
(0,0,0)
(0,0,0)
(0,0,0)
(0,0,0)
(0,0,0)
(3.29215834138521e-12,-6.11995221199843e-12,1.80810938283658e-10)
(6.93150327138658e-12,-1.43720636930116e-11,1.80333539316197e-10)
(8.85680369142077e-12,-2.58502560489167e-11,1.78770726109381e-10)
(1.0209074319445e-11,-4.42026504318813e-11,1.75330873134575e-10)
(1.434105644251e-11,-7.78010704934505e-11,1.69738890347256e-10)
(2.075508466546e-11,-1.42556951724434e-10,1.61505654488491e-10)
(2.90788225713063e-11,-2.59629958014427e-10,1.48061689036433e-10)
(3.56540626865878e-11,-4.48017503454222e-10,1.23868879200498e-10)
(4.11453176271054e-11,-7.45064569666013e-10,8.93284878743124e-11)
(4.36538055561074e-11,-1.15906885013246e-09,4.71140999831742e-11)
(0,0,0)
(0,0,0)
(0,0,0)
(0,0,0)
(0,0,0)
(0,0,0)
(3.88864996142806e-12,-4.56429371996197e-12,2.84638078864482e-10)
(7.92417560705803e-12,-1.07692808638599e-11,2.84249488858568e-10)
(1.04768864828387e-11,-1.98889767252153e-11,2.83011992139792e-10)
(1.24743251451658e-11,-3.55274881105323e-11,2.8040310523095e-10)
(1.74036337207668e-11,-6.51661910545578e-11,2.75677666419855e-10)
(2.50610850542373e-11,-1.24406351141401e-10,2.66413033637971e-10)
(3.32517148253189e-11,-2.36231562462325e-10,2.46827055817008e-10)
(4.03537105869856e-11,-4.16519959081608e-10,2.12856931524899e-10)
(4.55691627051733e-11,-7.04928127140897e-10,1.58744948987969e-10)
(4.73702716824192e-11,-1.11295863880757e-09,8.64112015966017e-11)
(0,0,0)
(0,0,0)
(0,0,0)
(0,0,0)
(0,0,0)
(0,0,0)
(5.54807503459658e-12,-3.22221876968926e-12,4.61052057464422e-10)
(1.00306290242611e-11,-7.8094022670896e-12,4.61312441985317e-10)
(1.24661651703867e-11,-1.4925129375884e-11,4.60331772714667e-10)
(1.48802282102558e-11,-2.81324775327308e-11,4.5757442123603e-10)
(1.94535982934365e-11,-5.36776733416118e-11,4.52041459480575e-10)
(2.67067149632731e-11,-1.05207906351184e-10,4.39994367171408e-10)
(3.44048004966622e-11,-2.0193376410933e-10,4.14088217406211e-10)
(4.03312382083845e-11,-3.6248139376573e-10,3.6425898276973e-10)
(4.44465673788372e-11,-6.32323194580157e-10,2.81557060140391e-10)
(4.70420621307319e-11,-1.02625612892349e-09,1.59554471879399e-10)
(0,0,0)
(0,0,0)
(0,0,0)
(0,0,0)
(0,0,0)
(0,0,0)
(6.73388721098678e-12,-2.13038687544805e-12,7.57501443675873e-10)
(1.08913595330825e-11,-4.86780555217671e-12,7.57658701916706e-10)
(1.31320484781753e-11,-9.71310931335189e-12,7.56605072146601e-10)
(1.58382727293802e-11,-1.98837919855713e-11,7.53525629457406e-10)
(1.99840559747989e-11,-3.94846988517614e-11,7.4611651807263e-10)
(2.73317095928739e-11,-7.81631770551491e-11,7.29766278548222e-10)
(3.42353463646996e-11,-1.50898266114856e-10,6.95855705638218e-10)
(3.87372318067576e-11,-2.78952862447342e-10,6.28889578435025e-10)
(4.29003312571211e-11,-5.09722154543944e-10,5.08364007295653e-10)
(4.55298302165079e-11,-8.66227124569276e-10,3.05493597352707e-10)
(0,0,0)
(0,0,0)
(0,0,0)
(0,0,0)
(0,0,0)
(0,0,0)
(7.55974123541251e-12,-1.02294665808201e-12,1.17324069733822e-09)
(1.12954146634211e-11,-2.18664460999237e-12,1.17335644266065e-09)
(1.44878998437462e-11,-4.75451740574467e-12,1.17230500826908e-09)
(1.79648784236726e-11,-1.0349404997299e-11,1.16906098259333e-09)
(2.20998227864864e-11,-2.12355006999429e-11,1.16061869065992e-09)
(2.81807128988879e-11,-4.22753891729051e-11,1.14126628812467e-09)
(3.44741380458454e-11,-8.23989758496641e-11,1.1010781687762e-09)
(3.83296678411135e-11,-1.57839430071103e-10,1.02041071163251e-09)
(4.28075250896503e-11,-3.06169501262323e-10,8.63187847941048e-10)
(4.57138401689991e-11,-5.59746028056809e-10,5.58145012119308e-10)
(0,0,0)
(0,0,0)
(0,0,0)
(0,0,0)
(0,0,0)
(0,0,0)
(0,0,0)
(0,0,0)
(0,0,0)
(0,0,0)
(0,0,0)
(0,0,0)
(0,0,0)
(0,0,0)
(0,0,0)
(0,0,0)
(0,0,0)
(0,0,0)
(0,0,0)
(0,0,0)
(0,0,0)
(0,0,0)
(0,0,0)
(0,0,0)
(0,0,0)
(0,0,0)
(0,0,0)
(0,0,0)
(0,0,0)
(0,0,0)
(0,0,0)
(0,0,0)
(0,0,0)
(0,0,0)
(0,0,0)
(0,0,0)
(0,0,0)
(0,0,0)
(0,0,0)
(0,0,0)
(0,0,0)
(0,0,0)
(0,0,0)
(0,0,0)
(0,0,0)
(0,0,0)
(0,0,0)
(0,0,0)
(0,0,0)
(0,0,0)
(0,0,0)
(0,0,0)
(0,0,0)
(0,0,0)
(0,0,0)
(0,0,0)
(0,0,0)
(0,0,0)
(0,0,0)
(0,0,0)
(0,0,0)
(0,0,0)
(0,0,0)
(0,0,0)
(0,0,0)
(0,0,0)
(0,0,0)
(0,0,0)
(0,0,0)
(0,0,0)
(0,0,0)
(0,0,0)
(0,0,0)
(0,0,0)
(0,0,0)
(0,0,0)
(0,0,0)
(0,0,0)
(0,0,0)
(0,0,0)
(0,0,0)
(0,0,0)
(0,0,0)
(0,0,0)
(0,0,0)
(0,0,0)
(0,0,0)
(0,0,0)
(0,0,0)
(0,0,0)
(0,0,0)
(0,0,0)
(0,0,0)
(0,0,0)
(0,0,0)
(0,0,0)
(0,0,0)
(0,0,0)
(0,0,0)
(0,0,0)
(0,0,0)
(0,0,0)
(4.89706043706261e-13,-2.25975994246562e-11,2.30109394360219e-11)
(5.77673735729545e-13,-4.99529487116365e-11,2.18913527541025e-11)
(1.84019293990605e-12,-8.69018130627973e-11,1.95717414608298e-11)
(2.89790964462091e-12,-1.3858988342766e-10,1.65490468124423e-11)
(2.93747013793e-12,-2.16096346645645e-10,1.24812588682366e-11)
(2.3771041399588e-12,-3.3475313791138e-10,7.73700703028852e-12)
(2.38466271906376e-12,-5.21087094071529e-10,3.5556705244169e-12)
(3.92540194337106e-12,-8.37044579588965e-10,1.4311901706505e-12)
(5.92022056938402e-12,-1.43678450497812e-09,2.31754048975383e-13)
(7.30666816855245e-12,-2.80687966934516e-09,-2.68693491357467e-13)
(0,0,0)
(0,0,0)
(0,0,0)
(0,0,0)
(0,0,0)
(0,0,0)
(1.27812872183326e-12,-2.17133365180454e-11,5.13073469252923e-11)
(2.53955077286186e-12,-4.74795185847441e-11,4.94768459202877e-11)
(5.05006098935401e-12,-8.3204274437948e-11,4.56070435763258e-11)
(7.07785985570778e-12,-1.33954664868947e-10,3.96249748427977e-11)
(7.09449484240413e-12,-2.11169888400647e-10,3.15528953558787e-11)
(6.53640235742877e-12,-3.30602729021573e-10,2.11063960497203e-11)
(7.14465008755064e-12,-5.19410870095101e-10,1.10209753033056e-11)
(1.02168835154221e-11,-8.37183822632643e-10,6.10895239764814e-12)
(1.36881153247901e-11,-1.43787276816148e-09,3.47705778884132e-12)
(1.59793442724781e-11,-2.80808449927173e-09,1.34906527338901e-12)
(0,0,0)
(0,0,0)
(0,0,0)
(0,0,0)
(0,0,0)
(0,0,0)
(1.51620076256169e-12,-1.99894714378264e-11,8.83356380675868e-11)
(3.82298506498962e-12,-4.31865442968927e-11,8.5929270800845e-11)
(6.40752350952462e-12,-7.61854614373866e-11,8.15969995949809e-11)
(8.70932301818101e-12,-1.24548130779083e-10,7.33770497365083e-11)
(9.81915952068067e-12,-1.99601029442427e-10,6.09566077536035e-11)
(1.03506684863498e-11,-3.19874256517622e-10,4.43132409933729e-11)
(1.24873004068787e-11,-5.14936392726396e-10,2.71474362147128e-11)
(1.77449025324815e-11,-8.37133366791606e-10,1.81158079421567e-11)
(2.26849899331472e-11,-1.4389558102092e-09,1.25886266399777e-11)
(2.51458436013206e-11,-2.80907655620954e-09,6.45153599211737e-12)
(0,0,0)
(0,0,0)
(0,0,0)
(0,0,0)
(0,0,0)
(0,0,0)
(1.32502996332576e-12,-1.7157967310019e-11,1.38864417848014e-10)
(4.51673863048911e-12,-3.76246058175776e-11,1.36244895037771e-10)
(7.03211950122662e-12,-6.6144697422573e-11,1.31566194361515e-10)
(8.84029736611388e-12,-1.09892014259317e-10,1.2287383389116e-10)
(1.03527213021776e-11,-1.80231068537785e-10,1.08254850850629e-10)
(1.22378701416156e-11,-2.99737803197885e-10,8.78600909858713e-11)
(1.73842049403547e-11,-5.0400073329394e-10,6.52472012918311e-11)
(2.54725245678129e-11,-8.35365339418851e-10,4.97750095203523e-11)
(3.11353580002685e-11,-1.43782399096514e-09,3.56313052854867e-11)
(3.38605094848598e-11,-2.80675947853754e-09,1.84570620505531e-11)
(0,0,0)
(0,0,0)
(0,0,0)
(0,0,0)
(0,0,0)
(0,0,0)
(1.54444182403428e-12,-1.37838524848472e-11,2.12570918228773e-10)
(4.39124538650511e-12,-3.08673565770584e-11,2.10320010903389e-10)
(6.25976699919882e-12,-5.43830297553043e-11,2.05886160951587e-10)
(7.35683162935057e-12,-9.12738355993132e-11,1.97984257048254e-10)
(9.24111698438501e-12,-1.53565866499799e-10,1.85045167474569e-10)
(1.3453167919763e-11,-2.67183455007622e-10,1.68763071671274e-10)
(2.61256258048943e-11,-4.77576992190044e-10,1.53855215260886e-10)
(3.39634458577761e-11,-8.25648883738303e-10,1.1978076629203e-10)
(3.87047499462829e-11,-1.42687787571959e-09,8.34536472432008e-11)
(4.08625277101996e-11,-2.79314723805871e-09,4.30886100489518e-11)
(0,0,0)
(0,0,0)
(0,0,0)
(0,0,0)
(0,0,0)
(0,0,0)
(2.21389881680971e-12,-1.06570322965003e-11,3.24016902070116e-10)
(4.8915336490486e-12,-2.40325813469456e-11,3.22235046250062e-10)
(6.33537734252116e-12,-4.26659660001247e-11,3.1844145053892e-10)
(7.12589478542078e-12,-7.22773608929238e-11,3.12077930825283e-10)
(9.93941286238807e-12,-1.26103615300956e-10,3.02164985785209e-10)
(1.60484495344611e-11,-2.34419255922714e-10,2.88286738172985e-10)
(2.98732368551704e-11,-4.54088929770627e-10,2.6865576235698e-10)
(3.86969096401618e-11,-8.00819081398671e-10,2.22866413695259e-10)
(4.32232629930808e-11,-1.39407822059637e-09,1.59286629148037e-10)
(4.46576942146132e-11,-2.75444281131262e-09,8.3551499522611e-11)
(0,0,0)
(0,0,0)
(0,0,0)
(0,0,0)
(0,0,0)
(0,0,0)
(2.93516501706904e-12,-7.78731600043347e-12,5.00194338967541e-10)
(6.20179372906501e-12,-1.77309891661673e-11,4.99363964735701e-10)
(8.12192604235039e-12,-3.19561159108412e-11,4.97057350850773e-10)
(9.80475337845461e-12,-5.53197285452546e-11,4.93179502164094e-10)
(1.51797487897276e-11,-1.0017806664302e-10,4.87166908689576e-10)
(2.54486180850058e-11,-1.96990166685748e-10,4.75353236760712e-10)
(3.29240407644829e-11,-4.137985943629e-10,4.394469596831e-10)
(4.04271278078729e-11,-7.45463224555251e-10,3.84210992598396e-10)
(4.52979775354515e-11,-1.32325365452292e-09,2.8303682409359e-10)
(4.70789633955452e-11,-2.67334170270523e-09,1.52458324074058e-10)
(0,0,0)
(0,0,0)
(0,0,0)
(0,0,0)
(0,0,0)
(0,0,0)
(4.19585861946077e-12,-5.74021187291523e-12,8.05092354433888e-10)
(8.06970157999849e-12,-1.29774132457744e-11,8.05313207030144e-10)
(1.00114965864952e-11,-2.38142785557034e-11,8.0392328735263e-10)
(1.21645044185517e-11,-4.37875626949062e-11,8.00418525706172e-10)
(1.73077161127254e-11,-8.4830882658757e-11,7.93654137035595e-10)
(2.55681354324664e-11,-1.73957489798619e-10,7.78728365092442e-10)
(3.31985371386947e-11,-3.56955028972908e-10,7.38766172589577e-10)
(3.95046295191563e-11,-6.45033303336057e-10,6.4963447947353e-10)
(4.38481156037819e-11,-1.19291105999856e-09,5.00217814404803e-10)
(4.65675296552964e-11,-2.52074227201799e-09,2.84460359781346e-10)
(0,0,0)
(0,0,0)
(0,0,0)
(0,0,0)
(0,0,0)
(0,0,0)
(5.4691887527874e-12,-4.15265207621846e-12,1.39755382391249e-09)
(9.2638283610046e-12,-8.69590726828843e-12,1.39772230861613e-09)
(1.12528992597645e-11,-1.60363779939681e-11,1.39624297212652e-09)
(1.37129971258878e-11,-3.17585034290363e-11,1.39215053678545e-09)
(1.80850973474028e-11,-6.48490718100195e-11,1.38159303147529e-09)
(2.5354494620609e-11,-1.33072423131477e-10,1.35696870255489e-09)
(3.27021833026982e-11,-2.64902697836522e-10,1.30117985088912e-09)
(3.81493705698812e-11,-4.94140642764867e-10,1.18397733825316e-09)
(4.22180879183716e-11,-9.75935786862013e-10,9.72907046461938e-10)
(4.45423310568495e-11,-2.23499060075035e-09,6.08122134476889e-10)
(0,0,0)
(0,0,0)
(0,0,0)
(0,0,0)
(0,0,0)
(0,0,0)
(6.42104925490464e-12,-2.17710383883478e-12,2.76481096658374e-09)
(1.01602044450004e-11,-4.34188765133691e-12,2.76478170875549e-09)
(1.29774081137495e-11,-8.31853673119368e-12,2.76318755876591e-09)
(1.6057765359784e-11,-1.70543353138854e-11,2.75884925598238e-09)
(2.02167246217813e-11,-3.58320117921586e-11,2.74603307922016e-09)
(2.60934430744479e-11,-7.30638696346605e-11,2.7142735174428e-09)
(3.27426193398602e-11,-1.44022045409665e-10,2.64578296914966e-09)
(3.7713101461518e-11,-2.80970183086957e-10,2.50584756753585e-09)
(4.16808596490698e-11,-6.09384233062994e-10,2.22771342279975e-09)
(4.4112824231603e-11,-1.62478556527425e-09,1.62130250832134e-09)
(0,0,0)
(0,0,0)
(0,0,0)
(0,0,0)
(0,0,0)
(0,0,0)
(0,0,0)
(0,0,0)
(0,0,0)
(0,0,0)
(0,0,0)
(0,0,0)
(0,0,0)
(0,0,0)
(0,0,0)
(0,0,0)
(0,0,0)
(0,0,0)
(0,0,0)
(0,0,0)
(0,0,0)
(0,0,0)
(0,0,0)
(0,0,0)
(0,0,0)
(0,0,0)
(0,0,0)
(0,0,0)
(0,0,0)
(0,0,0)
(0,0,0)
(0,0,0)
(0,0,0)
(0,0,0)
(0,0,0)
(0,0,0)
(0,0,0)
(0,0,0)
(0,0,0)
(0,0,0)
(0,0,0)
(0,0,0)
(0,0,0)
(0,0,0)
(0,0,0)
(0,0,0)
(0,0,0)
(0,0,0)
(0,0,0)
(0,0,0)
(0,0,0)
(0,0,0)
(0,0,0)
(0,0,0)
(0,0,0)
(0,0,0)
(0,0,0)
(0,0,0)
(0,0,0)
(0,0,0)
(0,0,0)
(0,0,0)
(0,0,0)
(0,0,0)
(0,0,0)
(0,0,0)
(0,0,0)
(0,0,0)
(0,0,0)
(0,0,0)
(0,0,0)
(0,0,0)
(0,0,0)
(0,0,0)
(0,0,0)
(0,0,0)
(0,0,0)
(0,0,0)
(0,0,0)
(0,0,0)
(0,0,0)
(0,0,0)
(0,0,0)
(0,0,0)
(0,0,0)
(0,0,0)
(0,0,0)
(0,0,0)
(0,0,0)
(0,0,0)
(0,0,0)
(0,0,0)
(0,0,0)
(0,0,0)
(0,0,0)
(0,0,0)
(0,0,0)
(0,0,0)
(0,0,0)
(0,0,0)
(0,0,0)
(0,0,0)
(7.25029818913684e-13,-3.13689691923471e-11,3.24779708116565e-11)
(4.23854901948104e-13,-6.84142996639752e-11,3.09810626796165e-11)
(1.16534896411407e-12,-1.16164319894406e-10,2.72656978296272e-11)
(2.3304790301729e-12,-1.81290664134385e-10,2.21184647998465e-11)
(2.75526373060751e-12,-2.76011165381205e-10,1.51355568173595e-11)
(2.4080317564238e-12,-4.15471768805633e-10,6.70972713240835e-12)
(2.83291909579386e-12,-6.16748364752575e-10,-1.36766702228143e-12)
(5.26408110867847e-12,-9.07453731625142e-10,-4.30430631922374e-12)
(7.50893129317046e-12,-1.31807129598891e-09,-3.88002807127054e-12)
(8.2428046037037e-12,-1.81618104040898e-09,-2.1796948503422e-12)
(0,0,0)
(0,0,0)
(0,0,0)
(0,0,0)
(0,0,0)
(0,0,0)
(1.38476464652842e-12,-2.98866806709568e-11,7.06987934617707e-11)
(2.1163788283636e-12,-6.47638276260845e-11,6.77658770864677e-11)
(4.01331672128911e-12,-1.10747179310314e-10,6.14285054184349e-11)
(5.74340525358023e-12,-1.7404120430701e-10,5.17677778751265e-11)
(5.97213519017125e-12,-2.67811744973596e-10,3.74373600917617e-11)
(5.89335060025327e-12,-4.08780202450692e-10,1.78152626443741e-11)
(7.58219562317921e-12,-6.16238455673613e-10,-2.08477116893021e-12)
(1.27983222846215e-11,-9.10866359216588e-10,-7.27727849382063e-12)
(1.6899149887977e-11,-1.32237478161093e-09,-5.25330558531245e-12)
(1.83204664837319e-11,-1.82022745909611e-09,-2.26922396771847e-12)
(0,0,0)
(0,0,0)
(0,0,0)
(0,0,0)
(0,0,0)
(0,0,0)
(1.09106389948652e-12,-2.68336138766698e-11,1.18967313668617e-10)
(2.59331779266166e-12,-5.8233903108092e-11,1.15461079537562e-10)
(4.58670935357585e-12,-1.00191667584225e-10,1.08076984171655e-10)
(6.4736484808972e-12,-1.58612683776407e-10,9.42994662335914e-11)
(7.09256537621003e-12,-2.48217489043195e-10,7.16514974237895e-11)
(7.38001994526321e-12,-3.90829119409738e-10,3.80206856134395e-11)
(1.05832692479074e-11,-6.14258485999206e-10,-3.05275327602904e-13)
(2.15040564609788e-11,-9.18306697219404e-10,-5.31378060294015e-12)
(2.76902613377631e-11,-1.32995417184096e-09,-3.55091025195748e-13)
(2.92803019207904e-11,-1.8259617643098e-09,1.73448093119489e-12)
(0,0,0)
(0,0,0)
(0,0,0)
(0,0,0)
(0,0,0)
(0,0,0)
(5.70437947976186e-13,-2.28410181089521e-11,1.84010477011776e-10)
(2.43819006723954e-12,-4.97793460650534e-11,1.80272905154195e-10)
(3.96281230388533e-12,-8.47208108705258e-11,1.72281825438451e-10)
(4.84110174580065e-12,-1.34262725986265e-10,1.56628926741047e-10)
(4.08227912952658e-12,-2.1368477915701e-10,1.29545178171022e-10)
(2.29641164503786e-12,-3.52160320995336e-10,8.60113993313717e-11)
(6.43265560804111e-12,-6.05932866660139e-10,2.58455409784887e-11)
(2.98997731225295e-11,-9.32922494356741e-10,2.35060056288447e-11)
(3.73634859898603e-11,-1.34029767320856e-09,2.490374297045e-11)
(3.87053310560801e-11,-1.83009006609448e-09,1.58135809998479e-11)
(0,0,0)
(0,0,0)
(0,0,0)
(0,0,0)
(0,0,0)
(0,0,0)
(6.68528961130949e-13,-1.85253752463136e-11,2.74475333156285e-10)
(1.99032010884144e-12,-3.97542148083072e-11,2.70694285068842e-10)
(2.44460714630947e-12,-6.59696492596044e-11,2.63333759582331e-10)
(1.29944649670908e-12,-1.03139230844246e-10,2.49519700765299e-10)
(-1.93903841029293e-12,-1.63850418199665e-10,2.27186114655062e-10)
(-4.40317475552288e-12,-2.7619189832414e-10,2.00400680695607e-10)
(3.67120123534907e-11,-5.35841573847472e-10,2.14110721293084e-10)
(4.54607625668813e-11,-9.47974802977302e-10,1.40338052633518e-10)
(4.62701320188877e-11,-1.34339719662598e-09,9.48526115918219e-11)
(4.52467110126798e-11,-1.8220582597819e-09,4.9461034464217e-11)
(0,0,0)
(0,0,0)
(0,0,0)
(0,0,0)
(0,0,0)
(0,0,0)
(1.12603834161957e-12,-1.39522228044689e-11,4.03122930474135e-10)
(2.38353717905093e-12,-2.97826962265245e-11,4.00289332316453e-10)
(1.98904696651018e-12,-4.78490564626908e-11,3.94470353170559e-10)
(8.12074790051063e-14,-7.26948902176901e-11,3.84737578565998e-10)
(-2.10788818413087e-12,-1.16503746174071e-10,3.70538957867313e-10)
(-1.74966388664312e-12,-2.1787467007424e-10,3.53453939117416e-10)
(3.53722501097554e-11,-5.35229442809387e-10,3.61071375400649e-10)
(4.69208373432218e-11,-9.33314442982965e-10,2.83967276919767e-10)
(4.81338265457381e-11,-1.31174159127232e-09,1.96242900650402e-10)
(4.71080851289329e-11,-1.77993908812091e-09,1.00920328939501e-10)
(0,0,0)
(0,0,0)
(0,0,0)
(0,0,0)
(0,0,0)
(0,0,0)
(1.71843512208229e-12,-9.87515362011066e-12,5.88252864288205e-10)
(3.7548316929131e-12,-2.08545249502411e-11,5.87038098179841e-10)
(3.85793737409861e-12,-3.2443366748088e-11,5.84376404538224e-10)
(4.28518100274499e-12,-4.71948107744149e-11,5.81548577884785e-10)
(1.16462367346325e-11,-7.17173765085992e-11,5.82845300727204e-10)
(3.83222182751549e-11,-1.35630711228086e-10,5.91716907814973e-10)
(3.13164424593e-11,-4.91591617363857e-10,5.23047388257695e-10)
(4.11713750930275e-11,-8.68625865506639e-10,4.98020926469334e-10)
(4.55338830310995e-11,-1.22568202845579e-09,3.4474926141015e-10)
(4.69378567827417e-11,-1.68291985514235e-09,1.77150598785947e-10)
(0,0,0)
(0,0,0)
(0,0,0)
(0,0,0)
(0,0,0)
(0,0,0)
(2.38744622696202e-12,-7.01852991783749e-12,8.6264164302181e-10)
(5.1781152799967e-12,-1.45212687189989e-11,8.6246678285878e-10)
(5.73835767059026e-12,-2.30001980124425e-11,8.61512268754539e-10)
(6.89983382460897e-12,-3.78654547000764e-11,8.6080830213226e-10)
(1.22516772062808e-11,-7.1814906439513e-11,8.6286141149618e-10)
(2.46452612684938e-11,-1.67443570844141e-10,8.68449303371982e-10)
(3.02778991182535e-11,-4.43924171665433e-10,8.49410242270243e-10)
(3.80286340156069e-11,-7.17436606329763e-10,7.23965069142589e-10)
(4.26302970911238e-11,-1.05914889986414e-09,5.28130146966558e-10)
(4.52762181695612e-11,-1.50526687809045e-09,2.85141877681164e-10)
(0,0,0)
(0,0,0)
(0,0,0)
(0,0,0)
(0,0,0)
(0,0,0)
(3.32515581164774e-12,-4.6950014850235e-12,1.26274514580426e-09)
(6.3891452336027e-12,-9.6784179572072e-12,1.26306970672272e-09)
(7.62749333863641e-12,-1.61376438456327e-11,1.26223631397794e-09)
(9.5663343210215e-12,-3.03990573865644e-11,1.25983021692646e-09)
(1.3692366250412e-11,-6.42546575409477e-11,1.25401223391787e-09)
(2.11347927891442e-11,-1.44579894405799e-10,1.23746182857554e-09)
(2.90240435117709e-11,-3.12538458970035e-10,1.18447948128743e-09)
(3.6049202681923e-11,-5.19123312609354e-10,1.04182880729197e-09)
(4.04514461052408e-11,-8.13439287224095e-10,8.07521127287446e-10)
(4.2459430057567e-11,-1.2170522611192e-09,4.64298977286546e-10)
(0,0,0)
(0,0,0)
(0,0,0)
(0,0,0)
(0,0,0)
(0,0,0)
(4.27320324373244e-12,-2.37263932207639e-12,1.75664631124084e-09)
(7.41246678298668e-12,-4.92665801382865e-12,1.75695900624688e-09)
(8.99717416658739e-12,-8.82418257984884e-12,1.75593439360893e-09)
(1.18196068076581e-11,-1.76423802081217e-11,1.75212070163234e-09)
(1.61442746074328e-11,-3.81889480424518e-11,1.74093304565938e-09)
(2.15201217324891e-11,-8.20104000962693e-11,1.71039931429065e-09)
(2.86559755442275e-11,-1.63408759035723e-10,1.6365999063747e-09)
(3.48770631095883e-11,-2.79995156987378e-10,1.47957207075658e-09)