/*--------------------------------*- C++ -*----------------------------------*\
| =========                 |                                                 |
| \\      /  F ield         | foam-extend: Open Source CFD                    |
|  \\    /   O peration     | Version:     4.0                                |
|   \\  /    A nd           | Web:         http://www.foam-extend.org         |
|    \\/     M anipulation  |                                                 |
\*---------------------------------------------------------------------------*/
FoamFile
{
    version 2.0;
    format ascii;
    class volVectorField;
    location "4061";
    object      H;
}
// * * * * * * * * * * * * * * * * * * * * * * * * * * * * * * * * * * * * * //

dimensions      [0 1 -1 0 0 0 0];

internalField   nonuniform List<vector>
4096
(
(0,0,0)
(0,0,0)
(0,0,0)
(0,0,0)
(0,0,0)
(0,0,0)
(0,0,0)
(0,0,0)
(0,0,0)
(0,0,0)
(0,0,0)
(0,0,0)
(0,0,0)
(0,0,0)
(0,0,0)
(0,0,0)
(0,0,0)
(0,0,0)
(0,0,0)
(0,0,0)
(0,0,0)
(0,0,0)
(0,0,0)
(0,0,0)
(0,0,0)
(0,0,0)
(0,0,0)
(0,0,0)
(0,0,0)
(0,0,0)
(0,0,0)
(0,0,0)
(0,0,0)
(0,0,0)
(0,0,0)
(0,0,0)
(0,0,0)
(0,0,0)
(0,0,0)
(0,0,0)
(0,0,0)
(0,0,0)
(0,0,0)
(0,0,0)
(0,0,0)
(0,0,0)
(0,0,0)
(0,0,0)
(0,0,0)
(0,0,0)
(0,0,0)
(0,0,0)
(0,0,0)
(0,0,0)
(0,0,0)
(0,0,0)
(0,0,0)
(0,0,0)
(0,0,0)
(0,0,0)
(0,0,0)
(0,0,0)
(0,0,0)
(0,0,0)
(0,0,0)
(0,0,0)
(0,0,0)
(0,0,0)
(0,0,0)
(0,0,0)
(0,0,0)
(0,0,0)
(0,0,0)
(0,0,0)
(0,0,0)
(0,0,0)
(0,0,0)
(0,0,0)
(0,0,0)
(0,0,0)
(0,0,0)
(0,0,0)
(0,0,0)
(0,0,0)
(0,0,0)
(0,0,0)
(0,0,0)
(0,0,0)
(0,0,0)
(0,0,0)
(0,0,0)
(0,0,0)
(0,0,0)
(0,0,0)
(0,0,0)
(0,0,0)
(0,0,0)
(0,0,0)
(0,0,0)
(0,0,0)
(0,0,0)
(0,0,0)
(0,0,0)
(0,0,0)
(0,0,0)
(0,0,0)
(0,0,0)
(0,0,0)
(0,0,0)
(0,0,0)
(0,0,0)
(0,0,0)
(0,0,0)
(0,0,0)
(0,0,0)
(0,0,0)
(0,0,0)
(0,0,0)
(0,0,0)
(0,0,0)
(0,0,0)
(0,0,0)
(0,0,0)
(0,0,0)
(0,0,0)
(0,0,0)
(0,0,0)
(0,0,0)
(0,0,0)
(0,0,0)
(0,0,0)
(0,0,0)
(0,0,0)
(0,0,0)
(0,0,0)
(0,0,0)
(0,0,0)
(0,0,0)
(0,0,0)
(0,0,0)
(0,0,0)
(0,0,0)
(0,0,0)
(0,0,0)
(0,0,0)
(0,0,0)
(0,0,0)
(0,0,0)
(0,0,0)
(0,0,0)
(0,0,0)
(0,0,0)
(0,0,0)
(0,0,0)
(0,0,0)
(0,0,0)
(0,0,0)
(0,0,0)
(0,0,0)
(0,0,0)
(0,0,0)
(0,0,0)
(0,0,0)
(0,0,0)
(0,0,0)
(0,0,0)
(0,0,0)
(0,0,0)
(0,0,0)
(0,0,0)
(0,0,0)
(0,0,0)
(0,0,0)
(0,0,0)
(0,0,0)
(0,0,0)
(0,0,0)
(0,0,0)
(0,0,0)
(0,0,0)
(0,0,0)
(0,0,0)
(0,0,0)
(0,0,0)
(0,0,0)
(0,0,0)
(0,0,0)
(0,0,0)
(0,0,0)
(0,0,0)
(0,0,0)
(0,0,0)
(0,0,0)
(0,0,0)
(0,0,0)
(0,0,0)
(0,0,0)
(0,0,0)
(0,0,0)
(0,0,0)
(0,0,0)
(0,0,0)
(0,0,0)
(0,0,0)
(0,0,0)
(0,0,0)
(0,0,0)
(0,0,0)
(0,0,0)
(0,0,0)
(0,0,0)
(0,0,0)
(0,0,0)
(0,0,0)
(0,0,0)
(0,0,0)
(0,0,0)
(0,0,0)
(0,0,0)
(0,0,0)
(0,0,0)
(0,0,0)
(0,0,0)
(0,0,0)
(0,0,0)
(0,0,0)
(0,0,0)
(0,0,0)
(0,0,0)
(0,0,0)
(0,0,0)
(0,0,0)
(0,0,0)
(0,0,0)
(0,0,0)
(0,0,0)
(0,0,0)
(0,0,0)
(0,0,0)
(0,0,0)
(0,0,0)
(0,0,0)
(0,0,0)
(0,0,0)
(0,0,0)
(0,0,0)
(0,0,0)
(0,0,0)
(0,0,0)
(0,0,0)
(0,0,0)
(0,0,0)
(0,0,0)
(0,0,0)
(0,0,0)
(0,0,0)
(0,0,0)
(0,0,0)
(0,0,0)
(0,0,0)
(0,0,0)
(0,0,0)
(0,0,0)
(0,0,0)
(0,0,0)
(0,0,0)
(0,0,0)
(0,0,0)
(0,0,0)
(0,0,0)
(0,0,0)
(0,0,0)
(0,0,0)
(0,0,0)
(0,0,0)
(0,0,0)
(0,0,0)
(0,0,0)
(0,0,0)
(0,0,0)
(0,0,0)
(0,0,0)
(0,0,0)
(0,0,0)
(0,0,0)
(0,0,0)
(0,0,0)
(0,0,0)
(0,0,0)
(0,0,0)
(0,0,0)
(0,0,0)
(0,0,0)
(0,0,0)
(0,0,0)
(0,0,0)
(0,0,0)
(0,0,0)
(0,0,0)
(0,0,0)
(0,0,0)
(0,0,0)
(0,0,0)
(0,0,0)
(0,0,0)
(0,0,0)
(0,0,0)
(0,0,0)
(0,0,0)
(0,0,0)
(0,0,0)
(0,0,0)
(0,0,0)
(0,0,0)
(0,0,0)
(0,0,0)
(0,0,0)
(0,0,0)
(0,0,0)
(0,0,0)
(0,0,0)
(0,0,0)
(0,0,0)
(0,0,0)
(0,0,0)
(0,0,0)
(0,0,0)
(0,0,0)
(0,0,0)
(0,0,0)
(0,0,0)
(0,0,0)
(0,0,0)
(0,0,0)
(0,0,0)
(0,0,0)
(0,0,0)
(0,0,0)
(0,0,0)
(0,0,0)
(0,0,0)
(0,0,0)
(0,0,0)
(0,0,0)
(0,0,0)
(0,0,0)
(0,0,0)
(0,0,0)
(0,0,0)
(0,0,0)
(0,0,0)
(0,0,0)
(0,0,0)
(0,0,0)
(0,0,0)
(0,0,0)
(0,0,0)
(0,0,0)
(0,0,0)
(0,0,0)
(0,0,0)
(0,0,0)
(0,0,0)
(0,0,0)
(0,0,0)
(0,0,0)
(0,0,0)
(0,0,0)
(0,0,0)
(0,0,0)
(0,0,0)
(0,0,0)
(0,0,0)
(0,0,0)
(0,0,0)
(0,0,0)
(0,0,0)
(0,0,0)
(0,0,0)
(0,0,0)
(0,0,0)
(0,0,0)
(0,0,0)
(0,0,0)
(0,0,0)
(0,0,0)
(0,0,0)
(0,0,0)
(0,0,0)
(0,0,0)
(0,0,0)
(0,0,0)
(0,0,0)
(0,0,0)
(0,0,0)
(0,0,0)
(0,0,0)
(0,0,0)
(0,0,0)
(0,0,0)
(0,0,0)
(0,0,0)
(0,0,0)
(0,0,0)
(0,0,0)
(0,0,0)
(0,0,0)
(0,0,0)
(0,0,0)
(0,0,0)
(0,0,0)
(0,0,0)
(0,0,0)
(0,0,0)
(0,0,0)
(0,0,0)
(0,0,0)
(0,0,0)
(0,0,0)
(0,0,0)
(0,0,0)
(0,0,0)
(0,0,0)
(0,0,0)
(0,0,0)
(0,0,0)
(0,0,0)
(0,0,0)
(0,0,0)
(0,0,0)
(0,0,0)
(0,0,0)
(0,0,0)
(0,0,0)
(0,0,0)
(0,0,0)
(0,0,0)
(0,0,0)
(0,0,0)
(0,0,0)
(0,0,0)
(0,0,0)
(0,0,0)
(0,0,0)
(0,0,0)
(0,0,0)
(0,0,0)
(0,0,0)
(0,0,0)
(0,0,0)
(0,0,0)
(0,0,0)
(0,0,0)
(0,0,0)
(0,0,0)
(0,0,0)
(0,0,0)
(0,0,0)
(0,0,0)
(0,0,0)
(0,0,0)
(0,0,0)
(0,0,0)
(0,0,0)
(0,0,0)
(0,0,0)
(0,0,0)
(0,0,0)
(0,0,0)
(0,0,0)
(0,0,0)
(0,0,0)
(0,0,0)
(0,0,0)
(0,0,0)
(0,0,0)
(0,0,0)
(0,0,0)
(0,0,0)
(0,0,0)
(0,0,0)
(0,0,0)
(0,0,0)
(0,0,0)
(0,0,0)
(0,0,0)
(0,0,0)
(0,0,0)
(0,0,0)
(0,0,0)
(0,0,0)
(0,0,0)
(0,0,0)
(0,0,0)
(0,0,0)
(0,0,0)
(0,0,0)
(0,0,0)
(0,0,0)
(0,0,0)
(0,0,0)
(0,0,0)
(0,0,0)
(0,0,0)
(0,0,0)
(0,0,0)
(0,0,0)
(0,0,0)
(0,0,0)
(0,0,0)
(0,0,0)
(0,0,0)
(0,0,0)
(0,0,0)
(0,0,0)
(0,0,0)
(0,0,0)
(0,0,0)
(0,0,0)
(0,0,0)
(0,0,0)
(0,0,0)
(0,0,0)
(0,0,0)
(0,0,0)
(0,0,0)
(0,0,0)
(0,0,0)
(0,0,0)
(0,0,0)
(0,0,0)
(0,0,0)
(0,0,0)
(0,0,0)
(0,0,0)
(0,0,0)
(0,0,0)
(0,0,0)
(0,0,0)
(0,0,0)
(0,0,0)
(0,0,0)
(0,0,0)
(0,0,0)
(0,0,0)
(0,0,0)
(0,0,0)
(0,0,0)
(0,0,0)
(0,0,0)
(0,0,0)
(0,0,0)
(0,0,0)
(0,0,0)
(0,0,0)
(0,0,0)
(0,0,0)
(0,0,0)
(0,0,0)
(0,0,0)
(0,0,0)
(0,0,0)
(0,0,0)
(0,0,0)
(0,0,0)
(0,0,0)
(0,0,0)
(0,0,0)
(0,0,0)
(0,0,0)
(0,0,0)
(0,0,0)
(0,0,0)
(0,0,0)
(0,0,0)
(0,0,0)
(0,0,0)
(0,0,0)
(0,0,0)
(0,0,0)
(0,0,0)
(0,0,0)
(0,0,0)
(0,0,0)
(0,0,0)
(0,0,0)
(0,0,0)
(0,0,0)
(0,0,0)
(0,0,0)
(0,0,0)
(0,0,0)
(0,0,0)
(0,0,0)
(0,0,0)
(0,0,0)
(0,0,0)
(0,0,0)
(0,0,0)
(0,0,0)
(0,0,0)
(0,0,0)
(0,0,0)
(0,0,0)
(0,0,0)
(0,0,0)
(0,0,0)
(0,0,0)
(0,0,0)
(0,0,0)
(0,0,0)
(0,0,0)
(0,0,0)
(0,0,0)
(0,0,0)
(0,0,0)
(0,0,0)
(0,0,0)
(0,0,0)
(0,0,0)
(0,0,0)
(0,0,0)
(0,0,0)
(0,0,0)
(0,0,0)
(0,0,0)
(0,0,0)
(0,0,0)
(0,0,0)
(0,0,0)
(0,0,0)
(0,0,0)
(0,0,0)
(0,0,0)
(0,0,0)
(0,0,0)
(0,0,0)
(0,0,0)
(0,0,0)
(0,0,0)
(0,0,0)
(0,0,0)
(0,0,0)
(0,0,0)
(0,0,0)
(0,0,0)
(0,0,0)
(0,0,0)
(0,0,0)
(0,0,0)
(0,0,0)
(0,0,0)
(0,0,0)
(0,0,0)
(0,0,0)
(0,0,0)
(0,0,0)
(0,0,0)
(0,0,0)
(0,0,0)
(0,0,0)
(0,0,0)
(0,0,0)
(0,0,0)
(0,0,0)
(0,0,0)
(0,0,0)
(0,0,0)
(0,0,0)
(0,0,0)
(0,0,0)
(0,0,0)
(0,0,0)
(0,0,0)
(0,0,0)
(0,0,0)
(0,0,0)
(0,0,0)
(0,0,0)
(0,0,0)
(0,0,0)
(0,0,0)
(0,0,0)
(0,0,0)
(0,0,0)
(0,0,0)
(0,0,0)
(0,0,0)
(0,0,0)
(0,0,0)
(0,0,0)
(0,0,0)
(0,0,0)
(0,0,0)
(0,0,0)
(0,0,0)
(0,0,0)
(0,0,0)
(0,0,0)
(0,0,0)
(0,0,0)
(0,0,0)
(0,0,0)
(0,0,0)
(0,0,0)
(0,0,0)
(0,0,0)
(0,0,0)
(0,0,0)
(0,0,0)
(0,0,0)
(0,0,0)
(0,0,0)
(0,0,0)
(0,0,0)
(0,0,0)
(0,0,0)
(0,0,0)
(0,0,0)
(0,0,0)
(0,0,0)
(0,0,0)
(0,0,0)
(0,0,0)
(0,0,0)
(0,0,0)
(0,0,0)
(0,0,0)
(0,0,0)
(0,0,0)
(0,0,0)
(0,0,0)
(0,0,0)
(0,0,0)
(0,0,0)
(0,0,0)
(0,0,0)
(0,0,0)
(0,0,0)
(0,0,0)
(0,0,0)
(0,0,0)
(0,0,0)
(0,0,0)
(0,0,0)
(0,0,0)
(0,0,0)
(0,0,0)
(0,0,0)
(0,0,0)
(0,0,0)
(0,0,0)
(0,0,0)
(0,0,0)
(0,0,0)
(0,0,0)
(0,0,0)
(0,0,0)
(0,0,0)
(0,0,0)
(0,0,0)
(0,0,0)
(0,0,0)
(0,0,0)
(0,0,0)
(0,0,0)
(0,0,0)
(0,0,0)
(0,0,0)
(0,0,0)
(0,0,0)
(0,0,0)
(0,0,0)
(0,0,0)
(0,0,0)
(0,0,0)
(0,0,0)
(0,0,0)
(0,0,0)
(0,0,0)
(0,0,0)
(0,0,0)
(0,0,0)
(0,0,0)
(0,0,0)
(0,0,0)
(0,0,0)
(0,0,0)
(0,0,0)
(0,0,0)
(0,0,0)
(0,0,0)
(0,0,0)
(0,0,0)
(0,0,0)
(0,0,0)
(0,0,0)
(0,0,0)
(0,0,0)
(0,0,0)
(0,0,0)
(0,0,0)
(0,0,0)
(0,0,0)
(0,0,0)
(0,0,0)
(0,0,0)
(0,0,0)
(0,0,0)
(0,0,0)
(0,0,0)
(0,0,0)
(0,0,0)
(0,0,0)
(0,0,0)
(0,0,0)
(0,0,0)
(0,0,0)
(0,0,0)
(-9.89669057867993e-13,-5.64672215723269e-12,7.31697635659695e-12)
(-1.98194025202466e-12,-1.25164233304281e-11,7.21265106837512e-12)
(-2.30479347721627e-12,-2.12636560661383e-11,6.65979688332622e-12)
(-2.23488411205983e-12,-3.55502628609915e-11,5.4410019713903e-12)
(-2.34468827859246e-12,-5.77523104226317e-11,3.96848233651429e-12)
(-2.24046111035454e-12,-9.21695784530936e-11,2.37992233700076e-12)
(-1.60571823503974e-12,-1.50348160139438e-10,1.10749878004413e-12)
(7.54919031512339e-13,-2.48604366030075e-10,4.27735025781949e-13)
(3.4213042082876e-12,-4.11064395117935e-10,-1.58272486493689e-13)
(5.32823597635239e-12,-6.38532621080812e-10,-2.2312715819662e-13)
(0,0,0)
(0,0,0)
(0,0,0)
(0,0,0)
(0,0,0)
(0,0,0)
(-1.95777599405146e-12,-5.62216015138682e-12,1.6061736882291e-11)
(-4.15516247484824e-12,-1.22042720761373e-11,1.5754505261064e-11)
(-5.22678363997246e-12,-2.03791220979616e-11,1.45234259928125e-11)
(-5.20848071672126e-12,-3.40330999339845e-11,1.22821093610019e-11)
(-5.75179831627188e-12,-5.61030770892344e-11,9.63494140076078e-12)
(-5.03090172842288e-12,-9.12289196322206e-11,6.56642061646285e-12)
(-1.87963356482565e-12,-1.50055043253422e-10,3.74269598872545e-12)
(3.48121843951233e-12,-2.48433173710206e-10,1.82603640688835e-12)
(7.77500638284601e-12,-4.11304570200488e-10,9.82268569837481e-13)
(1.09356241784945e-11,-6.38850769621043e-10,5.01692174880537e-13)
(0,0,0)
(0,0,0)
(0,0,0)
(0,0,0)
(0,0,0)
(0,0,0)
(-2.87896352833242e-12,-5.07684088885881e-12,2.70157798433714e-11)
(-5.4011341189245e-12,-1.13745235658382e-11,2.6326260646412e-11)
(-6.99395190872528e-12,-1.91245782858112e-11,2.43935219530415e-11)
(-7.94397494310562e-12,-3.19426995940502e-11,2.16057847198903e-11)
(-8.25261458599892e-12,-5.33397393265334e-11,1.7883198253608e-11)
(-6.41368239352976e-12,-8.90257825349241e-11,1.33171291818236e-11)
(-1.52929119774521e-12,-1.48765376806695e-10,8.74416340228108e-12)
(4.50869741340859e-12,-2.48098350365683e-10,5.47168915669446e-12)
(9.02353645261993e-12,-4.10969293615371e-10,3.63500075323723e-12)
(1.22170397954616e-11,-6.38059370250883e-10,1.87469095458315e-12)
(0,0,0)
(0,0,0)
(0,0,0)
(0,0,0)
(0,0,0)
(0,0,0)
(-4.58027831935383e-12,-4.29803946088184e-12,4.23681677872429e-11)
(-7.54388058630721e-12,-9.78854560569403e-12,4.12365438640066e-11)
(-8.72928746853925e-12,-1.73132562593963e-11,3.89889796350084e-11)
(-1.00878711124699e-11,-2.93512544917541e-11,3.63469220303975e-11)
(-1.03693919132271e-11,-4.97029339331638e-11,3.22610263346228e-11)
(-7.43399611712952e-12,-8.52900349219195e-11,2.65261754716051e-11)
(-9.40177224647007e-13,-1.46122318456758e-10,2.03532971692466e-11)
(4.81208250724307e-12,-2.46996630278549e-10,1.50387356281432e-11)
(8.73178334536457e-12,-4.09804192820939e-10,1.0170431824833e-11)
(1.09795389448776e-11,-6.36393658486848e-10,5.09763707131039e-12)
(0,0,0)
(0,0,0)
(0,0,0)
(0,0,0)
(0,0,0)
(0,0,0)
(-4.90328243628117e-12,-3.51575958931947e-12,6.47080863530632e-11)
(-7.80561240641206e-12,-8.43325135991712e-12,6.33314426791976e-11)
(-8.62724334798467e-12,-1.55802521794098e-11,6.11623451971363e-11)
(-9.84723952589014e-12,-2.63970238855873e-11,5.86041965167645e-11)
(-1.07728210358469e-11,-4.49202563175683e-11,5.45113489213425e-11)
(-8.37181377221472e-12,-7.92438985102279e-11,4.8800673802859e-11)
(-1.83648309459647e-12,-1.40861187488049e-10,4.2351364849512e-11)
(3.83673630705129e-12,-2.43457782311514e-10,3.37410142242662e-11)
(7.51637029696186e-12,-4.06279615627567e-10,2.35439986309269e-11)
(9.15913621227794e-12,-6.32446851704059e-10,1.19425689175153e-11)
(0,0,0)
(0,0,0)
(0,0,0)
(0,0,0)
(0,0,0)
(0,0,0)
(-5.51544219733497e-12,-2.93953803078494e-12,1.00764642324534e-10)
(-8.11003109147613e-12,-7.20040696844003e-12,9.95966124742045e-11)
(-9.10160525877385e-12,-1.31936999669802e-11,9.73946677918655e-11)
(-1.03744315110119e-11,-2.23853302303834e-11,9.44365497241742e-11)
(-1.05771430548235e-11,-3.9206322074803e-11,9.03124321659854e-11)
(-8.0768601480509e-12,-7.22840627131321e-11,8.47987369576852e-11)
(-2.82464329437218e-12,-1.34093582050002e-10,7.6684836787967e-11)
(1.06357050379335e-12,-2.35660235957716e-10,6.39300778416174e-11)
(3.72139703523479e-12,-3.9670237060725e-10,4.61267788757521e-11)
(5.68795540249645e-12,-6.22050120770442e-10,2.42105374814914e-11)
(0,0,0)
(0,0,0)
(0,0,0)
(0,0,0)
(0,0,0)
(0,0,0)
(-5.17059585263436e-12,-2.60272906020722e-12,1.5901372757948e-10)
(-8.42294866637047e-12,-5.560753834608e-12,1.57589543719409e-10)
(-1.01780313985998e-11,-1.01889624996322e-11,1.55741739739453e-10)
(-1.04793575011723e-11,-1.81232671779528e-11,1.52948222180629e-10)
(-1.03121522402957e-11,-3.31723200939077e-11,1.48895997620653e-10)
(-9.1890380667459e-12,-6.32785169368713e-11,1.42867650997675e-10)
(-6.91699810751773e-12,-1.22368111439071e-10,1.31504538451953e-10)
(-4.22244135166114e-12,-2.20057737006312e-10,1.13483074559556e-10)
(-1.87399659318812e-12,-3.77239045477874e-10,8.46142587643278e-11)
(-1.07632998987851e-13,-5.99951831706036e-10,4.58444295831853e-11)
(0,0,0)
(0,0,0)
(0,0,0)
(0,0,0)
(0,0,0)
(0,0,0)
(-2.91665449775404e-12,-2.04465421177278e-12,2.54620510529829e-10)
(-6.04124305520287e-12,-4.20853538549666e-12,2.5324634652413e-10)
(-8.79177132940067e-12,-7.5114695325167e-12,2.51853972038256e-10)
(-9.79366430334096e-12,-1.41390575760878e-11,2.49797675773885e-10)
(-1.04943837447853e-11,-2.75217211891404e-11,2.46219965709843e-10)
(-1.12106103869597e-11,-5.40108532005965e-11,2.39390796205658e-10)
(-1.06843139714028e-11,-1.05684369877232e-10,2.24895594514028e-10)
(-8.91632921967003e-12,-1.93152459244242e-10,1.98134383883613e-10)
(-7.60613776035284e-12,-3.40862297120106e-10,1.53429308423765e-10)
(-6.09499518556699e-12,-5.56270341682046e-10,8.70259169459001e-11)
(0,0,0)
(0,0,0)
(0,0,0)
(0,0,0)
(0,0,0)
(0,0,0)
(-3.6403344676726e-13,-1.12846935826531e-12,4.14684684385468e-10)
(-2.40099303385483e-12,-2.66582965434226e-12,4.14381805545118e-10)
(-5.60779428186649e-12,-5.09453312403497e-12,4.13929745271829e-10)
(-8.44858759586304e-12,-1.0158575810072e-11,4.12310869967072e-10)
(-1.08420163334303e-11,-2.02430786679129e-11,4.0819845716819e-10)
(-1.25095506346948e-11,-4.01276271702152e-11,3.99428458737346e-10)
(-1.33377794414606e-11,-7.93018387330271e-11,3.8072762336839e-10)
(-1.28202624605097e-11,-1.49519067234058e-10,3.44206138587165e-10)
(-1.25031761132243e-11,-2.76019408984424e-10,2.78703932757732e-10)
(-1.24887449144372e-11,-4.70798342535701e-10,1.67783857618205e-10)
(0,0,0)
(0,0,0)
(0,0,0)
(0,0,0)
(0,0,0)
(0,0,0)
(6.10921217105661e-13,-4.14805288282253e-13,6.3955883944636e-10)
(-4.97687041891871e-13,-1.1138956510976e-12,6.39956258112978e-10)
(-4.31932483328754e-12,-2.62415633021708e-12,6.40648079074495e-10)
(-8.6843086516106e-12,-5.52239616567569e-12,6.39145069636203e-10)
(-1.25776687229415e-11,-1.09252170775777e-11,6.33990401216431e-10)
(-1.50173449376518e-11,-2.14869577540241e-11,6.23428092355406e-10)
(-1.64200257219e-11,-4.28676662817673e-11,6.01796281043968e-10)
(-1.62646378536461e-11,-8.45545488312184e-11,5.58614816661054e-10)
(-1.61659051030238e-11,-1.65960844879865e-10,4.73203367418494e-10)
(-1.77643435316509e-11,-3.04364444044691e-10,3.0615197815044e-10)
(0,0,0)
(0,0,0)
(0,0,0)
(0,0,0)
(0,0,0)
(0,0,0)
(0,0,0)
(0,0,0)
(0,0,0)
(0,0,0)
(0,0,0)
(0,0,0)
(0,0,0)
(0,0,0)
(0,0,0)
(0,0,0)
(0,0,0)
(0,0,0)
(0,0,0)
(0,0,0)
(0,0,0)
(0,0,0)
(0,0,0)
(0,0,0)
(0,0,0)
(0,0,0)
(0,0,0)
(0,0,0)
(0,0,0)
(0,0,0)
(0,0,0)
(0,0,0)
(0,0,0)
(0,0,0)
(0,0,0)
(0,0,0)
(0,0,0)
(0,0,0)
(0,0,0)
(0,0,0)
(0,0,0)
(0,0,0)
(0,0,0)
(0,0,0)
(0,0,0)
(0,0,0)
(0,0,0)
(0,0,0)
(0,0,0)
(0,0,0)
(0,0,0)
(0,0,0)
(0,0,0)
(0,0,0)
(0,0,0)
(0,0,0)
(0,0,0)
(0,0,0)
(0,0,0)
(0,0,0)
(0,0,0)
(0,0,0)
(0,0,0)
(0,0,0)
(0,0,0)
(0,0,0)
(0,0,0)
(0,0,0)
(0,0,0)
(0,0,0)
(0,0,0)
(0,0,0)
(0,0,0)
(0,0,0)
(0,0,0)
(0,0,0)
(0,0,0)
(0,0,0)
(0,0,0)
(0,0,0)
(0,0,0)
(0,0,0)
(0,0,0)
(0,0,0)
(0,0,0)
(0,0,0)
(0,0,0)
(0,0,0)
(0,0,0)
(0,0,0)
(0,0,0)
(0,0,0)
(0,0,0)
(0,0,0)
(0,0,0)
(0,0,0)
(0,0,0)
(0,0,0)
(0,0,0)
(0,0,0)
(0,0,0)
(0,0,0)
(-9.09905775494349e-13,-9.84509812017529e-12,1.3571269772222e-11)
(-1.74123732126943e-12,-2.33788947697859e-11,1.3173485432961e-11)
(-1.97053253347375e-12,-3.97525065011398e-11,1.1572321102444e-11)
(-2.27952740420914e-12,-6.44448349497142e-11,8.98791102323088e-12)
(-2.40536161254184e-12,-1.03402696871947e-10,6.06488344079041e-12)
(-1.90869637415849e-12,-1.6367419812909e-10,3.04303680506408e-12)
(-1.21907136665765e-12,-2.62881707132325e-10,6.48405119522881e-13)
(1.16973422379911e-12,-4.32452009917378e-10,-7.33951638888191e-13)
(3.72633396197304e-12,-7.57223628227711e-10,-1.31055100147738e-12)
(5.42325735815033e-12,-1.50613518312564e-09,-7.79182303091322e-13)
(0,0,0)
(0,0,0)
(0,0,0)
(0,0,0)
(0,0,0)
(0,0,0)
(-2.19586363535374e-12,-9.83340620051575e-12,2.92234670885519e-11)
(-3.75383171688005e-12,-2.2411776727719e-11,2.81773428340266e-11)
(-4.24001082033038e-12,-3.78124912257057e-11,2.53827764886204e-11)
(-4.65171309638538e-12,-6.17404794429305e-11,2.10657352529531e-11)
(-5.44661529465991e-12,-1.00533497575852e-10,1.57814007066422e-11)
(-4.41031419800515e-12,-1.61952158952612e-10,9.40931522850711e-12)
(-1.25264042987053e-12,-2.62704848710746e-10,3.51605946979529e-12)
(3.9901629325444e-12,-4.32860485374689e-10,1.43973840187619e-13)
(7.92030619301884e-12,-7.58249938563097e-10,-5.21908877503303e-13)
(1.06459169830693e-11,-1.50729492431535e-09,-8.20270471092608e-14)
(0,0,0)
(0,0,0)
(0,0,0)
(0,0,0)
(0,0,0)
(0,0,0)
(-2.96824575934945e-12,-9.19183990168482e-12,4.94002606858831e-11)
(-5.05437338569568e-12,-2.07727233014018e-11,4.76749795279243e-11)
(-6.01753670195243e-12,-3.49381942978533e-11,4.39104238795349e-11)
(-6.81283357913927e-12,-5.73233564503614e-11,3.8444839552227e-11)
(-7.32335090764988e-12,-9.49399245908387e-11,3.08310107889856e-11)
(-5.57646422701189e-12,-1.57115159068137e-10,2.08401335850486e-11)
(-8.99875301997874e-13,-2.60651950163715e-10,1.0736284568283e-11)
(5.24366572954265e-12,-4.33530679758023e-10,5.56091939287796e-12)
(9.61874545684085e-12,-7.59299378889448e-10,3.79644129803549e-12)
(1.24260189854523e-11,-1.50736360963635e-09,2.21655612851539e-12)
(0,0,0)
(0,0,0)
(0,0,0)
(0,0,0)
(0,0,0)
(0,0,0)
(-4.23093426767875e-12,-7.86866996472507e-12,7.74959072671312e-11)
(-6.65161060308629e-12,-1.80453930377667e-11,7.49789995770031e-11)
(-7.82023394392852e-12,-3.10079295573998e-11,7.04053688014705e-11)
(-8.95620602286086e-12,-5.10698551910217e-11,6.45258892082998e-11)
(-9.41721866579754e-12,-8.60482447845817e-11,5.60356800790478e-11)
(-7.30725422645801e-12,-1.47693731277006e-10,4.40555064887661e-11)
(-8.86746652280618e-13,-2.55626899639036e-10,3.0552193443607e-11)
(6.14153834352088e-12,-4.33854181418157e-10,2.19952457006967e-11)
(1.02800009063115e-11,-7.59654831069393e-10,1.53427097270899e-11)
(1.21303692349661e-11,-1.50591459562584e-09,7.85531811963762e-12)
(0,0,0)
(0,0,0)
(0,0,0)
(0,0,0)
(0,0,0)
(0,0,0)
(-4.10286032095182e-12,-6.15822906316726e-12,1.17337179572171e-10)
(-6.86935931583081e-12,-1.48615792162386e-11,1.15076427377094e-10)
(-8.45564688004692e-12,-2.63437894608014e-11,1.10821445893488e-10)
(-9.76608558567086e-12,-4.35422236116249e-11,1.0509751984912e-10)
(-1.07760801601267e-11,-7.4406295434647e-11,9.7045687630596e-11)
(-8.88234061603388e-12,-1.32772526497587e-10,8.69734851276407e-11)
(6.26209270202054e-15,-2.438861953761e-10,7.73055980120917e-11)
(6.23620554682215e-12,-4.30442906178055e-10,5.95439459760528e-11)
(9.54055498960391e-12,-7.5582059304228e-10,4.11343652657661e-11)
(1.07049741959636e-11,-1.50035435439946e-09,2.07985811389328e-11)
(0,0,0)
(0,0,0)
(0,0,0)
(0,0,0)
(0,0,0)
(0,0,0)
(-4.68422131758103e-12,-4.67029341646938e-12,1.784939334361e-10)
(-7.54773954297314e-12,-1.15872386532384e-11,1.77075376973349e-10)
(-9.14822465844016e-12,-2.09228619153956e-11,1.73382646495292e-10)
(-1.05123770052508e-11,-3.50960583910543e-11,1.67973293840458e-10)
(-1.10974498274048e-11,-6.23782706930173e-11,1.61157153796447e-10)
(-8.96850575458524e-12,-1.18367475515533e-10,1.52100820505272e-10)
(-1.79535495904193e-12,-2.34377708614558e-10,1.39414815152648e-10)
(3.26437051813901e-12,-4.18839151975288e-10,1.15699933943746e-10)
(6.17431330003735e-12,-7.40028083017329e-10,8.28134943500012e-11)
(7.8002038198802e-12,-1.48243632842566e-09,4.31993000331761e-11)
(0,0,0)
(0,0,0)
(0,0,0)
(0,0,0)
(0,0,0)
(0,0,0)
(-4.30448684100008e-12,-4.04889209121463e-12,2.76924917643726e-10)
(-7.92736313552242e-12,-8.74914138778667e-12,2.75248550694031e-10)
(-1.00620068068845e-11,-1.58859151524735e-11,2.7223474189739e-10)
(-1.04113425430682e-11,-2.7583822643488e-11,2.67742440680389e-10)
(-9.93440452203841e-12,-5.04482657695311e-11,2.62301720847687e-10)
(-7.09358925731105e-12,-9.99078567725168e-11,2.53941195397525e-10)
(-5.57927577692995e-12,-2.14101869517284e-10,2.32886391803606e-10)
(-2.2589033187388e-12,-3.91391702248623e-10,2.03765221175026e-10)
(5.19084230628789e-13,-7.04859242417209e-10,1.50195734887966e-10)
(2.05530656115123e-12,-1.44264698990868e-09,8.0831389448577e-11)
(0,0,0)
(0,0,0)
(0,0,0)
(0,0,0)
(0,0,0)
(0,0,0)
(-2.4586753455612e-12,-3.28645531636639e-12,4.43543501761064e-10)
(-6.19157430048171e-12,-6.55786859027067e-12,4.41788855188467e-10)
(-9.15241147350643e-12,-1.1668398637202e-11,4.39461894861646e-10)
(-1.01964360053171e-11,-2.15331988894632e-11,4.36422839346244e-10)
(-1.09438567618533e-11,-4.25827572766851e-11,4.3188510532382e-10)
(-1.05986347256287e-11,-8.85744074962559e-11,4.22829843848825e-10)
(-1.03056344851276e-11,-1.86019495429392e-10,4.00133029841518e-10)
(-7.84464577025549e-12,-3.41125356691149e-10,3.51577800170719e-10)
(-6.04563441805983e-12,-6.39109558966305e-10,2.7065212630928e-10)
(-4.54107738697967e-12,-1.36513257840025e-09,1.53864131411658e-10)
(0,0,0)
(0,0,0)
(0,0,0)
(0,0,0)
(0,0,0)
(0,0,0)
(-7.74818676401206e-13,-1.59074843446669e-12,7.64617165726424e-10)
(-3.50086676380958e-12,-3.99781181106081e-12,7.64459463640167e-10)
(-6.45929577092243e-12,-8.1257756678601e-12,7.63589773048141e-10)
(-8.97235444137168e-12,-1.59194456194071e-11,7.61132430124939e-10)
(-1.13898794929119e-11,-3.24749053036421e-11,7.55343117564018e-10)
(-1.24493846819709e-11,-6.76877829975994e-11,7.41949575565224e-10)
(-1.32504671114676e-11,-1.38599051980396e-10,7.11319918302038e-10)
(-1.22825750338999e-11,-2.62839577811788e-10,6.47047699433913e-10)
(-1.16416650783244e-11,-5.25402138626948e-10,5.31827397896892e-10)
(-1.11387857872649e-11,-1.21389439543191e-09,3.32610032794471e-10)
(0,0,0)
(0,0,0)
(0,0,0)
(0,0,0)
(0,0,0)
(0,0,0)
(-2.01302737794714e-13,-3.05349485484855e-13,1.50979337149386e-09)
(-2.30340365450627e-12,-1.4796973721495e-12,1.51084203602135e-09)
(-5.44047172521719e-12,-4.25260067429653e-12,1.51138417092388e-09)
(-9.05203639751282e-12,-8.74354731190426e-12,1.50844240202691e-09)
(-1.29405769395044e-11,-1.77778647291812e-11,1.50069562551042e-09)
(-1.48724913802468e-11,-3.68552195175896e-11,1.48379588304299e-09)
(-1.61062276207863e-11,-7.5024454774417e-11,1.44720963904394e-09)
(-1.54077374422709e-11,-1.49624200734181e-10,1.371260763633e-09)
(-1.50753607148383e-11,-3.28754373053378e-10,1.21924861463916e-09)
(-1.59768094257917e-11,-8.83856188370916e-10,8.87455969889986e-10)
(0,0,0)
(0,0,0)
(0,0,0)
(0,0,0)
(0,0,0)
(0,0,0)
(0,0,0)
(0,0,0)
(0,0,0)
(0,0,0)
(0,0,0)
(0,0,0)
(0,0,0)
(0,0,0)
(0,0,0)
(0,0,0)
(0,0,0)
(0,0,0)
(0,0,0)
(0,0,0)
(0,0,0)
(0,0,0)
(0,0,0)
(0,0,0)
(0,0,0)
(0,0,0)
(0,0,0)
(0,0,0)
(0,0,0)
(0,0,0)
(0,0,0)
(0,0,0)
(0,0,0)
(0,0,0)
(0,0,0)
(0,0,0)
(0,0,0)
(0,0,0)
(0,0,0)
(0,0,0)
(0,0,0)
(0,0,0)
(0,0,0)
(0,0,0)
(0,0,0)
(0,0,0)
(0,0,0)
(0,0,0)
(0,0,0)
(0,0,0)
(0,0,0)
(0,0,0)
(0,0,0)
(0,0,0)
(0,0,0)
(0,0,0)
(0,0,0)
(0,0,0)
(0,0,0)
(0,0,0)
(0,0,0)
(0,0,0)
(0,0,0)
(0,0,0)
(0,0,0)
(0,0,0)
(0,0,0)
(0,0,0)
(0,0,0)
(0,0,0)
(0,0,0)
(0,0,0)
(0,0,0)
(0,0,0)
(0,0,0)
(0,0,0)
(0,0,0)
(0,0,0)
(0,0,0)
(0,0,0)
(0,0,0)
(0,0,0)
(0,0,0)
(0,0,0)
(0,0,0)
(0,0,0)
(0,0,0)
(0,0,0)
(0,0,0)
(0,0,0)
(0,0,0)
(0,0,0)
(0,0,0)
(0,0,0)
(0,0,0)
(0,0,0)
(0,0,0)
(0,0,0)
(0,0,0)
(0,0,0)
(0,0,0)
(0,0,0)
(-5.23813356449318e-13,-1.29238645905883e-11,1.76725041007121e-11)
(-1.10719103253336e-12,-3.02639619006858e-11,1.71186484212303e-11)
(-1.32613772881845e-12,-5.15538719896678e-11,1.50513658292242e-11)
(-2.06085532825337e-12,-8.3023509704502e-11,1.14286411062087e-11)
(-2.25271427366521e-12,-1.3097166915942e-10,6.73526518016402e-12)
(-1.23610386453132e-12,-2.01876445926289e-10,1.46694123188907e-12)
(-1.35730307080976e-14,-3.07795839837184e-10,-2.78680223638161e-12)
(2.1548090435118e-12,-4.62235537428125e-10,-4.05253092292362e-12)
(4.22127559964554e-12,-6.83151956006973e-10,-3.2255703531681e-12)
(5.80381624369187e-12,-9.55302481324779e-10,-1.43674000434464e-12)
(0,0,0)
(0,0,0)
(0,0,0)
(0,0,0)
(0,0,0)
(0,0,0)
(-1.7913056796502e-12,-1.27418842963794e-11,3.86439036500436e-11)
(-2.59831879881045e-12,-2.88941729129997e-11,3.70785077479239e-11)
(-2.79726651303809e-12,-4.88870788010485e-11,3.30495580510978e-11)
(-3.78450154246501e-12,-7.9083882603797e-11,2.66104679969849e-11)
(-4.66810280108274e-12,-1.26418499383392e-10,1.79332736799636e-11)
(-3.3540583242795e-12,-1.98635379561092e-10,6.5566822036627e-12)
(6.65466519070145e-14,-3.080157606606e-10,-4.38451991754904e-12)
(5.32624003431824e-12,-4.64126087091728e-10,-7.52876308929573e-12)
(8.52986468943571e-12,-6.85615927963655e-10,-5.29383151403238e-12)
(1.06325752576417e-11,-9.57330557056896e-10,-1.98691493169166e-12)
(0,0,0)
(0,0,0)
(0,0,0)
(0,0,0)
(0,0,0)
(0,0,0)
(-2.56613454069002e-12,-1.17636178046633e-11,6.47850840676888e-11)
(-4.01714799973528e-12,-2.61386664115537e-11,6.25953259857802e-11)
(-4.48221711497036e-12,-4.40165156668425e-11,5.72015693662316e-11)
(-5.45250607517167e-12,-7.18062826906598e-11,4.8645749819134e-11)
(-6.22415351026728e-12,-1.16955535309896e-10,3.5764967581774e-11)
(-4.89404300171665e-12,-1.89893392140016e-10,1.70084594614774e-11)
(-7.49560651003222e-13,-3.07052317683235e-10,-4.03722212039142e-12)
(7.33164548478647e-12,-4.68657811892861e-10,-7.22519735579178e-12)
(1.15540828066766e-11,-6.90415027764253e-10,-3.41817529184739e-12)
(1.31935611035048e-11,-9.60500325253908e-10,-5.26127093437191e-13)
(0,0,0)
(0,0,0)
(0,0,0)
(0,0,0)
(0,0,0)
(0,0,0)
(-3.42446748025296e-12,-1.0043865403494e-11,9.98357350304617e-11)
(-5.26179364785828e-12,-2.21179665012271e-11,9.69506558357803e-11)
(-6.60489444761198e-12,-3.74681110066568e-11,9.08223693885733e-11)
(-7.99362847445253e-12,-6.08241449225553e-11,8.13566239504746e-11)
(-9.0789944263025e-12,-1.00151851923426e-10,6.6329094801924e-11)
(-8.72514595896865e-12,-1.70553437781966e-10,4.26567399900706e-11)
(-4.07050317214963e-12,-3.03193010858163e-10,1.03489038422121e-11)
(9.38279907689946e-12,-4.77714222834296e-10,8.24337828794483e-12)
(1.39331544874532e-11,-6.9718350509964e-10,9.54595378311759e-12)
(1.44254461264891e-11,-9.63205506847724e-10,6.38508438942349e-12)
(0,0,0)
(0,0,0)
(0,0,0)
(0,0,0)
(0,0,0)
(0,0,0)
(-3.33004377220194e-12,-7.90353169897899e-12,1.4843227883563e-10)
(-5.88871839473702e-12,-1.73351547358513e-11,1.45621448812047e-10)
(-8.15264838274808e-12,-2.95050272977828e-11,1.40023299008108e-10)
(-1.0160418587589e-11,-4.70214204770976e-11,1.31388476762766e-10)
(-1.27319023970297e-11,-7.65195541519725e-11,1.18423901080451e-10)
(-1.3619504483287e-11,-1.3396242778241e-10,1.0315711965921e-10)
(8.25942736581786e-12,-2.72064494717795e-10,1.081394430027e-10)
(1.30420320537646e-11,-4.87794973556594e-10,6.97527949834006e-11)
(1.40838290933279e-11,-7.00573607425289e-10,4.69016734385551e-11)
(1.35855293605953e-11,-9.60555272571599e-10,2.40104149758203e-11)
(0,0,0)
(0,0,0)
(0,0,0)
(0,0,0)
(0,0,0)
(0,0,0)
(-3.88706618010559e-12,-5.38128227653001e-12,2.18957212537743e-10)
(-6.69310633060072e-12,-1.215131769152e-11,2.17120529084922e-10)
(-8.77581876668892e-12,-2.10017247738561e-11,2.12741024866991e-10)
(-1.12084727081944e-11,-3.28637515942984e-11,2.06268339998265e-10)
(-1.39711214598707e-11,-5.42775300578924e-11,1.97523754650347e-10)
(-1.47421191453416e-11,-1.06778958983351e-10,1.86216013360428e-10)
(1.6436871537019e-12,-2.77656812873367e-10,1.84412869790453e-10)
(8.70336038336446e-12,-4.8174515283088e-10,1.46785446154058e-10)
(1.06196670186374e-11,-6.85309777418882e-10,1.01926430806872e-10)
(1.12101653355877e-11,-9.40548309796496e-10,5.20621734092127e-11)
(0,0,0)
(0,0,0)
(0,0,0)
(0,0,0)
(0,0,0)
(0,0,0)
(-3.39055666449373e-12,-3.76273364371395e-12,3.22659425997156e-10)
(-7.10482713876233e-12,-7.99734943945154e-12,3.21557728290147e-10)
(-9.78722210456913e-12,-1.40032753522825e-11,3.18617484297078e-10)
(-1.10212464648534e-11,-2.12911483330818e-11,3.14797067990691e-10)
(-9.43938756405839e-12,-3.24715368074302e-11,3.13194284588883e-10)
(2.62776506025736e-12,-6.38781632955278e-11,3.15190281827425e-10)
(-4.5404792364884e-12,-2.52380017687079e-10,2.73798411519637e-10)
(1.04423741031653e-12,-4.49643749328656e-10,2.62655310379253e-10)
(4.13374621977102e-12,-6.42197867734391e-10,1.82147701240233e-10)
(5.3722845008579e-12,-8.9208799627043e-10,9.36479405475505e-11)
(0,0,0)
(0,0,0)
(0,0,0)
(0,0,0)
(0,0,0)
(0,0,0)
(-2.39973565354935e-12,-2.33018217558693e-12,4.73053913350923e-10)
(-6.42467075317925e-12,-4.99373902478986e-12,4.72185336049838e-10)
(-9.65597892746017e-12,-9.41882643512861e-12,4.70315546179036e-10)
(-1.12724552527387e-11,-1.7000258173662e-11,4.6845993044203e-10)
(-1.19964472597944e-11,-3.36747576948737e-11,4.68121312184677e-10)
(-8.78844521686694e-12,-8.23301357650392e-11,4.69340262424443e-10)
(-9.1708482637262e-12,-2.2874837052978e-10,4.57185201563363e-10)
(-5.20475078913758e-12,-3.73572790218769e-10,3.89161476334271e-10)
(-2.96505985987888e-12,-5.58177168303051e-10,2.83582563190067e-10)
(-1.91512894274924e-12,-8.01699537891855e-10,1.52801473268242e-10)
(0,0,0)
(0,0,0)
(0,0,0)
(0,0,0)
(0,0,0)
(0,0,0)
(-1.90251553963898e-12,-5.99905841227259e-13,6.90561666434579e-10)
(-5.1492906114491e-12,-2.71592475556422e-12,6.90775524039451e-10)
(-7.87512784027901e-12,-6.71357981344337e-12,6.90037745704949e-10)
(-1.03589401880067e-11,-1.39798431960842e-11,6.88461927158465e-10)
(-1.26933780681415e-11,-3.08177001950113e-11,6.85015387869422e-10)
(-1.26522908986462e-11,-7.18708426023189e-11,6.75333518850735e-10)
(-1.2552845449197e-11,-1.60995023862869e-10,6.45963741639747e-10)
(-1.02776505764177e-11,-2.71622103992533e-10,5.68083675398596e-10)
(-9.0720655479616e-12,-4.3147221302867e-10,4.40286427445407e-10)
(-8.56696005403156e-12,-6.52191424923693e-10,2.52937271696158e-10)
(0,0,0)
(0,0,0)
(0,0,0)
(0,0,0)
(0,0,0)
(0,0,0)
(-1.55531675178789e-12,3.19851926042304e-13,9.58937804048943e-10)
(-4.32523592931023e-12,-8.71352186383131e-13,9.60212998581142e-10)
(-6.75130350260249e-12,-3.75389187577926e-12,9.60341325496486e-10)
(-1.00488071933802e-11,-8.14662723729722e-12,9.57654528818834e-10)
(-1.38186992002012e-11,-1.81299970162006e-11,9.5117569755994e-10)
(-1.51414668998643e-11,-4.06420195237323e-11,9.34388169953177e-10)