/*--------------------------------*- C++ -*----------------------------------*\
| =========                 |                                                 |
| \\      /  F ield         | foam-extend: Open Source CFD                    |
|  \\    /   O peration     | Version:     4.0                                |
|   \\  /    A nd           | Web:         http://www.foam-extend.org         |
|    \\/     M anipulation  |                                                 |
\*---------------------------------------------------------------------------*/
FoamFile
{
    version 2.0;
    format ascii;
    class volVectorField;
    location "1059";
    object      H;
}
// * * * * * * * * * * * * * * * * * * * * * * * * * * * * * * * * * * * * * //

dimensions      [0 1 -1 0 0 0 0];

internalField   nonuniform List<vector>
4096
(
(0,0,0)
(0,0,0)
(0,0,0)
(0,0,0)
(0,0,0)
(0,0,0)
(0,0,0)
(0,0,0)
(0,0,0)
(0,0,0)
(0,0,0)
(0,0,0)
(0,0,0)
(0,0,0)
(0,0,0)
(0,0,0)
(0,0,0)
(0,0,0)
(0,0,0)
(0,0,0)
(0,0,0)
(0,0,0)
(0,0,0)
(0,0,0)
(0,0,0)
(0,0,0)
(0,0,0)
(0,0,0)
(0,0,0)
(0,0,0)
(0,0,0)
(0,0,0)
(0,0,0)
(0,0,0)
(0,0,0)
(0,0,0)
(0,0,0)
(0,0,0)
(0,0,0)
(0,0,0)
(0,0,0)
(0,0,0)
(0,0,0)
(0,0,0)
(0,0,0)
(0,0,0)
(0,0,0)
(0,0,0)
(0,0,0)
(0,0,0)
(0,0,0)
(0,0,0)
(0,0,0)
(0,0,0)
(0,0,0)
(0,0,0)
(0,0,0)
(0,0,0)
(0,0,0)
(0,0,0)
(0,0,0)
(0,0,0)
(0,0,0)
(0,0,0)
(0,0,0)
(0,0,0)
(0,0,0)
(0,0,0)
(0,0,0)
(0,0,0)
(0,0,0)
(0,0,0)
(0,0,0)
(0,0,0)
(0,0,0)
(0,0,0)
(0,0,0)
(0,0,0)
(0,0,0)
(0,0,0)
(0,0,0)
(0,0,0)
(0,0,0)
(0,0,0)
(0,0,0)
(0,0,0)
(0,0,0)
(0,0,0)
(0,0,0)
(0,0,0)
(0,0,0)
(0,0,0)
(0,0,0)
(0,0,0)
(0,0,0)
(0,0,0)
(0,0,0)
(0,0,0)
(0,0,0)
(0,0,0)
(0,0,0)
(0,0,0)
(0,0,0)
(0,0,0)
(0,0,0)
(0,0,0)
(0,0,0)
(0,0,0)
(0,0,0)
(0,0,0)
(0,0,0)
(0,0,0)
(0,0,0)
(0,0,0)
(0,0,0)
(0,0,0)
(0,0,0)
(0,0,0)
(0,0,0)
(0,0,0)
(0,0,0)
(0,0,0)
(0,0,0)
(0,0,0)
(0,0,0)
(0,0,0)
(0,0,0)
(0,0,0)
(0,0,0)
(0,0,0)
(0,0,0)
(0,0,0)
(0,0,0)
(0,0,0)
(0,0,0)
(0,0,0)
(0,0,0)
(0,0,0)
(0,0,0)
(0,0,0)
(0,0,0)
(0,0,0)
(0,0,0)
(0,0,0)
(0,0,0)
(0,0,0)
(0,0,0)
(0,0,0)
(0,0,0)
(0,0,0)
(0,0,0)
(0,0,0)
(0,0,0)
(0,0,0)
(0,0,0)
(0,0,0)
(0,0,0)
(0,0,0)
(0,0,0)
(0,0,0)
(0,0,0)
(0,0,0)
(0,0,0)
(0,0,0)
(0,0,0)
(0,0,0)
(0,0,0)
(0,0,0)
(0,0,0)
(0,0,0)
(0,0,0)
(0,0,0)
(0,0,0)
(0,0,0)
(0,0,0)
(0,0,0)
(0,0,0)
(0,0,0)
(0,0,0)
(0,0,0)
(0,0,0)
(0,0,0)
(0,0,0)
(0,0,0)
(0,0,0)
(0,0,0)
(0,0,0)
(0,0,0)
(0,0,0)
(0,0,0)
(0,0,0)
(0,0,0)
(0,0,0)
(0,0,0)
(0,0,0)
(0,0,0)
(0,0,0)
(0,0,0)
(0,0,0)
(0,0,0)
(0,0,0)
(0,0,0)
(0,0,0)
(0,0,0)
(0,0,0)
(0,0,0)
(0,0,0)
(0,0,0)
(0,0,0)
(0,0,0)
(0,0,0)
(0,0,0)
(0,0,0)
(0,0,0)
(0,0,0)
(0,0,0)
(0,0,0)
(0,0,0)
(0,0,0)
(0,0,0)
(0,0,0)
(0,0,0)
(0,0,0)
(0,0,0)
(0,0,0)
(0,0,0)
(0,0,0)
(0,0,0)
(0,0,0)
(0,0,0)
(0,0,0)
(0,0,0)
(0,0,0)
(0,0,0)
(0,0,0)
(0,0,0)
(0,0,0)
(0,0,0)
(0,0,0)
(0,0,0)
(0,0,0)
(0,0,0)
(0,0,0)
(0,0,0)
(0,0,0)
(0,0,0)
(0,0,0)
(0,0,0)
(0,0,0)
(0,0,0)
(0,0,0)
(0,0,0)
(0,0,0)
(0,0,0)
(0,0,0)
(0,0,0)
(0,0,0)
(0,0,0)
(0,0,0)
(0,0,0)
(0,0,0)
(0,0,0)
(0,0,0)
(0,0,0)
(0,0,0)
(0,0,0)
(0,0,0)
(0,0,0)
(0,0,0)
(0,0,0)
(0,0,0)
(0,0,0)
(0,0,0)
(0,0,0)
(0,0,0)
(0,0,0)
(0,0,0)
(0,0,0)
(0,0,0)
(0,0,0)
(0,0,0)
(0,0,0)
(0,0,0)
(0,0,0)
(0,0,0)
(0,0,0)
(0,0,0)
(0,0,0)
(0,0,0)
(0,0,0)
(0,0,0)
(0,0,0)
(0,0,0)
(0,0,0)
(0,0,0)
(0,0,0)
(0,0,0)
(0,0,0)
(0,0,0)
(0,0,0)
(0,0,0)
(0,0,0)
(0,0,0)
(0,0,0)
(0,0,0)
(0,0,0)
(0,0,0)
(0,0,0)
(0,0,0)
(0,0,0)
(0,0,0)
(0,0,0)
(0,0,0)
(0,0,0)
(0,0,0)
(0,0,0)
(0,0,0)
(0,0,0)
(0,0,0)
(0,0,0)
(0,0,0)
(0,0,0)
(0,0,0)
(0,0,0)
(0,0,0)
(0,0,0)
(0,0,0)
(0,0,0)
(0,0,0)
(0,0,0)
(0,0,0)
(0,0,0)
(0,0,0)
(0,0,0)
(0,0,0)
(0,0,0)
(0,0,0)
(0,0,0)
(0,0,0)
(0,0,0)
(0,0,0)
(0,0,0)
(0,0,0)
(0,0,0)
(0,0,0)
(0,0,0)
(0,0,0)
(0,0,0)
(0,0,0)
(0,0,0)
(0,0,0)
(0,0,0)
(0,0,0)
(0,0,0)
(0,0,0)
(0,0,0)
(0,0,0)
(0,0,0)
(0,0,0)
(0,0,0)
(0,0,0)
(0,0,0)
(0,0,0)
(0,0,0)
(0,0,0)
(0,0,0)
(0,0,0)
(0,0,0)
(0,0,0)
(0,0,0)
(0,0,0)
(0,0,0)
(0,0,0)
(0,0,0)
(0,0,0)
(0,0,0)
(0,0,0)
(0,0,0)
(0,0,0)
(0,0,0)
(0,0,0)
(0,0,0)
(0,0,0)
(0,0,0)
(0,0,0)
(0,0,0)
(0,0,0)
(0,0,0)
(0,0,0)
(0,0,0)
(0,0,0)
(0,0,0)
(0,0,0)
(0,0,0)
(0,0,0)
(0,0,0)
(0,0,0)
(0,0,0)
(0,0,0)
(0,0,0)
(0,0,0)
(0,0,0)
(0,0,0)
(0,0,0)
(0,0,0)
(0,0,0)
(0,0,0)
(0,0,0)
(0,0,0)
(0,0,0)
(0,0,0)
(0,0,0)
(0,0,0)
(0,0,0)
(0,0,0)
(0,0,0)
(0,0,0)
(0,0,0)
(0,0,0)
(0,0,0)
(0,0,0)
(0,0,0)
(0,0,0)
(0,0,0)
(0,0,0)
(0,0,0)
(0,0,0)
(0,0,0)
(0,0,0)
(0,0,0)
(0,0,0)
(0,0,0)
(0,0,0)
(0,0,0)
(0,0,0)
(0,0,0)
(0,0,0)
(0,0,0)
(0,0,0)
(0,0,0)
(0,0,0)
(0,0,0)
(0,0,0)
(0,0,0)
(0,0,0)
(0,0,0)
(0,0,0)
(0,0,0)
(0,0,0)
(0,0,0)
(0,0,0)
(0,0,0)
(0,0,0)
(0,0,0)
(0,0,0)
(0,0,0)
(0,0,0)
(0,0,0)
(0,0,0)
(0,0,0)
(0,0,0)
(0,0,0)
(0,0,0)
(0,0,0)
(0,0,0)
(0,0,0)
(0,0,0)
(0,0,0)
(0,0,0)
(0,0,0)
(0,0,0)
(0,0,0)
(0,0,0)
(0,0,0)
(0,0,0)
(0,0,0)
(0,0,0)
(0,0,0)
(0,0,0)
(0,0,0)
(0,0,0)
(0,0,0)
(0,0,0)
(0,0,0)
(0,0,0)
(0,0,0)
(0,0,0)
(0,0,0)
(0,0,0)
(0,0,0)
(0,0,0)
(0,0,0)
(0,0,0)
(0,0,0)
(0,0,0)
(0,0,0)
(0,0,0)
(0,0,0)
(0,0,0)
(0,0,0)
(0,0,0)
(0,0,0)
(0,0,0)
(0,0,0)
(0,0,0)
(0,0,0)
(0,0,0)
(0,0,0)
(0,0,0)
(0,0,0)
(0,0,0)
(0,0,0)
(0,0,0)
(0,0,0)
(0,0,0)
(0,0,0)
(0,0,0)
(0,0,0)
(0,0,0)
(0,0,0)
(0,0,0)
(0,0,0)
(0,0,0)
(0,0,0)
(0,0,0)
(0,0,0)
(0,0,0)
(0,0,0)
(0,0,0)
(0,0,0)
(0,0,0)
(0,0,0)
(0,0,0)
(0,0,0)
(0,0,0)
(0,0,0)
(0,0,0)
(0,0,0)
(0,0,0)
(0,0,0)
(0,0,0)
(0,0,0)
(0,0,0)
(0,0,0)
(0,0,0)
(0,0,0)
(0,0,0)
(0,0,0)
(0,0,0)
(0,0,0)
(0,0,0)
(0,0,0)
(0,0,0)
(0,0,0)
(0,0,0)
(0,0,0)
(0,0,0)
(0,0,0)
(0,0,0)
(0,0,0)
(0,0,0)
(0,0,0)
(0,0,0)
(0,0,0)
(0,0,0)
(0,0,0)
(0,0,0)
(0,0,0)
(0,0,0)
(0,0,0)
(0,0,0)
(0,0,0)
(0,0,0)
(0,0,0)
(0,0,0)
(0,0,0)
(0,0,0)
(0,0,0)
(0,0,0)
(0,0,0)
(0,0,0)
(0,0,0)
(0,0,0)
(0,0,0)
(0,0,0)
(0,0,0)
(0,0,0)
(0,0,0)
(0,0,0)
(0,0,0)
(0,0,0)
(0,0,0)
(0,0,0)
(0,0,0)
(0,0,0)
(0,0,0)
(0,0,0)
(0,0,0)
(0,0,0)
(0,0,0)
(0,0,0)
(0,0,0)
(0,0,0)
(0,0,0)
(0,0,0)
(0,0,0)
(0,0,0)
(0,0,0)
(0,0,0)
(0,0,0)
(0,0,0)
(0,0,0)
(0,0,0)
(0,0,0)
(0,0,0)
(0,0,0)
(0,0,0)
(0,0,0)
(0,0,0)
(0,0,0)
(0,0,0)
(0,0,0)
(0,0,0)
(0,0,0)
(0,0,0)
(0,0,0)
(0,0,0)
(0,0,0)
(0,0,0)
(0,0,0)
(0,0,0)
(0,0,0)
(0,0,0)
(0,0,0)
(0,0,0)
(0,0,0)
(0,0,0)
(0,0,0)
(0,0,0)
(0,0,0)
(0,0,0)
(0,0,0)
(0,0,0)
(0,0,0)
(0,0,0)
(0,0,0)
(0,0,0)
(0,0,0)
(0,0,0)
(0,0,0)
(0,0,0)
(0,0,0)
(0,0,0)
(0,0,0)
(0,0,0)
(0,0,0)
(0,0,0)
(0,0,0)
(0,0,0)
(0,0,0)
(0,0,0)
(0,0,0)
(0,0,0)
(0,0,0)
(0,0,0)
(0,0,0)
(0,0,0)
(0,0,0)
(0,0,0)
(0,0,0)
(0,0,0)
(0,0,0)
(0,0,0)
(0,0,0)
(0,0,0)
(0,0,0)
(0,0,0)
(0,0,0)
(0,0,0)
(0,0,0)
(0,0,0)
(0,0,0)
(0,0,0)
(0,0,0)
(0,0,0)
(0,0,0)
(0,0,0)
(0,0,0)
(0,0,0)
(0,0,0)
(0,0,0)
(0,0,0)
(0,0,0)
(0,0,0)
(0,0,0)
(0,0,0)
(0,0,0)
(0,0,0)
(0,0,0)
(0,0,0)
(0,0,0)
(0,0,0)
(0,0,0)
(0,0,0)
(0,0,0)
(0,0,0)
(0,0,0)
(0,0,0)
(0,0,0)
(0,0,0)
(0,0,0)
(0,0,0)
(0,0,0)
(0,0,0)
(0,0,0)
(0,0,0)
(0,0,0)
(0,0,0)
(0,0,0)
(0,0,0)
(0,0,0)
(0,0,0)
(0,0,0)
(0,0,0)
(0,0,0)
(0,0,0)
(0,0,0)
(0,0,0)
(0,0,0)
(0,0,0)
(0,0,0)
(0,0,0)
(0,0,0)
(0,0,0)
(0,0,0)
(0,0,0)
(0,0,0)
(0,0,0)
(0,0,0)
(0,0,0)
(0,0,0)
(0,0,0)
(0,0,0)
(0,0,0)
(0,0,0)
(0,0,0)
(0,0,0)
(0,0,0)
(0,0,0)
(0,0,0)
(0,0,0)
(0,0,0)
(0,0,0)
(0,0,0)
(0,0,0)
(0,0,0)
(0,0,0)
(0,0,0)
(0,0,0)
(0,0,0)
(0,0,0)
(0,0,0)
(0,0,0)
(0,0,0)
(0,0,0)
(0,0,0)
(0,0,0)
(0,0,0)
(0,0,0)
(0,0,0)
(0,0,0)
(0,0,0)
(0,0,0)
(0,0,0)
(0,0,0)
(0,0,0)
(0,0,0)
(0,0,0)
(0,0,0)
(0,0,0)
(0,0,0)
(0,0,0)
(0,0,0)
(0,0,0)
(0,0,0)
(0,0,0)
(0,0,0)
(0,0,0)
(0,0,0)
(0,0,0)
(0,0,0)
(0,0,0)
(0,0,0)
(0,0,0)
(0,0,0)
(0,0,0)
(0,0,0)
(0,0,0)
(0,0,0)
(0,0,0)
(0,0,0)
(0,0,0)
(0,0,0)
(0,0,0)
(0,0,0)
(0,0,0)
(0,0,0)
(0,0,0)
(0,0,0)
(0,0,0)
(0,0,0)
(0,0,0)
(0,0,0)
(0,0,0)
(0,0,0)
(0,0,0)
(0,0,0)
(0,0,0)
(0,0,0)
(-2.08767601408796e-12,3.10011906127499e-12,-1.68280355261779e-12)
(-3.36719198984493e-12,5.35553449750651e-12,-1.69660782840625e-12)
(-3.31747620850598e-12,7.83181658791834e-12,-2.1286596871564e-12)
(-1.77762104788941e-12,1.18162097876036e-11,-2.783217880453e-12)
(3.72072562857891e-13,1.82328096010609e-11,-2.91405360805917e-12)
(2.22834594941544e-12,2.63541846499287e-11,-2.20242778969837e-12)
(3.36440961366194e-12,4.06020757616786e-11,-1.46210459947497e-12)
(5.30221218698582e-12,6.3655852415833e-11,-6.07590790168837e-13)
(6.36780009985814e-12,1.02805171946774e-10,-5.81474201403979e-14)
(5.50980637418554e-12,1.56428370240737e-10,3.74123410689063e-13)
(0,0,0)
(0,0,0)
(0,0,0)
(0,0,0)
(0,0,0)
(0,0,0)
(-2.96058829556461e-12,3.0339022892337e-12,-3.66609711685456e-12)
(-4.57768473282057e-12,5.17905365535654e-12,-3.84138318090234e-12)
(-4.58762167166036e-12,7.42048165838552e-12,-4.27279562979269e-12)
(-2.76852099103545e-12,1.1566427223798e-11,-4.84886455547875e-12)
(5.29321803682419e-13,1.76705402893576e-11,-4.80858210193598e-12)
(3.52703829516376e-12,2.59057094613333e-11,-3.55289334207763e-12)
(5.15268223711147e-12,4.00076114564202e-11,-1.94525247463389e-12)
(7.88800996818717e-12,6.34206720985366e-11,-9.94878205453721e-13)
(1.01277465653985e-11,1.02440712340797e-10,-2.79018364247955e-13)
(1.02601278311351e-11,1.56157155402445e-10,2.40361453683599e-13)
(0,0,0)
(0,0,0)
(0,0,0)
(0,0,0)
(0,0,0)
(0,0,0)
(-2.50500611647316e-12,2.95680448635301e-12,-5.22775847010169e-12)
(-3.81455021926223e-12,4.94571971316515e-12,-5.29774144463012e-12)
(-3.90920333024097e-12,6.86166737490959e-12,-5.50090700190176e-12)
(-1.63972891756886e-12,1.0953134319111e-11,-6.1945047087902e-12)
(1.24081866579817e-12,1.68984702224448e-11,-6.02025515847381e-12)
(3.60523425959515e-12,2.5430124067334e-11,-4.38794607507175e-12)
(5.47693778924194e-12,3.96355549548602e-11,-2.52622486962692e-12)
(8.69244192130882e-12,6.28839405956706e-11,-1.76516559679814e-12)
(1.10805515293989e-11,1.01829808712431e-10,-9.57544942035706e-13)
(1.13811692352681e-11,1.55615612967088e-10,-2.03856495192837e-13)
(0,0,0)
(0,0,0)
(0,0,0)
(0,0,0)
(0,0,0)
(0,0,0)
(-1.14794594752149e-12,2.79208633008328e-12,-9.85533800163794e-12)
(-1.91748055692865e-12,4.66100159009045e-12,-9.63332797790965e-12)
(-1.50806667648636e-12,6.47228728672297e-12,-9.12345587117855e-12)
(1.12473990215146e-12,1.03153706466586e-11,-9.08338021143103e-12)
(2.54106644715683e-12,1.59463902906329e-11,-8.11678619935176e-12)
(4.091321076076e-12,2.44092499055178e-11,-6.21415140265849e-12)
(6.84159691894288e-12,3.87669105119913e-11,-3.98803545787578e-12)
(9.78718501725215e-12,6.19441168412512e-11,-2.64577740283481e-12)
(1.13303474831145e-11,1.00838750856702e-10,-1.77745128613479e-12)
(1.18374142379952e-11,1.54666129955758e-10,-8.51039270426625e-13)
(0,0,0)
(0,0,0)
(0,0,0)
(0,0,0)
(0,0,0)
(0,0,0)
(2.76066038243172e-13,2.60946253697249e-12,-1.72250249893345e-11)
(-2.0527559051269e-13,4.0338262055577e-12,-1.66084907432225e-11)
(6.19472682569591e-13,5.88407770221589e-12,-1.57177898170375e-11)
(2.32793841759563e-12,9.53698199208812e-12,-1.49723433819048e-11)
(2.41615906825018e-12,1.47556403527253e-11,-1.33507425287956e-11)
(4.41932102713601e-12,2.26673444991647e-11,-1.15352225291935e-11)
(6.99577516589113e-12,3.70832256976478e-11,-9.42988577855234e-12)
(8.6411359197068e-12,6.10883129802793e-11,-7.19768787518577e-12)
(1.0579970542856e-11,9.94662324079996e-11,-5.21535734628799e-12)
(1.22622277773417e-11,1.5262175246013e-10,-2.87401488225442e-12)
(0,0,0)
(0,0,0)
(0,0,0)
(0,0,0)
(0,0,0)
(0,0,0)
(5.74207871315776e-13,2.34900217652234e-12,-2.5804267780666e-11)
(3.29368806295714e-13,3.66612417456772e-12,-2.53095366214774e-11)
(1.28159476068096e-12,5.38132716559725e-12,-2.48040309120597e-11)
(1.43060013616437e-12,8.55212382241249e-12,-2.3977546147141e-11)
(1.24549504574449e-12,1.36600678545687e-11,-2.24182792734803e-11)
(2.87191176920595e-12,2.13684666679549e-11,-2.07129738859232e-11)
(5.28875626676058e-12,3.55228666450289e-11,-1.81873125409934e-11)
(6.68193937701792e-12,5.93494746974691e-11,-1.48939914835107e-11)
(8.73002383190834e-12,9.68692382045835e-11,-1.0752934382931e-11)
(1.07686010408478e-11,1.49206953194449e-10,-5.90704953262778e-12)
(0,0,0)
(0,0,0)
(0,0,0)
(0,0,0)
(0,0,0)
(0,0,0)
(-3.1550326675052e-13,2.1052622020652e-12,-3.89282345392596e-11)
(-8.58149177426652e-13,3.68187108240537e-12,-3.88725846860266e-11)
(-6.64955386202027e-13,4.95331186947552e-12,-3.84328182180985e-11)
(-1.68595395545224e-12,7.38841178481677e-12,-3.77931728527449e-11)
(-1.60799567228378e-12,1.25366942985374e-11,-3.67770184094465e-11)
(-2.48682837405839e-13,1.97860745404821e-11,-3.49638352261253e-11)
(2.33567024071803e-12,3.26722813642084e-11,-3.14742031617864e-11)
(4.7177322485073e-12,5.52385597220015e-11,-2.68776974425184e-11)
(6.77175980087925e-12,9.15266894233068e-11,-1.99347682504034e-11)
(8.21971967578303e-12,1.42853090618718e-10,-1.089016490822e-11)
(0,0,0)
(0,0,0)
(0,0,0)
(0,0,0)
(0,0,0)
(0,0,0)
(-2.67441347888033e-12,1.74299825140186e-12,-6.07141176820668e-11)
(-5.03020370404831e-12,3.52741184233649e-12,-6.09320405726074e-11)
(-6.4680844178047e-12,4.75497479947651e-12,-6.07122780471175e-11)
(-7.27479175392432e-12,6.42143533947334e-12,-6.04341162049487e-11)
(-6.50206629741852e-12,1.08856612441391e-11,-5.96764330833396e-11)
(-4.1272668216383e-12,1.70576085428531e-11,-5.75884834372741e-11)
(-4.85000173657586e-13,2.80626276913063e-11,-5.34398043599451e-11)
(3.21218161738905e-12,4.79449076188989e-11,-4.68408507680395e-11)
(5.66620371315461e-12,8.15970266189973e-11,-3.61400602165964e-11)
(7.11597859877493e-12,1.30945774018493e-10,-2.04541490122799e-11)
(0,0,0)
(0,0,0)
(0,0,0)
(0,0,0)
(0,0,0)
(0,0,0)
(-5.68247435625788e-12,1.28407770982376e-12,-9.73096775893632e-11)
(-9.94683125532869e-12,2.86461659777213e-12,-9.72788152083527e-11)
(-1.24616244281468e-11,3.94630556864972e-12,-9.69243142906567e-11)
(-1.238822641017e-11,4.84061895097924e-12,-9.66807783137285e-11)
(-1.01945875243566e-11,7.85042664999179e-12,-9.58306533661802e-11)
(-5.74939989657373e-12,1.24205570828039e-11,-9.32253071685482e-11)
(-5.76490950549821e-13,2.08272825109268e-11,-8.81425954452191e-11)
(2.91988396752244e-12,3.66294483215148e-11,-7.92226279661247e-11)
(4.4492262511606e-12,6.49758226776663e-11,-6.37911690755583e-11)
(6.03568599677638e-12,1.09543470371451e-10,-3.83070063584527e-11)
(0,0,0)
(0,0,0)
(0,0,0)
(0,0,0)
(0,0,0)
(0,0,0)
(-7.49190304261962e-12,6.55297223692772e-13,-1.49836155986396e-10)
(-1.28350184078144e-11,1.56254246086683e-12,-1.49689309756376e-10)
(-1.55155204252469e-11,2.06930572544135e-12,-1.49162580352699e-10)
(-1.47183743563794e-11,2.48372248928381e-12,-1.48812717829932e-10)
(-1.04943956017013e-11,3.99192501914456e-12,-1.47549693997927e-10)
(-4.95033498365656e-12,6.47220335080616e-12,-1.44051457590145e-10)
(6.61072781972818e-13,1.10788851744308e-11,-1.37980004022533e-10)
(3.37098257438938e-12,2.02149434817157e-11,-1.2712583185515e-10)
(4.13557119087478e-12,3.8216212195936e-11,-1.07395332322961e-10)
(6.40968050388225e-12,7.0139163350569e-11,-7.00036064023657e-11)
(0,0,0)
(0,0,0)
(0,0,0)
(0,0,0)
(0,0,0)
(0,0,0)
(0,0,0)
(0,0,0)
(0,0,0)
(0,0,0)
(0,0,0)
(0,0,0)
(0,0,0)
(0,0,0)
(0,0,0)
(0,0,0)
(0,0,0)
(0,0,0)
(0,0,0)
(0,0,0)
(0,0,0)
(0,0,0)
(0,0,0)
(0,0,0)
(0,0,0)
(0,0,0)
(0,0,0)
(0,0,0)
(0,0,0)
(0,0,0)
(0,0,0)
(0,0,0)
(0,0,0)
(0,0,0)
(0,0,0)
(0,0,0)
(0,0,0)
(0,0,0)
(0,0,0)
(0,0,0)
(0,0,0)
(0,0,0)
(0,0,0)
(0,0,0)
(0,0,0)
(0,0,0)
(0,0,0)
(0,0,0)
(0,0,0)
(0,0,0)
(0,0,0)
(0,0,0)
(0,0,0)
(0,0,0)
(0,0,0)
(0,0,0)
(0,0,0)
(0,0,0)
(0,0,0)
(0,0,0)
(0,0,0)
(0,0,0)
(0,0,0)
(0,0,0)
(0,0,0)
(0,0,0)
(0,0,0)
(0,0,0)
(0,0,0)
(0,0,0)
(0,0,0)
(0,0,0)
(0,0,0)
(0,0,0)
(0,0,0)
(0,0,0)
(0,0,0)
(0,0,0)
(0,0,0)
(0,0,0)
(0,0,0)
(0,0,0)
(0,0,0)
(0,0,0)
(0,0,0)
(0,0,0)
(0,0,0)
(0,0,0)
(0,0,0)
(0,0,0)
(0,0,0)
(0,0,0)
(0,0,0)
(0,0,0)
(0,0,0)
(0,0,0)
(0,0,0)
(0,0,0)
(0,0,0)
(0,0,0)
(0,0,0)
(0,0,0)
(-2.00765496625427e-12,6.06003057162566e-12,-4.76618232540698e-12)
(-2.75865928894936e-12,1.03628099360706e-11,-4.7160114082348e-12)
(-2.25158308567633e-12,1.48733748681623e-11,-4.87974007810548e-12)
(-1.39700275648997e-12,2.21597397561899e-11,-5.16872866474341e-12)
(2.22716056197993e-13,3.37111104381486e-11,-4.87235503628991e-12)
(1.93649794785321e-12,4.842709248749e-11,-3.44985576882958e-12)
(3.10436010971009e-12,7.3639343064651e-11,-1.9766887122737e-12)
(4.98794913402937e-12,1.12956906883691e-10,-3.2325985614549e-13)
(6.29998887488222e-12,1.89680399016717e-10,5.53518256851056e-13)
(6.15514462261704e-12,3.64902178914465e-10,7.17394046296836e-13)
(0,0,0)
(0,0,0)
(0,0,0)
(0,0,0)
(0,0,0)
(0,0,0)
(-2.70820442863662e-12,6.09021441084972e-12,-8.41307236975325e-12)
(-3.91293834173373e-12,1.03147359164676e-11,-8.73486533557216e-12)
(-3.45273846249272e-12,1.47389058801266e-11,-8.79419127745778e-12)
(-2.19551053989621e-12,2.20017642052008e-11,-8.68683618047005e-12)
(4.57031107472639e-14,3.29105495912928e-11,-7.74039543358824e-12)
(2.39498282173331e-12,4.7846022639264e-11,-5.1820682038646e-12)
(4.57436446947529e-12,7.28327936289748e-11,-2.42927338875543e-12)
(7.70888162994086e-12,1.1299033458728e-10,-6.67532208883348e-13)
(1.02192703762578e-11,1.89582662911577e-10,7.48622244188014e-14)
(1.10420317203677e-11,3.64640865319705e-10,2.94076148151935e-13)
(0,0,0)
(0,0,0)
(0,0,0)
(0,0,0)
(0,0,0)
(0,0,0)
(-2.27030498567394e-12,6.03375146272263e-12,-1.18840964693377e-11)
(-3.32666653891511e-12,9.98737184233524e-12,-1.1977775089901e-11)
(-2.82622553515765e-12,1.41990301787459e-11,-1.16307355267704e-11)
(-1.17621479543393e-12,2.11859032083007e-11,-1.11575726661199e-11)
(5.60589514158751e-13,3.12946989151677e-11,-9.46791866019522e-12)
(2.76438721591696e-12,4.62597502566746e-11,-5.81148401062287e-12)
(5.58452295922943e-12,7.15237475634194e-11,-2.08698066099785e-12)
(8.82464502095869e-12,1.12457299753502e-10,-7.46192432332878e-13)
(1.13179209381414e-11,1.89171160792466e-10,-2.51710759920047e-13)
(1.21267957512687e-11,3.63888504772426e-10,6.12272161615083e-14)
(0,0,0)
(0,0,0)
(0,0,0)
(0,0,0)
(0,0,0)
(0,0,0)
(-1.18733217813978e-12,5.86033032009373e-12,-1.91368119473076e-11)
(-1.80017727912682e-12,9.70851683207251e-12,-1.88119869566209e-11)
(-9.59932751733244e-13,1.36581857267395e-11,-1.7764002645481e-11)
(9.36534544645167e-13,2.00840693537255e-11,-1.64705505133323e-11)
(1.82918158836258e-12,2.9168307595475e-11,-1.37056861408559e-11)
(3.60711053767167e-12,4.37723108245873e-11,-9.18340282879057e-12)
(7.18302367819781e-12,6.96262685160564e-11,-4.27720423615731e-12)
(9.77466276147442e-12,1.1151320220449e-10,-2.74296644121981e-12)
(1.17764539163121e-11,1.88464673137275e-10,-2.39019312599414e-12)
(1.30307524632774e-11,3.63064995272e-10,-1.50385954673345e-12)
(0,0,0)
(0,0,0)
(0,0,0)
(0,0,0)
(0,0,0)
(0,0,0)
(-8.0007847419068e-14,5.67009046543125e-12,-3.12905957704543e-11)
(-7.28274485710507e-13,9.04026320217012e-12,-3.03860094340671e-11)
(3.76776784050922e-13,1.22408340581649e-11,-2.89907878154468e-11)
(1.691195734168e-12,1.79460684831737e-11,-2.7093209722189e-11)
(1.69621156682839e-12,2.59909481082537e-11,-2.38993670426863e-11)
(3.61286210765851e-12,3.9412595336741e-11,-1.98753195399422e-11)
(6.32393631519163e-12,6.55534876671255e-11,-1.57463008598526e-11)
(8.39764367367787e-12,1.1019832487124e-10,-1.17927613611923e-11)
(1.0835622282301e-11,1.86803017699325e-10,-8.88502059798289e-12)
(1.28030121604609e-11,3.60608458216313e-10,-5.17407685608943e-12)
(0,0,0)
(0,0,0)
(0,0,0)
(0,0,0)
(0,0,0)
(0,0,0)
(3.2321668658406e-13,4.82933771330654e-12,-4.68958127836805e-11)
(-1.918838109587e-13,7.82553507171036e-12,-4.59354350382842e-11)
(8.8312529188399e-13,1.02283483118691e-11,-4.48741415802432e-11)
(1.03504530009569e-12,1.51029363411516e-11,-4.29360655376497e-11)
(6.63563214224816e-13,2.28470860185788e-11,-3.98878060949238e-11)
(1.92864255175461e-12,3.62326927902206e-11,-3.6131400693027e-11)
(4.84602049008799e-12,6.3991825967629e-11,-3.07117484311442e-11)
(6.6517972519077e-12,1.07185379126091e-10,-2.56743673457433e-11)
(9.22668776293465e-12,1.82217207380435e-10,-1.922442403642e-11)
(1.12154140842355e-11,3.54929855860847e-10,-1.08530624684202e-11)
(0,0,0)
(0,0,0)
(0,0,0)
(0,0,0)
(0,0,0)
(0,0,0)
(-8.88916931986514e-15,3.74894026278205e-12,-7.019706672496e-11)
(-1.14345640528739e-12,6.72127458589001e-12,-6.94850017554186e-11)
(-1.10626368155623e-12,8.42747736071792e-12,-6.85985654709229e-11)
(-1.73513195340796e-12,1.22012771659511e-11,-6.73132868645612e-11)
(-1.77014580120221e-12,1.94510910360482e-11,-6.54180168888144e-11)
(-1.00984890409556e-12,3.14029559485798e-11,-6.21742371707181e-11)
(2.34881819431344e-12,5.75309843767004e-11,-5.50819009376523e-11)
(5.06845515953916e-12,9.91988219595436e-11,-4.83219053838272e-11)
(7.65681926268483e-12,1.72362445703367e-10,-3.62424200576165e-11)
(9.23687136815616e-12,3.43403692936551e-10,-2.00272630206911e-11)
(0,0,0)
(0,0,0)
(0,0,0)
(0,0,0)
(0,0,0)
(0,0,0)
(-1.9975700467617e-12,2.93471380843637e-12,-1.0901192502122e-10)
(-4.58717098497339e-12,5.83777869731662e-12,-1.08664345622568e-10)
(-5.93757702914546e-12,7.29632340229617e-12,-1.08031184092777e-10)
(-6.45165848703936e-12,1.01756051524344e-11,-1.07343357187593e-10)
(-5.5547813493547e-12,1.6916375254575e-11,-1.06040487279894e-10)
(-3.63889443890963e-12,2.80523051547017e-11,-1.02956938536702e-10)
(1.51391414815013e-13,5.0403467978514e-11,-9.62071750083121e-11)
(3.82685036322414e-12,8.60285897112203e-11,-8.41832611897682e-11)
(6.60149645030297e-12,1.54865620507944e-10,-6.47745863151922e-11)
(8.06413323311677e-12,3.22264717197879e-10,-3.67977754572339e-11)
(0,0,0)
(0,0,0)
(0,0,0)
(0,0,0)
(0,0,0)
(0,0,0)
(-5.08455625113733e-12,2.05409078608481e-12,-1.82769324395378e-10)
(-8.99925803611829e-12,4.41166424028729e-12,-1.82578255213819e-10)
(-1.08281605618651e-11,5.7748200884865e-12,-1.81953735433483e-10)
(-1.0881454896021e-11,7.77533200025002e-12,-1.81152133359374e-10)
(-8.94143209113175e-12,1.29576615415875e-11,-1.79724855567912e-10)
(-4.88375788792072e-12,2.13719910685677e-11,-1.75693106343361e-10)
(2.5193890685531e-13,3.73666443632455e-11,-1.66930103475128e-10)
(3.90292991675189e-12,6.54976549164992e-11,-1.50659995598036e-10)
(5.72467401572389e-12,1.25633096338556e-10,-1.23092331665198e-10)
(7.13298665947264e-12,2.84093046448967e-10,-7.6670763280888e-11)
(0,0,0)
(0,0,0)
(0,0,0)
(0,0,0)
(0,0,0)
(0,0,0)
(-6.98345204894687e-12,1.07220414622339e-12,-3.56325053837174e-10)
(-1.17992053506248e-11,2.35688543735966e-12,-3.55693529838675e-10)
(-1.37960772225732e-11,3.06236206494687e-12,-3.54492585825244e-10)
(-1.34976756990998e-11,4.07761351714737e-12,-3.53254413576427e-10)
(-1.0000706990342e-11,6.86002474461137e-12,-3.51265046418413e-10)
(-4.54958520046716e-12,1.14448865807986e-11,-3.45916923153323e-10)
(8.85785789014171e-13,2.00256253310515e-11,-3.3521833217845e-10)
(3.85542652392408e-12,3.66449895278199e-11,-3.15589964514139e-10)
(4.96005746621488e-12,7.74790374904204e-11,-2.79995675535527e-10)
(6.5452374521295e-12,2.0567461996157e-10,-2.04395195137747e-10)
(0,0,0)
(0,0,0)
(0,0,0)
(0,0,0)
(0,0,0)
(0,0,0)
(0,0,0)
(0,0,0)
(0,0,0)
(0,0,0)
(0,0,0)
(0,0,0)
(0,0,0)
(0,0,0)
(0,0,0)
(0,0,0)
(0,0,0)
(0,0,0)
(0,0,0)
(0,0,0)
(0,0,0)
(0,0,0)
(0,0,0)
(0,0,0)
(0,0,0)
(0,0,0)
(0,0,0)
(0,0,0)
(0,0,0)
(0,0,0)
(0,0,0)
(0,0,0)
(0,0,0)
(0,0,0)
(0,0,0)
(0,0,0)
(0,0,0)
(0,0,0)
(0,0,0)
(0,0,0)
(0,0,0)
(0,0,0)
(0,0,0)
(0,0,0)
(0,0,0)
(0,0,0)
(0,0,0)
(0,0,0)
(0,0,0)
(0,0,0)
(0,0,0)
(0,0,0)
(0,0,0)
(0,0,0)
(0,0,0)
(0,0,0)
(0,0,0)
(0,0,0)
(0,0,0)
(0,0,0)
(0,0,0)
(0,0,0)
(0,0,0)
(0,0,0)
(0,0,0)
(0,0,0)
(0,0,0)
(0,0,0)
(0,0,0)
(0,0,0)
(0,0,0)
(0,0,0)
(0,0,0)
(0,0,0)
(0,0,0)
(0,0,0)
(0,0,0)
(0,0,0)
(0,0,0)
(0,0,0)
(0,0,0)
(0,0,0)
(0,0,0)
(0,0,0)
(0,0,0)
(0,0,0)
(0,0,0)
(0,0,0)
(0,0,0)
(0,0,0)
(0,0,0)
(0,0,0)
(0,0,0)
(0,0,0)
(0,0,0)
(0,0,0)
(0,0,0)
(0,0,0)
(0,0,0)
(0,0,0)
(0,0,0)
(0,0,0)
(-2.08800972253338e-12,8.20134358669311e-12,-7.1786391274287e-12)
(-2.54685659997894e-12,1.47214399989563e-11,-7.02249469060341e-12)
(-1.8281255105649e-12,2.16430463204997e-11,-6.7184372061388e-12)
(-1.53540083348592e-12,3.15351440805463e-11,-6.55208667979778e-12)
(-3.99222364886784e-13,4.5248316744412e-11,-5.9467745164901e-12)
(1.04440073978348e-12,6.30516281964859e-11,-4.11145460092483e-12)
(2.2574806888253e-12,9.06370811221442e-11,-1.85952614472153e-12)
(4.07774331741533e-12,1.26725505962998e-10,4.94361619569826e-14)
(6.23384919047609e-12,1.79446897652158e-10,5.26501862514592e-13)
(7.1338522639321e-12,2.43854622029596e-10,3.8699859397809e-13)
(0,0,0)
(0,0,0)
(0,0,0)
(0,0,0)
(0,0,0)
(0,0,0)
(-2.32994851435912e-12,7.86027487228075e-12,-1.24995931567919e-11)
(-3.52624832638744e-12,1.42103612253149e-11,-1.26531535702296e-11)
(-3.02021785848987e-12,2.12631847664741e-11,-1.21280054366015e-11)
(-2.32609028963383e-12,3.08001954224714e-11,-1.10681438373205e-11)
(-8.96773442279881e-13,4.39464895224749e-11,-8.95227934495419e-12)
(1.22846038920301e-12,6.20754972618501e-11,-5.26683139106529e-12)
(4.12166935381271e-12,8.97032157243456e-11,-1.10351426117671e-12)
(7.4995220321304e-12,1.26643113441013e-10,1.15281803583511e-12)
(1.04115585710745e-11,1.79457770287757e-10,1.34721544245685e-12)
(1.20884684161013e-11,2.4396760711849e-10,8.00538967545048e-13)
(0,0,0)
(0,0,0)
(0,0,0)
(0,0,0)
(0,0,0)
(0,0,0)
(-2.00320522304269e-12,7.59538478078887e-12,-1.73987044939881e-11)
(-3.39485109114389e-12,1.33328228970327e-11,-1.74607366923217e-11)
(-2.75854394359997e-12,2.0024465930812e-11,-1.65716351747066e-11)
(-1.76403494692833e-12,2.89523510572787e-11,-1.43342590492054e-11)
(-9.69453815841834e-13,4.13067435104744e-11,-1.04600846206103e-11)
(1.52732329793442e-12,5.97445724901832e-11,-4.34022151644721e-12)
(6.14121377896031e-12,8.87457086008634e-11,2.804645406964e-12)
(9.27426089711044e-12,1.27082464123488e-10,4.019220357587e-12)
(1.17114706175203e-11,1.80069012275061e-10,2.88458138834027e-12)
(1.3011532467401e-11,2.44275955874542e-10,1.53420138699486e-12)
(0,0,0)
(0,0,0)
(0,0,0)
(0,0,0)
(0,0,0)
(0,0,0)
(-1.32191731470234e-12,7.29066990211409e-12,-2.66263467374661e-11)
(-2.17990795967813e-12,1.26083985477239e-11,-2.62323932559296e-11)
(-8.36033215650932e-13,1.83358600952385e-11,-2.48376700749326e-11)
(3.09671042445231e-13,2.61983477239392e-11,-2.16488370200896e-11)
(4.84257764047282e-13,3.69689710202576e-11,-1.60323476506885e-11)
(3.06062743296403e-12,5.49056844197646e-11,-7.37878965244474e-12)
(9.72156673206632e-12,8.75550987791043e-11,4.90017811396821e-12)
(1.07367667790457e-11,1.28693210887875e-10,3.4030327077015e-12)
(1.25517757753791e-11,1.81282695766041e-10,6.18340069612788e-13)
(1.39834299724107e-11,2.44757489468461e-10,-3.10073242184857e-13)
(0,0,0)
(0,0,0)
(0,0,0)
(0,0,0)
(0,0,0)
(0,0,0)
(-1.43841431187536e-13,6.99577639969032e-12,-4.24573397012517e-11)
(-9.08767973899367e-13,1.1725505693954e-11,-4.13619748913628e-11)
(4.91684436777427e-13,1.58228474285918e-11,-3.93763116275543e-11)
(1.34048519627965e-12,2.2081402536468e-11,-3.58582230280224e-11)
(8.1602615473379e-13,3.04265884380726e-11,-3.0250722762364e-11)
(2.66374597353824e-12,4.39134082183993e-11,-2.33114484533474e-11)
(3.9320585160427e-12,7.41967199287311e-11,-1.89451296450352e-11)
(8.50284865509141e-12,1.30026879133663e-10,-1.13310417007806e-11)
(1.17104888604407e-11,1.81537655807602e-10,-8.61700303215904e-12)
(1.33075376592713e-11,2.43348674765861e-10,-4.98264932547247e-12)
(0,0,0)
(0,0,0)
(0,0,0)
(0,0,0)
(0,0,0)
(0,0,0)
(4.4323639175694e-13,5.88321360531551e-12,-6.20158007741617e-11)
(-1.4891678315037e-13,9.90985758284818e-12,-6.05754390731825e-11)
(7.45920200151911e-13,1.26969148686416e-11,-5.87013021397311e-11)
(8.88445033404305e-13,1.74528465293573e-11,-5.56792277082371e-11)
(3.03152794168025e-13,2.44753752428793e-11,-5.0992871287293e-11)
(1.33872713164165e-12,3.81456764543536e-11,-4.44032654579138e-11)
(6.26948099584579e-12,8.11155807301095e-11,-3.43477220545446e-11)
(8.18841110850692e-12,1.28172872907246e-10,-3.04868489274896e-11)
(1.07100878722785e-11,1.76487720802974e-10,-2.30173082170299e-11)
(1.18885145399469e-11,2.37031264951771e-10,-1.26009670028682e-11)
(0,0,0)
(0,0,0)
(0,0,0)
(0,0,0)
(0,0,0)
(0,0,0)
(9.32723158306642e-14,4.52998508510475e-12,-8.67689742135563e-11)
(-1.14639680092417e-12,8.06230152854281e-12,-8.5587332445187e-11)
(-1.26038833008391e-12,9.91801623483133e-12,-8.41120918082055e-11)
(-1.60472991517876e-12,1.30115929936419e-11,-8.2683220417538e-11)
(-2.47920973784375e-12,1.7681144532351e-11,-8.11106315784649e-11)
(-4.75153434345495e-12,2.53094856051432e-11,-7.90004583016001e-11)
(2.716339038901e-12,6.67841966873523e-11,-6.25065898869086e-11)
(6.15920208138284e-12,1.17107887407789e-10,-6.19571119915929e-11)
(8.93848742144714e-12,1.63496374014308e-10,-4.4034728713574e-11)
(1.03485840861668e-11,2.22749030166609e-10,-2.31651414157458e-11)
(0,0,0)
(0,0,0)
(0,0,0)
(0,0,0)
(0,0,0)
(0,0,0)
(-1.46452642280357e-12,3.62159904028536e-12,-1.2100304899344e-10)
(-3.79421805797611e-12,6.47743851478822e-12,-1.20360360204262e-10)
(-5.10390062088567e-12,8.0020688799871e-12,-1.19544121878469e-10)
(-5.35425524183802e-12,1.08241952045202e-11,-1.19135442703034e-10)
(-4.67961637997286e-12,1.6865516390472e-11,-1.18477564107633e-10)
(-3.70834388125227e-12,2.93621921926796e-11,-1.17060453801109e-10)
(1.16430121219497e-12,6.39770577788071e-11,-1.11309524604275e-10)
(4.94911028225063e-12,9.72918449151779e-11,-9.40797141664856e-11)
(7.85720976193502e-12,1.40580476751126e-10,-6.84922416005381e-11)
(9.43802852510927e-12,1.97775976054863e-10,-3.69970604838459e-11)
(0,0,0)
(0,0,0)
(0,0,0)
(0,0,0)
(0,0,0)
(0,0,0)
(-4.2937387932619e-12,2.8651527445952e-12,-1.69810109177897e-10)
(-7.56899901367889e-12,5.00259725777951e-12,-1.69668014377981e-10)
(-8.91730461229837e-12,6.31719208336854e-12,-1.69276828901122e-10)
(-8.61101420449658e-12,8.57198687264376e-12,-1.69002710600536e-10)
(-6.87554451809219e-12,1.42594312116105e-11,-1.67850105888844e-10)
(-3.71965626831125e-12,2.45768527608364e-11,-1.63892305792017e-10)
(1.32285006171552e-12,4.51144814974164e-11,-1.54361346600746e-10)
(5.18793137227139e-12,6.98983185705893e-11,-1.33980698408331e-10)
(7.45716447980543e-12,1.06832231053467e-10,-1.02788453503668e-10)
(8.88064986583434e-12,1.58396078933985e-10,-5.88134148040311e-11)
(0,0,0)
(0,0,0)
(0,0,0)
(0,0,0)
(0,0,0)
(0,0,0)
(-6.54277190155614e-12,1.77771894783938e-12,-2.33101902485396e-10)
(-1.06432639271657e-11,2.91209457495598e-12,-2.32391025479942e-10)
(-1.19718874059989e-11,3.72797658801287e-12,-2.31517361979656e-10)
(-1.14094293406294e-11,4.87535041201508e-12,-2.30427821861226e-10)
(-8.48880551026456e-12,8.05509133086961e-12,-2.28116944162671e-10)
(-3.80328959500347e-12,1.34417477676334e-11,-2.21932075448303e-10)
(1.28304345622802e-12,2.32226675529213e-11,-2.09767543775128e-10)
(4.90612707244103e-12,3.72332089204286e-11,-1.87381632181037e-10)