/*--------------------------------*- C++ -*----------------------------------*\
| =========                 |                                                 |
| \\      /  F ield         | foam-extend: Open Source Cstd::filesystem::create_directory();FD                    |
|  \\    /   O peration     | Version:     4.0                                |
|   \\  /    A nd           | Web:         http://www.foam-extend.org         |
|    \\/     M anipulation  |                                                 |
\*---------------------------------------------------------------------------*/
FoamFile
{
    version 2.0;
    format ascii;
    class volVectorField;
    location "Data/1953";
    object      H;
}
// * * * * * * * * * * * * * * * * * * * * * * * * * * * * * * * * * * * * * //

dimensions      [0 1 -1 0 0 0 0];

internalField   nonuniform List<vector>
4096
(
(0,0,0)
(0,0,0)
(0,0,0)
(0,0,0)
(0,0,0)
(0,0,0)
(0,0,0)
(0,0,0)
(0,0,0)
(0,0,0)
(0,0,0)
(0,0,0)
(0,0,0)
(0,0,0)
(0,0,0)
(0,0,0)
(0,0,0)
(0,0,0)
(0,0,0)
(0,0,0)
(0,0,0)
(0,0,0)
(0,0,0)
(0,0,0)
(0,0,0)
(0,0,0)
(0,0,0)
(0,0,0)
(0,0,0)
(0,0,0)
(0,0,0)
(0,0,0)
(0,0,0)
(0,0,0)
(0,0,0)
(0,0,0)
(0,0,0)
(0,0,0)
(0,0,0)
(0,0,0)
(0,0,0)
(0,0,0)
(0,0,0)
(0,0,0)
(0,0,0)
(0,0,0)
(0,0,0)
(0,0,0)
(0,0,0)
(0,0,0)
(0,0,0)
(0,0,0)
(0,0,0)
(0,0,0)
(0,0,0)
(0,0,0)
(0,0,0)
(0,0,0)
(0,0,0)
(0,0,0)
(0,0,0)
(0,0,0)
(0,0,0)
(0,0,0)
(0,0,0)
(0,0,0)
(0,0,0)
(0,0,0)
(0,0,0)
(0,0,0)
(0,0,0)
(0,0,0)
(0,0,0)
(0,0,0)
(0,0,0)
(0,0,0)
(0,0,0)
(0,0,0)
(0,0,0)
(0,0,0)
(0,0,0)
(0,0,0)
(0,0,0)
(0,0,0)
(0,0,0)
(0,0,0)
(0,0,0)
(0,0,0)
(0,0,0)
(0,0,0)
(0,0,0)
(0,0,0)
(0,0,0)
(0,0,0)
(0,0,0)
(0,0,0)
(0,0,0)
(0,0,0)
(0,0,0)
(0,0,0)
(0,0,0)
(0,0,0)
(0,0,0)
(0,0,0)
(0,0,0)
(0,0,0)
(0,0,0)
(0,0,0)
(0,0,0)
(0,0,0)
(0,0,0)
(0,0,0)
(0,0,0)
(0,0,0)
(0,0,0)
(0,0,0)
(0,0,0)
(0,0,0)
(0,0,0)
(0,0,0)
(0,0,0)
(0,0,0)
(0,0,0)
(0,0,0)
(0,0,0)
(0,0,0)
(0,0,0)
(0,0,0)
(0,0,0)
(0,0,0)
(0,0,0)
(0,0,0)
(0,0,0)
(0,0,0)
(0,0,0)
(0,0,0)
(0,0,0)
(0,0,0)
(0,0,0)
(0,0,0)
(0,0,0)
(0,0,0)
(0,0,0)
(0,0,0)
(0,0,0)
(0,0,0)
(0,0,0)
(0,0,0)
(0,0,0)
(0,0,0)
(0,0,0)
(0,0,0)
(0,0,0)
(0,0,0)
(0,0,0)
(0,0,0)
(0,0,0)
(0,0,0)
(0,0,0)
(0,0,0)
(0,0,0)
(0,0,0)
(0,0,0)
(0,0,0)
(0,0,0)
(0,0,0)
(0,0,0)
(0,0,0)
(0,0,0)
(0,0,0)
(0,0,0)
(0,0,0)
(0,0,0)
(0,0,0)
(0,0,0)
(0,0,0)
(0,0,0)
(0,0,0)
(0,0,0)
(0,0,0)
(0,0,0)
(0,0,0)
(0,0,0)
(0,0,0)
(0,0,0)
(0,0,0)
(0,0,0)
(0,0,0)
(0,0,0)
(0,0,0)
(0,0,0)
(0,0,0)
(0,0,0)
(0,0,0)
(0,0,0)
(0,0,0)
(0,0,0)
(0,0,0)
(0,0,0)
(0,0,0)
(0,0,0)
(0,0,0)
(0,0,0)
(0,0,0)
(0,0,0)
(0,0,0)
(0,0,0)
(0,0,0)
(0,0,0)
(0,0,0)
(0,0,0)
(0,0,0)
(0,0,0)
(0,0,0)
(0,0,0)
(0,0,0)
(0,0,0)
(0,0,0)
(0,0,0)
(0,0,0)
(0,0,0)
(0,0,0)
(0,0,0)
(0,0,0)
(0,0,0)
(0,0,0)
(0,0,0)
(0,0,0)
(0,0,0)
(0,0,0)
(0,0,0)
(0,0,0)
(0,0,0)
(0,0,0)
(0,0,0)
(0,0,0)
(0,0,0)
(0,0,0)
(0,0,0)
(0,0,0)
(0,0,0)
(0,0,0)
(0,0,0)
(0,0,0)
(0,0,0)
(0,0,0)
(0,0,0)
(0,0,0)
(0,0,0)
(0,0,0)
(0,0,0)
(0,0,0)
(0,0,0)
(0,0,0)
(0,0,0)
(0,0,0)
(0,0,0)
(0,0,0)
(0,0,0)
(0,0,0)
(0,0,0)
(0,0,0)
(0,0,0)
(0,0,0)
(0,0,0)
(0,0,0)
(0,0,0)
(0,0,0)
(0,0,0)
(0,0,0)
(0,0,0)
(0,0,0)
(0,0,0)
(0,0,0)
(0,0,0)
(0,0,0)
(0,0,0)
(0,0,0)
(0,0,0)
(0,0,0)
(0,0,0)
(0,0,0)
(0,0,0)
(0,0,0)
(0,0,0)
(0,0,0)
(0,0,0)
(0,0,0)
(0,0,0)
(0,0,0)
(0,0,0)
(0,0,0)
(0,0,0)
(0,0,0)
(0,0,0)
(0,0,0)
(0,0,0)
(0,0,0)
(0,0,0)
(0,0,0)
(0,0,0)
(0,0,0)
(0,0,0)
(0,0,0)
(0,0,0)
(0,0,0)
(0,0,0)
(0,0,0)
(0,0,0)
(0,0,0)
(0,0,0)
(0,0,0)
(0,0,0)
(0,0,0)
(0,0,0)
(0,0,0)
(0,0,0)
(0,0,0)
(0,0,0)
(0,0,0)
(0,0,0)
(0,0,0)
(0,0,0)
(0,0,0)
(0,0,0)
(0,0,0)
(0,0,0)
(0,0,0)
(0,0,0)
(0,0,0)
(0,0,0)
(0,0,0)
(0,0,0)
(0,0,0)
(0,0,0)
(0,0,0)
(0,0,0)
(0,0,0)
(0,0,0)
(0,0,0)
(0,0,0)
(0,0,0)
(0,0,0)
(0,0,0)
(0,0,0)
(0,0,0)
(0,0,0)
(0,0,0)
(0,0,0)
(0,0,0)
(0,0,0)
(0,0,0)
(0,0,0)
(0,0,0)
(0,0,0)
(0,0,0)
(0,0,0)
(0,0,0)
(0,0,0)
(0,0,0)
(0,0,0)
(0,0,0)
(0,0,0)
(0,0,0)
(0,0,0)
(0,0,0)
(0,0,0)
(0,0,0)
(0,0,0)
(0,0,0)
(0,0,0)
(0,0,0)
(0,0,0)
(0,0,0)
(0,0,0)
(0,0,0)
(0,0,0)
(0,0,0)
(0,0,0)
(0,0,0)
(0,0,0)
(0,0,0)
(0,0,0)
(0,0,0)
(0,0,0)
(0,0,0)
(0,0,0)
(0,0,0)
(0,0,0)
(0,0,0)
(0,0,0)
(0,0,0)
(0,0,0)
(0,0,0)
(0,0,0)
(0,0,0)
(0,0,0)
(0,0,0)
(0,0,0)
(0,0,0)
(0,0,0)
(0,0,0)
(0,0,0)
(0,0,0)
(0,0,0)
(0,0,0)
(0,0,0)
(0,0,0)
(0,0,0)
(0,0,0)
(0,0,0)
(0,0,0)
(0,0,0)
(0,0,0)
(0,0,0)
(0,0,0)
(0,0,0)
(0,0,0)
(0,0,0)
(0,0,0)
(0,0,0)
(0,0,0)
(0,0,0)
(0,0,0)
(0,0,0)
(0,0,0)
(0,0,0)
(0,0,0)
(0,0,0)
(0,0,0)
(0,0,0)
(0,0,0)
(0,0,0)
(0,0,0)
(0,0,0)
(0,0,0)
(0,0,0)
(0,0,0)
(0,0,0)
(0,0,0)
(0,0,0)
(0,0,0)
(0,0,0)
(0,0,0)
(0,0,0)
(0,0,0)
(0,0,0)
(0,0,0)
(0,0,0)
(0,0,0)
(0,0,0)
(0,0,0)
(0,0,0)
(0,0,0)
(0,0,0)
(0,0,0)
(0,0,0)
(0,0,0)
(0,0,0)
(0,0,0)
(0,0,0)
(0,0,0)
(0,0,0)
(0,0,0)
(0,0,0)
(0,0,0)
(0,0,0)
(0,0,0)
(0,0,0)
(0,0,0)
(0,0,0)
(0,0,0)
(0,0,0)
(0,0,0)
(0,0,0)
(0,0,0)
(0,0,0)
(0,0,0)
(0,0,0)
(0,0,0)
(0,0,0)
(0,0,0)
(0,0,0)
(0,0,0)
(0,0,0)
(0,0,0)
(0,0,0)
(0,0,0)
(0,0,0)
(0,0,0)
(0,0,0)
(0,0,0)
(0,0,0)
(0,0,0)
(0,0,0)
(0,0,0)
(0,0,0)
(0,0,0)
(0,0,0)
(0,0,0)
(0,0,0)
(0,0,0)
(0,0,0)
(0,0,0)
(0,0,0)
(0,0,0)
(0,0,0)
(0,0,0)
(0,0,0)
(0,0,0)
(0,0,0)
(0,0,0)
(0,0,0)
(0,0,0)
(0,0,0)
(0,0,0)
(0,0,0)
(0,0,0)
(0,0,0)
(0,0,0)
(0,0,0)
(0,0,0)
(0,0,0)
(0,0,0)
(0,0,0)
(0,0,0)
(0,0,0)
(0,0,0)
(0,0,0)
(0,0,0)
(0,0,0)
(0,0,0)
(0,0,0)
(0,0,0)
(0,0,0)
(0,0,0)
(0,0,0)
(0,0,0)
(0,0,0)
(0,0,0)
(0,0,0)
(0,0,0)
(0,0,0)
(0,0,0)
(0,0,0)
(0,0,0)
(0,0,0)
(0,0,0)
(0,0,0)
(0,0,0)
(0,0,0)
(0,0,0)
(0,0,0)
(0,0,0)
(0,0,0)
(0,0,0)
(0,0,0)
(0,0,0)
(0,0,0)
(0,0,0)
(0,0,0)
(0,0,0)
(0,0,0)
(0,0,0)
(0,0,0)
(0,0,0)
(0,0,0)
(0,0,0)
(0,0,0)
(0,0,0)
(0,0,0)
(0,0,0)
(0,0,0)
(0,0,0)
(0,0,0)
(0,0,0)
(0,0,0)
(0,0,0)
(0,0,0)
(0,0,0)
(0,0,0)
(0,0,0)
(0,0,0)
(0,0,0)
(0,0,0)
(0,0,0)
(0,0,0)
(0,0,0)
(0,0,0)
(0,0,0)
(0,0,0)
(0,0,0)
(0,0,0)
(0,0,0)
(0,0,0)
(0,0,0)
(0,0,0)
(0,0,0)
(0,0,0)
(0,0,0)
(0,0,0)
(0,0,0)
(0,0,0)
(0,0,0)
(0,0,0)
(0,0,0)
(0,0,0)
(0,0,0)
(0,0,0)
(0,0,0)
(0,0,0)
(0,0,0)
(0,0,0)
(0,0,0)
(0,0,0)
(0,0,0)
(0,0,0)
(0,0,0)
(0,0,0)
(0,0,0)
(0,0,0)
(0,0,0)
(0,0,0)
(0,0,0)
(0,0,0)
(0,0,0)
(0,0,0)
(0,0,0)
(0,0,0)
(0,0,0)
(0,0,0)
(0,0,0)
(0,0,0)
(0,0,0)
(0,0,0)
(0,0,0)
(0,0,0)
(0,0,0)
(0,0,0)
(0,0,0)
(0,0,0)
(0,0,0)
(0,0,0)
(0,0,0)
(0,0,0)
(0,0,0)
(0,0,0)
(0,0,0)
(0,0,0)
(0,0,0)
(0,0,0)
(0,0,0)
(0,0,0)
(0,0,0)
(0,0,0)
(0,0,0)
(0,0,0)
(0,0,0)
(0,0,0)
(0,0,0)
(0,0,0)
(0,0,0)
(0,0,0)
(0,0,0)
(0,0,0)
(0,0,0)
(0,0,0)
(0,0,0)
(0,0,0)
(0,0,0)
(0,0,0)
(0,0,0)
(0,0,0)
(0,0,0)
(0,0,0)
(0,0,0)
(0,0,0)
(0,0,0)
(0,0,0)
(0,0,0)
(0,0,0)
(0,0,0)
(0,0,0)
(0,0,0)
(0,0,0)
(0,0,0)
(0,0,0)
(0,0,0)
(0,0,0)
(0,0,0)
(0,0,0)
(0,0,0)
(0,0,0)
(0,0,0)
(0,0,0)
(0,0,0)
(0,0,0)
(0,0,0)
(0,0,0)
(0,0,0)
(0,0,0)
(0,0,0)
(0,0,0)
(0,0,0)
(0,0,0)
(0,0,0)
(0,0,0)
(0,0,0)
(0,0,0)
(0,0,0)
(0,0,0)
(0,0,0)
(0,0,0)
(0,0,0)
(0,0,0)
(0,0,0)
(0,0,0)
(0,0,0)
(0,0,0)
(0,0,0)
(0,0,0)
(0,0,0)
(0,0,0)
(0,0,0)
(0,0,0)
(0,0,0)
(0,0,0)
(0,0,0)
(0,0,0)
(0,0,0)
(0,0,0)
(0,0,0)
(0,0,0)
(0,0,0)
(0,0,0)
(0,0,0)
(0,0,0)
(0,0,0)
(0,0,0)
(0,0,0)
(0,0,0)
(0,0,0)
(0,0,0)
(0,0,0)
(0,0,0)
(0,0,0)
(0,0,0)
(0,0,0)
(0,0,0)
(0,0,0)
(0,0,0)
(0,0,0)
(0,0,0)
(0,0,0)
(0,0,0)
(0,0,0)
(0,0,0)
(0,0,0)
(0,0,0)
(0,0,0)
(0,0,0)
(0,0,0)
(0,0,0)
(0,0,0)
(0,0,0)
(0,0,0)
(0,0,0)
(0,0,0)
(0,0,0)
(0,0,0)
(0,0,0)
(0,0,0)
(0,0,0)
(0,0,0)
(0,0,0)
(0,0,0)
(0,0,0)
(0,0,0)
(0,0,0)
(0,0,0)
(0,0,0)
(0,0,0)
(0,0,0)
(0,0,0)
(0,0,0)
(0,0,0)
(0,0,0)
(0,0,0)
(0,0,0)
(0,0,0)
(0,0,0)
(0,0,0)
(0,0,0)
(0,0,0)
(0,0,0)
(0,0,0)
(0,0,0)
(0,0,0)
(0,0,0)
(0,0,0)
(0,0,0)
(0,0,0)
(0,0,0)
(0,0,0)
(0,0,0)
(0,0,0)
(0,0,0)
(0,0,0)
(0,0,0)
(0,0,0)
(0,0,0)
(0,0,0)
(0,0,0)
(0,0,0)
(0,0,0)
(0,0,0)
(0,0,0)
(0,0,0)
(0,0,0)
(1.89091918189659e-12,-7.96883527492726e-12,6.23806897311926e-12)
(3.5128103949391e-12,-1.73412071171001e-11,5.82863342411103e-12)
(4.63859208645999e-12,-3.05131449998119e-11,5.48587105107615e-12)
(6.64456634719599e-12,-5.12689847239099e-11,5.1516247179439e-12)
(7.78131300947841e-12,-8.30952335422651e-11,4.13475464821939e-12)
(9.12428222735916e-12,-1.31446435743723e-10,2.66573308979407e-12)
(9.82017804930763e-12,-2.07637679732685e-10,1.72150194411689e-12)
(9.95191201807625e-12,-3.34476447654177e-10,9.90662287554468e-13)
(8.6175878411201e-12,-5.42847047129537e-10,5.26769541437503e-13)
(7.724015813398e-12,-8.33708282337061e-10,4.92934608945295e-13)
(0,0,0)
(0,0,0)
(0,0,0)
(0,0,0)
(0,0,0)
(0,0,0)
(3.43934456826125e-12,-7.41915776485027e-12,1.45267383447303e-11)
(6.16194412101364e-12,-1.65356088191172e-11,1.45176667127929e-11)
(7.99589281433157e-12,-2.96238598538362e-11,1.41789266052138e-11)
(1.0499497295391e-11,-4.96469168893787e-11,1.32308977077068e-11)
(1.27605737805977e-11,-8.10113387446287e-11,1.10016070153236e-11)
(1.50678833845492e-11,-1.29657593340075e-10,7.76550155703251e-12)
(1.68117477033002e-11,-2.06459393594141e-10,4.92919526276631e-12)
(1.7997975974079e-11,-3.34051250469703e-10,3.12300532292169e-12)
(1.73796772370054e-11,-5.43334157966592e-10,1.93240175958688e-12)
(1.6660852536619e-11,-8.34246134051469e-10,1.17624609400044e-12)
(0,0,0)
(0,0,0)
(0,0,0)
(0,0,0)
(0,0,0)
(0,0,0)
(4.07222773049677e-12,-7.0789076651224e-12,2.83297601390373e-11)
(7.91165097839778e-12,-1.55467030199606e-11,2.80919888039131e-11)
(1.11538184133126e-11,-2.79669652615631e-11,2.71146059805856e-11)
(1.40845909922492e-11,-4.68889389807711e-11,2.53113487267504e-11)
(1.68837861050407e-11,-7.73615874487384e-11,2.20338221945959e-11)
(1.92223138093022e-11,-1.26169034899419e-10,1.71135902591845e-11)
(2.19204864466254e-11,-2.04114072913112e-10,1.19848306147731e-11)
(2.47603269109802e-11,-3.32868219877979e-10,8.7595041784318e-12)
(2.53042110196115e-11,-5.42910599914037e-10,6.2800073239915e-12)
(2.46730763360983e-11,-8.33909559060572e-10,3.48069998148268e-12)
(0,0,0)
(0,0,0)
(0,0,0)
(0,0,0)
(0,0,0)
(0,0,0)
(4.10796539210872e-12,-6.86661969243918e-12,4.97853631615868e-11)
(8.22917056252845e-12,-1.41261983486915e-11,4.89368786560222e-11)
(1.20860313858968e-11,-2.50156501063208e-11,4.70490563778449e-11)
(1.55466634583872e-11,-4.23154964680799e-11,4.44369529449925e-11)
(1.89771915891906e-11,-7.14961725344529e-11,4.04460402691003e-11)
(2.12397948697405e-11,-1.20188034337332e-10,3.46624642758176e-11)
(2.48136397040175e-11,-2.00032107316495e-10,2.78423591542571e-11)
(2.92731752534329e-11,-3.30442252982927e-10,2.18849473819184e-11)
(3.13641121501716e-11,-5.40458586810403e-10,1.58076899355478e-11)
(3.11308857852587e-11,-8.31315985441928e-10,8.38152889793194e-12)
(0,0,0)
(0,0,0)
(0,0,0)
(0,0,0)
(0,0,0)
(0,0,0)
(3.41744839384705e-12,-5.89805500853904e-12,8.07425154208264e-11)
(7.28381100746822e-12,-1.17110461179622e-11,7.98597955434473e-11)
(1.18649810761263e-11,-2.1147153187158e-11,7.78902145234389e-11)
(1.60241994350815e-11,-3.67339729923878e-11,7.51241490726016e-11)
(1.99060230040638e-11,-6.38066942115895e-11,7.1092907428095e-11)
(2.26447037856794e-11,-1.11337102883615e-10,6.55987731102734e-11)
(2.76094956505421e-11,-1.924376893495e-10,5.81866211818123e-11)
(3.240611839867e-11,-3.24537809569044e-10,4.70142123410209e-11)
(3.57311904980939e-11,-5.33721532624922e-10,3.34241845960912e-11)
(3.73243530232719e-11,-8.24073481369488e-10,1.74115939564947e-11)
(0,0,0)
(0,0,0)
(0,0,0)
(0,0,0)
(0,0,0)
(0,0,0)
(3.31324813429191e-12,-4.69491090334607e-12,1.25827590980829e-10)
(6.68885363668692e-12,-9.32962553721764e-12,1.24800965842658e-10)
(1.16527046576626e-11,-1.72778120503264e-11,1.2305055449611e-10)
(1.61220189084099e-11,-3.07490803852172e-11,1.20855041341655e-10)
(1.96369717218726e-11,-5.50326004290455e-11,1.177045085521e-10)
(2.30327419596269e-11,-1.00464196874988e-10,1.1227279606655e-10)
(2.75952707000759e-11,-1.81433107202958e-10,1.02636032476503e-10)
(3.16508882048395e-11,-3.11959355757541e-10,8.61064841019633e-11)
(3.47887065138266e-11,-5.1849792573496e-10,6.25074530181158e-11)
(3.67874566666031e-11,-8.0710623537833e-10,3.30507520271296e-11)
(0,0,0)
(0,0,0)
(0,0,0)
(0,0,0)
(0,0,0)
(0,0,0)
(3.56704035674241e-12,-3.22754094172875e-12,2.00641434232311e-10)
(6.96941753838161e-12,-7.26264292674356e-12,1.99919541091742e-10)
(1.15066988250539e-11,-1.39039598493302e-11,1.98035136704326e-10)
(1.6210453106449e-11,-2.53160342172997e-11,1.95678741206968e-10)
(1.98372555293556e-11,-4.66246949493784e-11,1.92844066132179e-10)
(2.31346702107047e-11,-8.83440836352917e-11,1.86817282325192e-10)
(2.65408691057894e-11,-1.65581420254541e-10,1.7284254488472e-10)
(2.98738228072667e-11,-2.90036877978014e-10,1.48935808737023e-10)
(3.23216173767136e-11,-4.90434409977333e-10,1.10684676539571e-10)
(3.37873235674468e-11,-7.74907978686021e-10,5.99786104604124e-11)
(0,0,0)
(0,0,0)
(0,0,0)
(0,0,0)
(0,0,0)
(0,0,0)
(3.14423119775304e-12,-2.26367349092966e-12,3.26531345401501e-10)
(6.20121642700432e-12,-5.24281070054101e-12,3.25553652682235e-10)
(1.03855280448777e-11,-1.04649154806648e-11,3.23581115576353e-10)
(1.54296891996012e-11,-2.0352190932235e-11,3.20900290495157e-10)
(1.87400121660358e-11,-3.90149509659701e-11,3.17072562262888e-10)
(2.10315937373316e-11,-7.53449805141243e-11,3.08829193961587e-10)
(2.34162948972358e-11,-1.42001349845451e-10,2.90125741524847e-10)
(2.6790157684915e-11,-2.52863478550594e-10,2.54379104657501e-10)
(2.99142697426858e-11,-4.40814037069731e-10,1.96147966034295e-10)
(3.14426548199082e-11,-7.15445470644913e-10,1.111090301512e-10)
(0,0,0)
(0,0,0)
(0,0,0)
(0,0,0)
(0,0,0)
(0,0,0)
(2.34583255273294e-12,-1.51461673823691e-12,5.34486805694058e-10)
(5.14718475937015e-12,-3.68788334511849e-12,5.33676066750275e-10)
(9.11262515536e-12,-7.30614360437666e-12,5.31881715812598e-10)
(1.331236823812e-11,-1.4754979989024e-11,5.28816749569339e-10)
(1.65282112585388e-11,-2.91461796379619e-11,5.23328354879766e-10)
(1.88904478799989e-11,-5.64278497207283e-11,5.11627853052876e-10)
(2.10461627670941e-11,-1.06272265026579e-10,4.86905623375855e-10)
(2.47561956623108e-11,-1.95028751330515e-10,4.39122759883905e-10)
(2.79985857887749e-11,-3.55892085734198e-10,3.55022000012964e-10)
(2.88333895090952e-11,-6.03874310624159e-10,2.13641877469066e-10)
(0,0,0)
(0,0,0)
(0,0,0)
(0,0,0)
(0,0,0)
(0,0,0)
(1.94458668077395e-12,-1.12549711828383e-12,8.27221294851251e-10)
(4.80920484932003e-12,-2.28310470777891e-12,8.25886912307282e-10)
(8.27941223317258e-12,-3.95501624931815e-12,8.23918297480076e-10)
(1.10277979621846e-11,-7.84297471661089e-12,8.20446094714603e-10)
(1.43374701039872e-11,-1.58242322896312e-11,8.13885424438614e-10)
(1.65962794260028e-11,-3.06338282570857e-11,7.99737584005791e-10)
(1.86198295614437e-11,-5.79249376902205e-11,7.70123055290307e-10)
(2.28249929815211e-11,-1.10290271436158e-10,7.12227588028555e-10)
(2.67279940148168e-11,-2.13576895484232e-10,6.02476883101748e-10)
(2.73707765573319e-11,-3.8989924461338e-10,3.90056261306701e-10)
(0,0,0)
(0,0,0)
(0,0,0)
(0,0,0)
(0,0,0)
(0,0,0)
(0,0,0)
(0,0,0)
(0,0,0)
(0,0,0)
(0,0,0)
(0,0,0)
(0,0,0)
(0,0,0)
(0,0,0)
(0,0,0)
(0,0,0)
(0,0,0)
(0,0,0)
(0,0,0)
(0,0,0)
(0,0,0)
(0,0,0)
(0,0,0)
(0,0,0)
(0,0,0)
(0,0,0)
(0,0,0)
(0,0,0)
(0,0,0)
(0,0,0)
(0,0,0)
(0,0,0)
(0,0,0)
(0,0,0)
(0,0,0)
(0,0,0)
(0,0,0)
(0,0,0)
(0,0,0)
(0,0,0)
(0,0,0)
(0,0,0)
(0,0,0)
(0,0,0)
(0,0,0)
(0,0,0)
(0,0,0)
(0,0,0)
(0,0,0)
(0,0,0)
(0,0,0)
(0,0,0)
(0,0,0)
(0,0,0)
(0,0,0)
(0,0,0)
(0,0,0)
(0,0,0)
(0,0,0)
(0,0,0)
(0,0,0)
(0,0,0)
(0,0,0)
(0,0,0)
(0,0,0)
(0,0,0)
(0,0,0)
(0,0,0)
(0,0,0)
(0,0,0)
(0,0,0)
(0,0,0)
(0,0,0)
(0,0,0)
(0,0,0)
(0,0,0)
(0,0,0)
(0,0,0)
(0,0,0)
(0,0,0)
(0,0,0)
(0,0,0)
(0,0,0)
(0,0,0)
(0,0,0)
(0,0,0)
(0,0,0)
(0,0,0)
(0,0,0)
(0,0,0)
(0,0,0)
(0,0,0)
(0,0,0)
(0,0,0)
(0,0,0)
(0,0,0)
(0,0,0)
(0,0,0)
(0,0,0)
(0,0,0)
(0,0,0)
(1.7506772208245e-12,-1.54531547000778e-11,1.32434368437685e-11)
(3.0499744699896e-12,-3.35841495417579e-11,1.30063538017466e-11)
(4.08355327359388e-12,-5.85527464748074e-11,1.24894406796674e-11)
(6.0393685823889e-12,-9.59440673948629e-11,1.09042671309104e-11)
(7.16643977021995e-12,-1.50888966518206e-10,8.27489782493202e-12)
(8.27967096941048e-12,-2.3417211404057e-10,4.89596762364664e-12)
(9.37273156739392e-12,-3.64375750776778e-10,1.77722482803715e-12)
(9.99060757955257e-12,-5.8383312022719e-10,2.87782459980017e-13)
(9.13853361032995e-12,-1.00067722992462e-09,-1.33829226290327e-13)
(8.75480213630745e-12,-1.95864219831829e-09,6.16575666150622e-14)
(0,0,0)
(0,0,0)
(0,0,0)
(0,0,0)
(0,0,0)
(0,0,0)
(3.10816610047185e-12,-1.48606722196872e-11,3.05136926578789e-11)
(5.51177842943974e-12,-3.2894489739136e-11,3.02517408072802e-11)
(7.287027119574e-12,-5.70578330626371e-11,2.88896173419631e-11)
(9.97081007915934e-12,-9.29876148065077e-11,2.55859087620201e-11)
(1.2346927942996e-11,-1.47225660155694e-10,2.01303518007729e-11)
(1.44156312381354e-11,-2.30889491572909e-10,1.27351148330431e-11)
(1.62726169620233e-11,-3.62615483239124e-10,5.55589102462086e-12)
(1.80055489459086e-11,-5.83696359095925e-10,2.41472438586852e-12)
(1.77122748504248e-11,-1.00204281729433e-09,1.58771673993553e-12)
(1.75005236399551e-11,-1.96021762705374e-09,1.17301161981095e-12)
(0,0,0)
(0,0,0)
(0,0,0)
(0,0,0)
(0,0,0)
(0,0,0)
(4.09771109293857e-12,-1.38965277993159e-11,5.61764056826773e-11)
(7.46852913046122e-12,-3.06401219726308e-11,5.53429050572702e-11)
(1.00057605119215e-11,-5.30621033541702e-11,5.25520598333857e-11)
(1.27886750117178e-11,-8.66563311456247e-11,4.73812386390879e-11)
(1.5938603126114e-11,-1.39358759440372e-10,3.92687668245994e-11)
(1.83700728916228e-11,-2.23389447247429e-10,2.77894183206073e-11)
(2.10638472863768e-11,-3.58817516200289e-10,1.56098549372724e-11)
(2.48138568702225e-11,-5.83385534129054e-10,1.01820344041828e-11)
(2.56515052582655e-11,-1.00306879117078e-09,7.75124628014702e-12)
(2.55602026987544e-11,-1.96099195050628e-09,4.62891472779663e-12)
(0,0,0)
(0,0,0)
(0,0,0)
(0,0,0)
(0,0,0)
(0,0,0)
(3.98788521377252e-12,-1.25960288337036e-11,9.40344792351885e-11)
(7.70184060997339e-12,-2.7030825953035e-11,9.25209775266355e-11)
(1.08296378995787e-11,-4.6718712152799e-11,8.85374684658749e-11)
(1.39560526585921e-11,-7.68756143630158e-11,8.18433118544942e-11)
(1.7071289259604e-11,-1.26438935299031e-10,7.20694992643615e-11)
(1.9208968537599e-11,-2.09660920214166e-10,5.8250045897789e-11)
(2.3176633509346e-11,-3.51172837187097e-10,4.25184504882864e-11)
(2.94459892860007e-11,-5.82199252544383e-10,3.27714159963554e-11)
(3.2053219002744e-11,-1.00211582989876e-09,2.39562041053504e-11)
(3.22699106115981e-11,-1.95887450220251e-09,1.29568589962817e-11)
(0,0,0)
(0,0,0)
(0,0,0)
(0,0,0)
(0,0,0)
(0,0,0)
(3.09702416603303e-12,-1.09253389779792e-11,1.47897456264231e-10)
(6.87197144672982e-12,-2.25173550594489e-11,1.46039112325195e-10)
(1.07617053901313e-11,-3.87377813693747e-11,1.41854974389457e-10)
(1.40705484724139e-11,-6.43944633287315e-11,1.35515736771103e-10)
(1.66260635393507e-11,-1.08438139456476e-10,1.26728796402913e-10)
(1.9183949705509e-11,-1.87622142768825e-10,1.15665979735382e-10)
(2.77773223447937e-11,-3.33409520163273e-10,1.05459327526094e-10)
(3.3417692332289e-11,-5.75231829657028e-10,8.24971941863207e-11)
(3.6520174247688e-11,-9.93800266502696e-10,5.74479394629055e-11)
(3.7768700988186e-11,-1.94833736926795e-09,2.97281828014796e-11)
(0,0,0)
(0,0,0)
(0,0,0)
(0,0,0)
(0,0,0)
(0,0,0)
(2.87250331084543e-12,-8.64856957312216e-12,2.25454496366859e-10)
(6.37228237276022e-12,-1.73532491947577e-11,2.23400355912439e-10)
(1.04743656111172e-11,-3.02041567607871e-11,2.20221309753849e-10)
(1.38395055300575e-11,-5.12531233981048e-11,2.1570230991021e-10)
(1.66607787277679e-11,-8.9433364310241e-11,2.0909944922965e-10)
(2.05493923099434e-11,-1.65108037193503e-10,1.99599191905643e-10)
(2.82731321262395e-11,-3.16666565954471e-10,1.86377443311548e-10)
(3.33274415091931e-11,-5.56222368954039e-10,1.5534206592103e-10)
(3.61818917470572e-11,-9.69274827967877e-10,1.11257275599244e-10)
(3.76399520015431e-11,-1.91994210473874e-09,5.84355375874718e-11)
(0,0,0)
(0,0,0)
(0,0,0)
(0,0,0)
(0,0,0)
(0,0,0)
(3.32506604651175e-12,-6.14067207914131e-12,3.50745714669424e-10)
(6.8339896995956e-12,-1.29304410118487e-11,3.49243071429506e-10)
(1.04240499537471e-11,-2.27411028410823e-11,3.46606674443882e-10)
(1.40812848961673e-11,-3.95138607922563e-11,3.43235646421938e-10)
(1.82542953529543e-11,-7.15944154253523e-11,3.39122957335443e-10)
(2.41103045300319e-11,-1.39632019158386e-10,3.30929271443468e-10)
(2.68675348444505e-11,-2.88976283131125e-10,3.06129108350272e-10)
(3.09515555771229e-11,-5.17438150263339e-10,2.67584895433526e-10)
(3.3407310547973e-11,-9.19468668299736e-10,1.97029454272516e-10)
(3.43034259873068e-11,-1.8629516711408e-09,1.06105951032596e-10)
(0,0,0)
(0,0,0)
(0,0,0)
(0,0,0)
(0,0,0)
(0,0,0)
(3.37286716432562e-12,-4.50925104299521e-12,5.68025944168624e-10)
(6.61882617746409e-12,-9.30562142824929e-12,5.66093928334956e-10)
(9.90758124978842e-12,-1.65898434474016e-11,5.63284434493288e-10)
(1.36602064886604e-11,-3.09972353362984e-11,5.59862405922433e-10)
(1.71146091393035e-11,-6.05579399273741e-11,5.54976962322371e-10)
(2.08179153807025e-11,-1.2318015449201e-10,5.4410305344606e-10)
(2.34338469457379e-11,-2.49449599538762e-10,5.15511956418898e-10)
(2.71865690878637e-11,-4.48144078942751e-10,4.52495084500856e-10)
(3.00312542904288e-11,-8.297780858795e-10,3.47927517537609e-10)
(3.0980524949768e-11,-1.75759062410945e-09,1.9797409612581e-10)
(0,0,0)
(0,0,0)
(0,0,0)
(0,0,0)
(0,0,0)
(0,0,0)
(2.76745187656276e-12,-2.69280651795224e-12,9.84160848864292e-10)
(5.53675705970827e-12,-6.14519013747821e-12,9.82513872886232e-10)
(8.8264640435629e-12,-1.14591742825752e-11,9.79529343518833e-10)
(1.18887576552835e-11,-2.25276190065474e-11,9.75056333849654e-10)
(1.4906765737111e-11,-4.5965708867318e-11,9.66961231633621e-10)
(1.78186560933561e-11,-9.40739934403457e-11,9.49105326329904e-10)
(2.04816989226906e-11,-1.85320321238674e-10,9.08935709590701e-10)
(2.4118475638887e-11,-3.43618253689253e-10,8.2599596478872e-10)
(2.70635180826879e-11,-6.79804404927661e-10,6.78703825097211e-10)
(2.85002009675127e-11,-1.55943648237194e-09,4.24595727924852e-10)
(0,0,0)
(0,0,0)
(0,0,0)
(0,0,0)
(0,0,0)
(0,0,0)
(2.15347210645965e-12,-1.46819311580861e-12,1.9426611917056e-09)
(4.49471496874725e-12,-3.44996064568176e-12,1.9409571477377e-09)
(7.79659874932576e-12,-6.26443699415538e-12,1.9374118413261e-09)
(9.74549352156259e-12,-1.21842935696067e-11,1.9317568887269e-09)
(1.26610782471711e-11,-2.50231198686583e-11,1.92109786045098e-09)
(1.55769798843904e-11,-5.12316427864778e-11,1.89841648135564e-09)
(1.85903591329605e-11,-1.00604330014977e-10,1.84952166360784e-09)
(2.22854264722189e-11,-1.95260990912803e-10,1.75057444494362e-09)
(2.55717203256323e-11,-4.24477066349754e-10,1.55653954516031e-09)
(2.75277932507482e-11,-1.1340146204007e-09,1.13335870781747e-09)
(0,0,0)
(0,0,0)
(0,0,0)
(0,0,0)
(0,0,0)
(0,0,0)
(0,0,0)
(0,0,0)
(0,0,0)
(0,0,0)
(0,0,0)
(0,0,0)
(0,0,0)
(0,0,0)
(0,0,0)
(0,0,0)
(0,0,0)
(0,0,0)
(0,0,0)
(0,0,0)
(0,0,0)
(0,0,0)
(0,0,0)
(0,0,0)
(0,0,0)
(0,0,0)
(0,0,0)
(0,0,0)
(0,0,0)
(0,0,0)
(0,0,0)
(0,0,0)
(0,0,0)
(0,0,0)
(0,0,0)
(0,0,0)
(0,0,0)
(0,0,0)
(0,0,0)
(0,0,0)
(0,0,0)
(0,0,0)
(0,0,0)
(0,0,0)
(0,0,0)
(0,0,0)
(0,0,0)
(0,0,0)
(0,0,0)
(0,0,0)
(0,0,0)
(0,0,0)
(0,0,0)
(0,0,0)
(0,0,0)
(0,0,0)
(0,0,0)
(0,0,0)
(0,0,0)
(0,0,0)
(0,0,0)
(0,0,0)
(0,0,0)
(0,0,0)
(0,0,0)
(0,0,0)
(0,0,0)
(0,0,0)
(0,0,0)
(0,0,0)
(0,0,0)
(0,0,0)
(0,0,0)
(0,0,0)
(0,0,0)
(0,0,0)
(0,0,0)
(0,0,0)
(0,0,0)
(0,0,0)
(0,0,0)
(0,0,0)
(0,0,0)
(0,0,0)
(0,0,0)
(0,0,0)
(0,0,0)
(0,0,0)
(0,0,0)
(0,0,0)
(0,0,0)
(0,0,0)
(0,0,0)
(0,0,0)
(0,0,0)
(0,0,0)
(0,0,0)
(0,0,0)
(0,0,0)
(0,0,0)
(0,0,0)
(0,0,0)
(1.39527778245779e-12,-2.06563033001184e-11,1.9315598201017e-11)
(2.87722778915182e-12,-4.57150467619912e-11,1.88609837600551e-11)
(4.17381341079819e-12,-7.97960076028471e-11,1.75756316320374e-11)
(5.71228530024651e-12,-1.26921969132843e-10,1.42055158432021e-11)
(6.88206360871467e-12,-1.93224091338865e-10,9.77083695823454e-12)
(8.11579129750971e-12,-2.90232096828462e-10,4.04166792662334e-12)
(9.10190639729524e-12,-4.30542946886841e-10,-1.76617435674557e-12)
(1.02754581346173e-11,-6.32062485150172e-10,-3.75511535826499e-12)
(1.03086341872202e-11,-9.17722312215335e-10,-3.28591145744642e-12)
(1.03918884381677e-11,-1.26469638615328e-09,-1.95255848938704e-12)
(0,0,0)
(0,0,0)
(0,0,0)
(0,0,0)
(0,0,0)
(0,0,0)
(2.40597353038361e-12,-2.01213540157976e-11,4.45161331619995e-11)
(4.61953412752886e-12,-4.45625002707043e-11,4.35881592760003e-11)
(6.59500599006976e-12,-7.6870666622206e-11,4.05026687856203e-11)
(9.09508338049594e-12,-1.22269433918989e-10,3.38797721218037e-11)
(1.18752641952658e-11,-1.87530881179915e-10,2.39062625750079e-11)
(1.40948107211847e-11,-2.85220920525596e-10,1.0611904263955e-11)
(1.56158165608782e-11,-4.29593127368222e-10,-3.15847857120513e-12)
(1.85217316261757e-11,-6.33878367484514e-10,-6.86353456391975e-12)
(1.91529538469685e-11,-9.2033510087859e-10,-4.833292702202e-12)
(1.94478587125507e-11,-1.26753751683582e-09,-2.309438385314e-12)
(0,0,0)
(0,0,0)
(0,0,0)
(0,0,0)
(0,0,0)
(0,0,0)
(3.63071275078447e-12,-1.89653042764208e-11,7.79941387577208e-11)
(6.65007833583963e-12,-4.10447928710727e-11,7.65408577682282e-11)
(8.83319050544786e-12,-7.01176648072514e-11,7.19165528176803e-11)
(1.11204300429652e-11,-1.11764090282523e-10,6.2445127916418e-11)
(1.44981274887006e-11,-1.73900418542722e-10,4.65189177059503e-11)
(1.68211092416718e-11,-2.72304542578083e-10,2.34364711866752e-11)
(1.88469888072062e-11,-4.27401300917443e-10,-3.06415845950399e-12)
(2.60583634085377e-11,-6.38610824771797e-10,-6.22091299301978e-12)
(2.78208755396046e-11,-9.25273329179254e-10,-1.46486680495672e-12)
(2.80716691220586e-11,-1.271626266927e-09,7.24516672837652e-13)
(0,0,0)
(0,0,0)
(0,0,0)
(0,0,0)
(0,0,0)
(0,0,0)
(3.83069706589984e-12,-1.67618800952377e-11,1.2493460263262e-10)
(7.17187877831506e-12,-3.53577406424154e-11,1.23012802294022e-10)
(9.54286372688306e-12,-5.98882479334061e-11,1.17334371616082e-10)
(1.12487142137887e-11,-9.52050151097246e-11,1.0576034557229e-10)
(1.28899467843324e-11,-1.50198125900242e-10,8.64090462779407e-11)
(1.29017865011603e-11,-2.45504942590855e-10,5.64333821390827e-11)
(1.51603509777011e-11,-4.2146390264029e-10,1.51981099642324e-11)
(3.12937782900316e-11,-6.48479055683074e-10,1.42526456065193e-11)
(3.47370007161184e-11,-9.31783233990216e-10,1.59023160202415e-11)
(3.46896366726799e-11,-1.2739257887725e-09,1.04722719220979e-11)
(0,0,0)
(0,0,0)
(0,0,0)
(0,0,0)
(0,0,0)
(0,0,0)
(2.67859869979393e-12,-1.42210760791917e-11,1.90680578162138e-10)
(5.89200351874832e-12,-2.88611558343386e-11,1.881438637801e-10)
(8.56731839866521e-12,-4.72821544690582e-11,1.81931346951482e-10)
(9.71614891018702e-12,-7.39189938217308e-11,1.71561926647456e-10)
(8.68410506162343e-12,-1.16257684060174e-10,1.55796998532182e-10)
(6.87649633851516e-12,-1.94006885625855e-10,1.3711484598727e-10)
(3.39965014748644e-11,-3.74160925366372e-10,1.46546789710421e-10)
(3.94574863527055e-11,-6.58329313384072e-10,9.61243211442536e-11)
(3.97144923759004e-11,-9.33119541440988e-10,6.45594732098373e-11)
(3.91016192599963e-11,-1.26743933287776e-09,3.35269395526512e-11)
(0,0,0)
(0,0,0)
(0,0,0)
(0,0,0)
(0,0,0)
(0,0,0)
(2.41874627186464e-12,-1.11090151727099e-11,2.80349401447658e-10)
(5.12852034813344e-12,-2.15714229262486e-11,2.78067980179255e-10)
(7.53031153484137e-12,-3.43802918413327e-11,2.73609754265643e-10)
(8.70310360601555e-12,-5.27893396450542e-11,2.66625264904274e-10)
(8.32208716586427e-12,-8.39479920513404e-11,2.56455158561263e-10)
(8.29512286904076e-12,-1.55125648443175e-10,2.441526171062e-10)
(3.16182266938218e-11,-3.73500533077539e-10,2.49321652016126e-10)
(3.8628013139604e-11,-6.4551137310681e-10,1.97000558223708e-10)
(3.91974700913762e-11,-9.09493269944665e-10,1.35973745878981e-10)
(3.9085055990156e-11,-1.23674716774065e-09,6.97536819980822e-11)
(0,0,0)
(0,0,0)
(0,0,0)
(0,0,0)
(0,0,0)
(0,0,0)
(3.19628825085041e-12,-8.07643608332781e-12,4.11119099564497e-10)
(5.84556710106595e-12,-1.55266372558239e-11,4.09933968179511e-10)
(7.64381858207883e-12,-2.37463022275835e-11,4.07460928731692e-10)
(9.67734852677117e-12,-3.49863453782533e-11,4.04490456985687e-10)
(1.54115057472029e-11,-5.31316078645476e-11,4.04152544096358e-10)
(3.24586029566391e-11,-9.93214398024625e-11,4.08829188832727e-10)
(2.58850641690052e-11,-3.43772425086137e-10,3.61827400891986e-10)
(3.2212925417017e-11,-6.00911354838624e-10,3.43887275765636e-10)
(3.46402313680822e-11,-8.49516827002666e-10,2.3846169371783e-10)
(3.50483299891045e-11,-1.16877248282084e-09,1.22667255962378e-10)
(0,0,0)
(0,0,0)
(0,0,0)
(0,0,0)
(0,0,0)
(0,0,0)
(3.48843847323931e-12,-6.06565711401403e-12,6.06633781794487e-10)
(6.26788872848351e-12,-1.11880134472858e-11,6.0532893764988e-10)
(8.19894065504047e-12,-1.69111911565154e-11,6.03497916765768e-10)
(1.00760337602005e-11,-2.7471507386455e-11,6.01793237297723e-10)
(1.33962869547686e-11,-5.19361240689029e-11,6.01851321676107e-10)
(2.03028513565193e-11,-1.1893871866071e-10,6.03592998922052e-10)
(2.23214405637115e-11,-3.08118651190316e-10,5.88768011223231e-10)
(2.72283107964626e-11,-4.96479044914857e-10,5.02176391023378e-10)
(3.00109947507323e-11,-7.35076466840696e-10,3.66599695486212e-10)
(3.08004793386952e-11,-1.0465060827224e-09,1.98068823057569e-10)
(0,0,0)
(0,0,0)
(0,0,0)
(0,0,0)
(0,0,0)
(0,0,0)
(3.18981445235751e-12,-4.01446446690086e-12,8.89390170607042e-10)
(5.82605693510927e-12,-7.63472829585699e-12,8.87792543710872e-10)
(8.10473642496358e-12,-1.21107908461128e-11,8.85373995988766e-10)
(9.64053443446291e-12,-2.15883738384339e-11,8.82438643823031e-10)
(1.1820082042553e-11,-4.52058942055928e-11,8.77234894828521e-10)
(1.51459221783838e-11,-1.01430726115223e-10,8.6387778549543e-10)
(1.87054525007691e-11,-2.1684422190568e-10,8.25256252340587e-10)
(2.30533525529443e-11,-3.59263229530308e-10,7.25677461655191e-10)
(2.58442766779465e-11,-5.65509763510723e-10,5.62535218745929e-10)
(2.76740669209473e-11,-8.47653463498776e-10,3.23297922267696e-10)
(0,0,0)
(0,0,0)
(0,0,0)
(0,0,0)
(0,0,0)
(0,0,0)
(2.38932295794082e-12,-2.10693540079812e-12,1.23757384411758e-09)
(4.59006073432696e-12,-4.1040870295846e-12,1.23561185928796e-09)
(7.18711435480706e-12,-6.82428190671994e-12,1.23219710018563e-09)
(8.22022822752348e-12,-1.24391132970844e-11,1.22742710450201e-09)
(1.03193374742504e-11,-2.60318879769066e-11,1.21757310945892e-09)
(1.32401548451621e-11,-5.66709183251067e-11,1.19504346449684e-09)
(1.6933247782606e-11,-1.13185904677565e-10,1.14241760464243e-09)
(2.10593353415291e-11,-1.93686402833753e-10,1.03242216524104e-09)
(2.42754913192431e-11,-3.23925228524206e-10,8.40794910166925e-10)