/*--------------------------------*- C++ -*----------------------------------*\
| =========                 |                                                 |
| \\      /  F ield         | foam-extend: Open Source CFD                    |
|  \\    /   O peration     | Version:     4.0                                |
|   \\  /    A nd           | Web:         http://www.foam-extend.org         |
|    \\/     M anipulation  |                                                 |
\*---------------------------------------------------------------------------*/
FoamFile
{
    version 2.0;
    format ascii;
    class volVectorField;
    location "3717";
    object      H;
}
// * * * * * * * * * * * * * * * * * * * * * * * * * * * * * * * * * * * * * //

dimensions      [0 1 -1 0 0 0 0];

internalField   nonuniform List<vector>
4096
(
(0,0,0)
(0,0,0)
(0,0,0)
(0,0,0)
(0,0,0)
(0,0,0)
(0,0,0)
(0,0,0)
(0,0,0)
(0,0,0)
(0,0,0)
(0,0,0)
(0,0,0)
(0,0,0)
(0,0,0)
(0,0,0)
(0,0,0)
(0,0,0)
(0,0,0)
(0,0,0)
(0,0,0)
(0,0,0)
(0,0,0)
(0,0,0)
(0,0,0)
(0,0,0)
(0,0,0)
(0,0,0)
(0,0,0)
(0,0,0)
(0,0,0)
(0,0,0)
(0,0,0)
(0,0,0)
(0,0,0)
(0,0,0)
(0,0,0)
(0,0,0)
(0,0,0)
(0,0,0)
(0,0,0)
(0,0,0)
(0,0,0)
(0,0,0)
(0,0,0)
(0,0,0)
(0,0,0)
(0,0,0)
(0,0,0)
(0,0,0)
(0,0,0)
(0,0,0)
(0,0,0)
(0,0,0)
(0,0,0)
(0,0,0)
(0,0,0)
(0,0,0)
(0,0,0)
(0,0,0)
(0,0,0)
(0,0,0)
(0,0,0)
(0,0,0)
(0,0,0)
(0,0,0)
(0,0,0)
(0,0,0)
(0,0,0)
(0,0,0)
(0,0,0)
(0,0,0)
(0,0,0)
(0,0,0)
(0,0,0)
(0,0,0)
(0,0,0)
(0,0,0)
(0,0,0)
(0,0,0)
(0,0,0)
(0,0,0)
(0,0,0)
(0,0,0)
(0,0,0)
(0,0,0)
(0,0,0)
(0,0,0)
(0,0,0)
(0,0,0)
(0,0,0)
(0,0,0)
(0,0,0)
(0,0,0)
(0,0,0)
(0,0,0)
(0,0,0)
(0,0,0)
(0,0,0)
(0,0,0)
(0,0,0)
(0,0,0)
(0,0,0)
(0,0,0)
(0,0,0)
(0,0,0)
(0,0,0)
(0,0,0)
(0,0,0)
(0,0,0)
(0,0,0)
(0,0,0)
(0,0,0)
(0,0,0)
(0,0,0)
(0,0,0)
(0,0,0)
(0,0,0)
(0,0,0)
(0,0,0)
(0,0,0)
(0,0,0)
(0,0,0)
(0,0,0)
(0,0,0)
(0,0,0)
(0,0,0)
(0,0,0)
(0,0,0)
(0,0,0)
(0,0,0)
(0,0,0)
(0,0,0)
(0,0,0)
(0,0,0)
(0,0,0)
(0,0,0)
(0,0,0)
(0,0,0)
(0,0,0)
(0,0,0)
(0,0,0)
(0,0,0)
(0,0,0)
(0,0,0)
(0,0,0)
(0,0,0)
(0,0,0)
(0,0,0)
(0,0,0)
(0,0,0)
(0,0,0)
(0,0,0)
(0,0,0)
(0,0,0)
(0,0,0)
(0,0,0)
(0,0,0)
(0,0,0)
(0,0,0)
(0,0,0)
(0,0,0)
(0,0,0)
(0,0,0)
(0,0,0)
(0,0,0)
(0,0,0)
(0,0,0)
(0,0,0)
(0,0,0)
(0,0,0)
(0,0,0)
(0,0,0)
(0,0,0)
(0,0,0)
(0,0,0)
(0,0,0)
(0,0,0)
(0,0,0)
(0,0,0)
(0,0,0)
(0,0,0)
(0,0,0)
(0,0,0)
(0,0,0)
(0,0,0)
(0,0,0)
(0,0,0)
(0,0,0)
(0,0,0)
(0,0,0)
(0,0,0)
(0,0,0)
(0,0,0)
(0,0,0)
(0,0,0)
(0,0,0)
(0,0,0)
(0,0,0)
(0,0,0)
(0,0,0)
(0,0,0)
(0,0,0)
(0,0,0)
(0,0,0)
(0,0,0)
(0,0,0)
(0,0,0)
(0,0,0)
(0,0,0)
(0,0,0)
(0,0,0)
(0,0,0)
(0,0,0)
(0,0,0)
(0,0,0)
(0,0,0)
(0,0,0)
(0,0,0)
(0,0,0)
(0,0,0)
(0,0,0)
(0,0,0)
(0,0,0)
(0,0,0)
(0,0,0)
(0,0,0)
(0,0,0)
(0,0,0)
(0,0,0)
(0,0,0)
(0,0,0)
(0,0,0)
(0,0,0)
(0,0,0)
(0,0,0)
(0,0,0)
(0,0,0)
(0,0,0)
(0,0,0)
(0,0,0)
(0,0,0)
(0,0,0)
(0,0,0)
(0,0,0)
(0,0,0)
(0,0,0)
(0,0,0)
(0,0,0)
(0,0,0)
(0,0,0)
(0,0,0)
(0,0,0)
(0,0,0)
(0,0,0)
(0,0,0)
(0,0,0)
(0,0,0)
(0,0,0)
(0,0,0)
(0,0,0)
(0,0,0)
(0,0,0)
(0,0,0)
(0,0,0)
(0,0,0)
(0,0,0)
(0,0,0)
(0,0,0)
(0,0,0)
(0,0,0)
(0,0,0)
(0,0,0)
(0,0,0)
(0,0,0)
(0,0,0)
(0,0,0)
(0,0,0)
(0,0,0)
(0,0,0)
(0,0,0)
(0,0,0)
(0,0,0)
(0,0,0)
(0,0,0)
(0,0,0)
(0,0,0)
(0,0,0)
(0,0,0)
(0,0,0)
(0,0,0)
(0,0,0)
(0,0,0)
(0,0,0)
(0,0,0)
(0,0,0)
(0,0,0)
(0,0,0)
(0,0,0)
(0,0,0)
(0,0,0)
(0,0,0)
(0,0,0)
(0,0,0)
(0,0,0)
(0,0,0)
(0,0,0)
(0,0,0)
(0,0,0)
(0,0,0)
(0,0,0)
(0,0,0)
(0,0,0)
(0,0,0)
(0,0,0)
(0,0,0)
(0,0,0)
(0,0,0)
(0,0,0)
(0,0,0)
(0,0,0)
(0,0,0)
(0,0,0)
(0,0,0)
(0,0,0)
(0,0,0)
(0,0,0)
(0,0,0)
(0,0,0)
(0,0,0)
(0,0,0)
(0,0,0)
(0,0,0)
(0,0,0)
(0,0,0)
(0,0,0)
(0,0,0)
(0,0,0)
(0,0,0)
(0,0,0)
(0,0,0)
(0,0,0)
(0,0,0)
(0,0,0)
(0,0,0)
(0,0,0)
(0,0,0)
(0,0,0)
(0,0,0)
(0,0,0)
(0,0,0)
(0,0,0)
(0,0,0)
(0,0,0)
(0,0,0)
(0,0,0)
(0,0,0)
(0,0,0)
(0,0,0)
(0,0,0)
(0,0,0)
(0,0,0)
(0,0,0)
(0,0,0)
(0,0,0)
(0,0,0)
(0,0,0)
(0,0,0)
(0,0,0)
(0,0,0)
(0,0,0)
(0,0,0)
(0,0,0)
(0,0,0)
(0,0,0)
(0,0,0)
(0,0,0)
(0,0,0)
(0,0,0)
(0,0,0)
(0,0,0)
(0,0,0)
(0,0,0)
(0,0,0)
(0,0,0)
(0,0,0)
(0,0,0)
(0,0,0)
(0,0,0)
(0,0,0)
(0,0,0)
(0,0,0)
(0,0,0)
(0,0,0)
(0,0,0)
(0,0,0)
(0,0,0)
(0,0,0)
(0,0,0)
(0,0,0)
(0,0,0)
(0,0,0)
(0,0,0)
(0,0,0)
(0,0,0)
(0,0,0)
(0,0,0)
(0,0,0)
(0,0,0)
(0,0,0)
(0,0,0)
(0,0,0)
(0,0,0)
(0,0,0)
(0,0,0)
(0,0,0)
(0,0,0)
(0,0,0)
(0,0,0)
(0,0,0)
(0,0,0)
(0,0,0)
(0,0,0)
(0,0,0)
(0,0,0)
(0,0,0)
(0,0,0)
(0,0,0)
(0,0,0)
(0,0,0)
(0,0,0)
(0,0,0)
(0,0,0)
(0,0,0)
(0,0,0)
(0,0,0)
(0,0,0)
(0,0,0)
(0,0,0)
(0,0,0)
(0,0,0)
(0,0,0)
(0,0,0)
(0,0,0)
(0,0,0)
(0,0,0)
(0,0,0)
(0,0,0)
(0,0,0)
(0,0,0)
(0,0,0)
(0,0,0)
(0,0,0)
(0,0,0)
(0,0,0)
(0,0,0)
(0,0,0)
(0,0,0)
(0,0,0)
(0,0,0)
(0,0,0)
(0,0,0)
(0,0,0)
(0,0,0)
(0,0,0)
(0,0,0)
(0,0,0)
(0,0,0)
(0,0,0)
(0,0,0)
(0,0,0)
(0,0,0)
(0,0,0)
(0,0,0)
(0,0,0)
(0,0,0)
(0,0,0)
(0,0,0)
(0,0,0)
(0,0,0)
(0,0,0)
(0,0,0)
(0,0,0)
(0,0,0)
(0,0,0)
(0,0,0)
(0,0,0)
(0,0,0)
(0,0,0)
(0,0,0)
(0,0,0)
(0,0,0)
(0,0,0)
(0,0,0)
(0,0,0)
(0,0,0)
(0,0,0)
(0,0,0)
(0,0,0)
(0,0,0)
(0,0,0)
(0,0,0)
(0,0,0)
(0,0,0)
(0,0,0)
(0,0,0)
(0,0,0)
(0,0,0)
(0,0,0)
(0,0,0)
(0,0,0)
(0,0,0)
(0,0,0)
(0,0,0)
(0,0,0)
(0,0,0)
(0,0,0)
(0,0,0)
(0,0,0)
(0,0,0)
(0,0,0)
(0,0,0)
(0,0,0)
(0,0,0)
(0,0,0)
(0,0,0)
(0,0,0)
(0,0,0)
(0,0,0)
(0,0,0)
(0,0,0)
(0,0,0)
(0,0,0)
(0,0,0)
(0,0,0)
(0,0,0)
(0,0,0)
(0,0,0)
(0,0,0)
(0,0,0)
(0,0,0)
(0,0,0)
(0,0,0)
(0,0,0)
(0,0,0)
(0,0,0)
(0,0,0)
(0,0,0)
(0,0,0)
(0,0,0)
(0,0,0)
(0,0,0)
(0,0,0)
(0,0,0)
(0,0,0)
(0,0,0)
(0,0,0)
(0,0,0)
(0,0,0)
(0,0,0)
(0,0,0)
(0,0,0)
(0,0,0)
(0,0,0)
(0,0,0)
(0,0,0)
(0,0,0)
(0,0,0)
(0,0,0)
(0,0,0)
(0,0,0)
(0,0,0)
(0,0,0)
(0,0,0)
(0,0,0)
(0,0,0)
(0,0,0)
(0,0,0)
(0,0,0)
(0,0,0)
(0,0,0)
(0,0,0)
(0,0,0)
(0,0,0)
(0,0,0)
(0,0,0)
(0,0,0)
(0,0,0)
(0,0,0)
(0,0,0)
(0,0,0)
(0,0,0)
(0,0,0)
(0,0,0)
(0,0,0)
(0,0,0)
(0,0,0)
(0,0,0)
(0,0,0)
(0,0,0)
(0,0,0)
(0,0,0)
(0,0,0)
(0,0,0)
(0,0,0)
(0,0,0)
(0,0,0)
(0,0,0)
(0,0,0)
(0,0,0)
(0,0,0)
(0,0,0)
(0,0,0)
(0,0,0)
(0,0,0)
(0,0,0)
(0,0,0)
(0,0,0)
(0,0,0)
(0,0,0)
(0,0,0)
(0,0,0)
(0,0,0)
(0,0,0)
(0,0,0)
(0,0,0)
(0,0,0)
(0,0,0)
(0,0,0)
(0,0,0)
(0,0,0)
(0,0,0)
(0,0,0)
(0,0,0)
(0,0,0)
(0,0,0)
(0,0,0)
(0,0,0)
(0,0,0)
(0,0,0)
(0,0,0)
(0,0,0)
(0,0,0)
(0,0,0)
(0,0,0)
(0,0,0)
(0,0,0)
(0,0,0)
(0,0,0)
(0,0,0)
(0,0,0)
(0,0,0)
(0,0,0)
(0,0,0)
(0,0,0)
(0,0,0)
(0,0,0)
(0,0,0)
(0,0,0)
(0,0,0)
(0,0,0)
(0,0,0)
(0,0,0)
(0,0,0)
(0,0,0)
(0,0,0)
(0,0,0)
(0,0,0)
(0,0,0)
(0,0,0)
(0,0,0)
(0,0,0)
(0,0,0)
(0,0,0)
(0,0,0)
(0,0,0)
(0,0,0)
(0,0,0)
(0,0,0)
(0,0,0)
(0,0,0)
(0,0,0)
(0,0,0)
(0,0,0)
(0,0,0)
(0,0,0)
(0,0,0)
(0,0,0)
(0,0,0)
(0,0,0)
(0,0,0)
(0,0,0)
(0,0,0)
(0,0,0)
(0,0,0)
(0,0,0)
(0,0,0)
(0,0,0)
(0,0,0)
(0,0,0)
(0,0,0)
(0,0,0)
(0,0,0)
(0,0,0)
(0,0,0)
(0,0,0)
(0,0,0)
(0,0,0)
(0,0,0)
(0,0,0)
(0,0,0)
(0,0,0)
(0,0,0)
(0,0,0)
(0,0,0)
(0,0,0)
(0,0,0)
(0,0,0)
(0,0,0)
(0,0,0)
(0,0,0)
(0,0,0)
(0,0,0)
(0,0,0)
(0,0,0)
(0,0,0)
(0,0,0)
(0,0,0)
(0,0,0)
(0,0,0)
(0,0,0)
(0,0,0)
(0,0,0)
(0,0,0)
(0,0,0)
(0,0,0)
(0,0,0)
(0,0,0)
(0,0,0)
(0,0,0)
(0,0,0)
(0,0,0)
(0,0,0)
(0,0,0)
(0,0,0)
(0,0,0)
(0,0,0)
(0,0,0)
(0,0,0)
(0,0,0)
(0,0,0)
(0,0,0)
(0,0,0)
(0,0,0)
(0,0,0)
(0,0,0)
(0,0,0)
(0,0,0)
(0,0,0)
(0,0,0)
(0,0,0)
(0,0,0)
(0,0,0)
(0,0,0)
(0,0,0)
(0,0,0)
(0,0,0)
(0,0,0)
(0,0,0)
(0,0,0)
(0,0,0)
(0,0,0)
(0,0,0)
(0,0,0)
(0,0,0)
(0,0,0)
(0,0,0)
(0,0,0)
(0,0,0)
(0,0,0)
(0,0,0)
(0,0,0)
(0,0,0)
(0,0,0)
(0,0,0)
(0,0,0)
(0,0,0)
(0,0,0)
(0,0,0)
(0,0,0)
(0,0,0)
(0,0,0)
(0,0,0)
(0,0,0)
(0,0,0)
(0,0,0)
(0,0,0)
(0,0,0)
(0,0,0)
(0,0,0)
(0,0,0)
(0,0,0)
(0,0,0)
(0,0,0)
(0,0,0)
(0,0,0)
(0,0,0)
(0,0,0)
(0,0,0)
(0,0,0)
(0,0,0)
(0,0,0)
(0,0,0)
(0,0,0)
(0,0,0)
(0,0,0)
(0,0,0)
(0,0,0)
(0,0,0)
(1.49592296464068e-12,-6.88189280977653e-12,7.2267967286152e-12)
(1.79032078441483e-12,-1.38794380783572e-11,7.59012987265964e-12)
(1.59354627891564e-12,-2.27173361452543e-11,7.1828964874268e-12)
(6.4844962341217e-13,-3.59617015213877e-11,6.17290115734169e-12)
(-8.74618370957e-13,-5.68800858194992e-11,5.2420551061096e-12)
(-2.05180787842924e-12,-8.92344169998661e-11,4.05131710773138e-12)
(-3.33058811026311e-12,-1.41590720477522e-10,2.80631770543934e-12)
(-3.99093181212992e-12,-2.29717941178224e-10,1.71851698084862e-12)
(-5.94687373579438e-12,-3.75016814827167e-10,9.08773045721189e-13)
(-7.31429127920913e-12,-5.79017258756942e-10,3.11130596358484e-13)
(0,0,0)
(0,0,0)
(0,0,0)
(0,0,0)
(0,0,0)
(0,0,0)
(2.81069661997143e-12,-7.05237966354051e-12,1.53846413141148e-11)
(2.82534356361651e-12,-1.34716024564764e-11,1.52426227235459e-11)
(1.50010757528531e-12,-2.17120737451181e-11,1.4100290783519e-11)
(-2.40442971039077e-13,-3.49001931487562e-11,1.24753926716471e-11)
(-2.91353710673999e-12,-5.54588333338717e-11,1.08269605601842e-11)
(-5.05530014985407e-12,-8.78129843121251e-11,8.35290272772068e-12)
(-6.71262367286925e-12,-1.40657460952359e-10,5.59986758970006e-12)
(-7.74581052556475e-12,-2.29111796391024e-10,3.52151898016414e-12)
(-1.00075475523002e-11,-3.74883292245322e-10,2.08763971032729e-12)
(-1.19489447630912e-11,-5.79402470164526e-10,1.11533092781988e-12)
(0,0,0)
(0,0,0)
(0,0,0)
(0,0,0)
(0,0,0)
(0,0,0)
(2.31015947994014e-12,-6.40653881116734e-12,2.45864989035225e-11)
(1.68060630352867e-12,-1.20350878422392e-11,2.42118421784827e-11)
(-6.2564923644342e-13,-1.97547907688027e-11,2.29889265818778e-11)
(-1.71997581279366e-12,-3.28532057256759e-11,2.09118148822049e-11)
(-3.79266387191541e-12,-5.28970867834484e-11,1.81787189635823e-11)
(-6.44764801165726e-12,-8.51960253428802e-11,1.42065192661029e-11)
(-8.02861442807472e-12,-1.39084673152605e-10,1.00166570341653e-11)
(-9.03548224686165e-12,-2.28597772049161e-10,7.08438268390607e-12)
(-1.08449174158471e-11,-3.75204697151844e-10,4.66042211574867e-12)
(-1.23642360057509e-11,-5.79958577984153e-10,2.48074396193315e-12)
(0,0,0)
(0,0,0)
(0,0,0)
(0,0,0)
(0,0,0)
(0,0,0)
(2.24695954210568e-13,-5.35269742803397e-12,3.91437895507873e-11)
(-1.03357985051537e-12,-1.03681296477762e-11,3.86570550102086e-11)
(-3.77789836643584e-12,-1.70724289220855e-11,3.73213559638586e-11)
(-5.17049857848099e-12,-2.87641360893187e-11,3.49321467522881e-11)
(-6.21579801242169e-12,-4.79348610442312e-11,3.1578176641679e-11)
(-8.315325388991e-12,-8.06864492842543e-11,2.68383525475367e-11)
(-8.55507054871925e-12,-1.36356877747494e-10,2.1310002968099e-11)
(-8.98587927041036e-12,-2.274118338773e-10,1.61960358442594e-11)
(-9.78289097436666e-12,-3.74766193446354e-10,1.10258801342004e-11)
(-1.09497740553434e-11,-5.79456317324544e-10,5.8275058071376e-12)
(0,0,0)
(0,0,0)
(0,0,0)
(0,0,0)
(0,0,0)
(0,0,0)
(-2.18383556701775e-12,-3.93267624222076e-12,6.13249234672917e-11)
(-4.3999164722435e-12,-7.98838011455517e-12,6.08286599547049e-11)
(-7.80107544282987e-12,-1.3720023163591e-11,5.93308358139155e-11)
(-9.55189265899221e-12,-2.36152619588874e-11,5.64829176082745e-11)
(-1.03791627074904e-11,-4.1595707952863e-11,5.31901942498975e-11)
(-1.08851837419642e-11,-7.42917125819479e-11,4.85697131893108e-11)
(-9.33213071382806e-12,-1.3131395739196e-10,4.26403551677994e-11)
(-9.28284486196362e-12,-2.24250952817461e-10,3.41850933855497e-11)
(-9.79140557852479e-12,-3.72012172506607e-10,2.43248806004351e-11)
(-1.0597090151809e-11,-5.7648074719862e-10,1.29925655423418e-11)
(0,0,0)
(0,0,0)
(0,0,0)
(0,0,0)
(0,0,0)
(0,0,0)
(-3.314464734876e-12,-2.80923374705925e-12,9.34455089814108e-11)
(-6.09988333866247e-12,-5.56637176345935e-12,9.316408696885e-11)
(-9.76023031830658e-12,-9.96236837615245e-12,9.23449792840907e-11)
(-1.24764313338416e-11,-1.8335539090841e-11,8.99280775532118e-11)
(-1.41753981000648e-11,-3.4931452848367e-11,8.70101315977354e-11)
(-1.36894830919576e-11,-6.69246205314504e-11,8.2222249742362e-11)
(-1.1757233199792e-11,-1.2461354447096e-10,7.48323070384149e-11)
(-1.0957988417435e-11,-2.17272843372203e-10,6.24576594806018e-11)
(-1.06664338549241e-11,-3.633382865714e-10,4.51319147049832e-11)
(-1.08061108282259e-11,-5.66288095583079e-10,2.39426424848545e-11)
(0,0,0)
(0,0,0)
(0,0,0)
(0,0,0)
(0,0,0)
(0,0,0)
(-3.67651983154025e-12,-2.23719008907131e-12,1.4612407783053e-10)
(-6.46188174847313e-12,-4.09698005351145e-12,1.45472898801773e-10)
(-9.60962078215746e-12,-7.05242979846646e-12,1.44901046608353e-10)
(-1.3422743306015e-11,-1.41931987372383e-11,1.43424945165899e-10)
(-1.60110607888043e-11,-2.88622438241556e-11,1.41118186475563e-10)
(-1.68758992029327e-11,-5.85432176554023e-11,1.36121995741615e-10)
(-1.56662303960437e-11,-1.13476757754608e-10,1.2556326139747e-10)
(-1.42557984534671e-11,-2.02245378671291e-10,1.07775412008487e-10)
(-1.35981969919431e-11,-3.44336296825484e-10,8.00009421448396e-11)
(-1.31352098201996e-11,-5.44712392139451e-10,4.34074610650457e-11)
(0,0,0)
(0,0,0)
(0,0,0)
(0,0,0)
(0,0,0)
(0,0,0)
(-3.25442269677936e-12,-1.48600911204384e-12,2.33768750612581e-10)
(-6.40311739375674e-12,-2.60657474098347e-12,2.3290197317648e-10)
(-1.00739734079519e-11,-4.65705959635227e-12,2.32403825449008e-10)
(-1.44854202483126e-11,-1.10939638624091e-11,2.31243731009053e-10)
(-1.78407001040117e-11,-2.40094277171629e-11,2.28645150704479e-10)
(-1.95160399918105e-11,-5.01822082077333e-11,2.22355641063529e-10)
(-1.80347493472304e-11,-9.7256667037328e-11,2.08367944076561e-10)
(-1.5901628825896e-11,-1.76192115559203e-10,1.82829951071409e-10)
(-1.51109561565636e-11,-3.09709920443278e-10,1.41364014086778e-10)
(-1.49286027735216e-11,-5.03484866928508e-10,7.98815351572704e-11)
(0,0,0)
(0,0,0)
(0,0,0)
(0,0,0)
(0,0,0)
(0,0,0)
(-3.21921346950113e-12,-7.9076033442039e-13,3.79674681192768e-10)
(-6.7789186144544e-12,-1.44016703251338e-12,3.7902004065137e-10)
(-1.01905647533565e-11,-2.93070730102557e-12,3.78546011346126e-10)
(-1.43648699994114e-11,-8.11739340432428e-12,3.77231008185332e-10)
(-1.92941736877557e-11,-1.80383045784282e-11,3.73832241446947e-10)
(-2.1532288308327e-11,-3.79293747523189e-11,3.65428114968709e-10)
(-2.0618333927508e-11,-7.30978802431711e-11,3.47191273824494e-10)
(-1.78548636611579e-11,-1.35803854888748e-10,3.12895597347223e-10)
(-1.61071556779902e-11,-2.49760334028121e-10,2.53037055317593e-10)
(-1.42345996984965e-11,-4.25021224401065e-10,1.5174700409296e-10)
(0,0,0)
(0,0,0)
(0,0,0)
(0,0,0)
(0,0,0)
(0,0,0)
(-4.51230983853262e-12,-3.42315768602077e-14,5.83507145836005e-10)
(-8.58836542447306e-12,-6.50728859962574e-13,5.83626089377506e-10)
(-1.16237398406806e-11,-1.55929368188686e-12,5.83171381663111e-10)
(-1.53711229813202e-11,-4.49169643103395e-12,5.81493733296189e-10)
(-2.04120614024727e-11,-9.93789178521502e-12,5.77051313268363e-10)
(-2.2628688501406e-11,-2.06772999611091e-11,5.66803462677793e-10)
(-2.29740904851486e-11,-3.98277944807981e-11,5.45483532527726e-10)
(-1.91297151166403e-11,-7.68429051199168e-11,5.04327089604237e-10)
(-1.53072530139329e-11,-1.50067643291127e-10,4.26496264572721e-10)
(-1.2167398259903e-11,-2.74567458348839e-10,2.75331297954119e-10)
(0,0,0)
(0,0,0)
(0,0,0)
(0,0,0)
(0,0,0)
(0,0,0)
(0,0,0)
(0,0,0)
(0,0,0)
(0,0,0)
(0,0,0)
(0,0,0)
(0,0,0)
(0,0,0)
(0,0,0)
(0,0,0)
(0,0,0)
(0,0,0)
(0,0,0)
(0,0,0)
(0,0,0)
(0,0,0)
(0,0,0)
(0,0,0)
(0,0,0)
(0,0,0)
(0,0,0)
(0,0,0)
(0,0,0)
(0,0,0)
(0,0,0)
(0,0,0)
(0,0,0)
(0,0,0)
(0,0,0)
(0,0,0)
(0,0,0)
(0,0,0)
(0,0,0)
(0,0,0)
(0,0,0)
(0,0,0)
(0,0,0)
(0,0,0)
(0,0,0)
(0,0,0)
(0,0,0)
(0,0,0)
(0,0,0)
(0,0,0)
(0,0,0)
(0,0,0)
(0,0,0)
(0,0,0)
(0,0,0)
(0,0,0)
(0,0,0)
(0,0,0)
(0,0,0)
(0,0,0)
(0,0,0)
(0,0,0)
(0,0,0)
(0,0,0)
(0,0,0)
(0,0,0)
(0,0,0)
(0,0,0)
(0,0,0)
(0,0,0)
(0,0,0)
(0,0,0)
(0,0,0)
(0,0,0)
(0,0,0)
(0,0,0)
(0,0,0)
(0,0,0)
(0,0,0)
(0,0,0)
(0,0,0)
(0,0,0)
(0,0,0)
(0,0,0)
(0,0,0)
(0,0,0)
(0,0,0)
(0,0,0)
(0,0,0)
(0,0,0)
(0,0,0)
(0,0,0)
(0,0,0)
(0,0,0)
(0,0,0)
(0,0,0)
(0,0,0)
(0,0,0)
(0,0,0)
(0,0,0)
(0,0,0)
(0,0,0)
(1.30307667435778e-12,-1.24061268986753e-11,1.37889171561614e-11)
(1.789718547765e-12,-2.62603463350265e-11,1.35153319597527e-11)
(1.59827920884944e-12,-4.37846511974129e-11,1.27149761550827e-11)
(5.17787301998705e-13,-6.74065866881002e-11,1.09419317502073e-11)
(-1.10513285826273e-12,-1.03874130251133e-10,8.80901010363024e-12)
(-2.22824116380522e-12,-1.59125971592812e-10,5.91831330075845e-12)
(-3.17604691067917e-12,-2.4771894004312e-10,3.16262534554875e-12)
(-3.78733266438085e-12,-4.00064936429746e-10,1.50535224972175e-12)
(-5.48275386872274e-12,-6.91204747028146e-10,7.89613515277953e-13)
(-6.61794927546291e-12,-1.3609361269944e-09,3.25729770294455e-13)
(0,0,0)
(0,0,0)
(0,0,0)
(0,0,0)
(0,0,0)
(0,0,0)
(2.30687435816627e-12,-1.21521628640541e-11,2.8769618810206e-11)
(2.53116088941815e-12,-2.51512517637771e-11,2.8331141729998e-11)
(1.16772271082719e-12,-4.15338352275694e-11,2.64489929475814e-11)
(-6.3899828263578e-13,-6.45874284483831e-11,2.27252879789521e-11)
(-3.00122582468647e-12,-1.00485608629624e-10,1.81833355164832e-11)
(-4.91922398111109e-12,-1.56142150484397e-10,1.20684614773255e-11)
(-6.20706286323066e-12,-2.46463105022218e-10,5.88274146831862e-12)
(-6.82595559720436e-12,-4.00203770688135e-10,2.65184057097385e-12)
(-8.71383386294449e-12,-6.92408966736898e-10,1.53398284908773e-12)
(-1.02775060157159e-11,-1.36273283796781e-09,9.06924608707895e-13)
(0,0,0)
(0,0,0)
(0,0,0)
(0,0,0)
(0,0,0)
(0,0,0)
(1.6309748218485e-12,-1.09815191610258e-11,4.62093452845613e-11)
(1.23656370567459e-12,-2.22481450288784e-11,4.57735997499287e-11)
(-1.23089938345436e-12,-3.68248162315437e-11,4.34577969140537e-11)
(-3.07594953053816e-12,-5.89834535699465e-11,3.83243410000508e-11)
(-4.78268991371305e-12,-9.3960909895901e-11,3.12493279254475e-11)
(-6.76736183835432e-12,-1.49954410364097e-10,2.16267832916047e-11)
(-7.82413548279409e-12,-2.437688805283e-10,1.20085256443701e-11)
(-7.79745985071848e-12,-4.00916044246249e-10,7.69798407490416e-12)
(-9.10374296760036e-12,-6.94671134600526e-10,5.42698586123158e-12)
(-1.03857527038751e-11,-1.36540351441683e-09,2.91684524321216e-12)
(0,0,0)
(0,0,0)
(0,0,0)
(0,0,0)
(0,0,0)
(0,0,0)
(-7.08590691024135e-13,-9.20875164829395e-12,7.29872625345822e-11)
(-2.07763033738814e-12,-1.84048948558823e-11,7.17905676652314e-11)
(-4.74109491337192e-12,-3.04991906900841e-11,6.87205190252011e-11)
(-6.96540259830401e-12,-5.03210559238369e-11,6.30507816883161e-11)
(-7.81512700965439e-12,-8.31720862898003e-11,5.48214033694677e-11)
(-9.18171251185574e-12,-1.39398071091953e-10,4.35134869337856e-11)
(-8.4840237804656e-12,-2.38332800466006e-10,3.13148347768577e-11)
(-6.97660462011882e-12,-4.00767600198881e-10,2.34896863967122e-11)
(-7.33853758636932e-12,-6.95860909890845e-10,1.6654965820088e-11)
(-8.09783837274414e-12,-1.36665391692732e-09,8.86883804797415e-12)
(0,0,0)
(0,0,0)
(0,0,0)
(0,0,0)
(0,0,0)
(0,0,0)
(-2.81101454959358e-12,-6.788181953204e-12,1.11807575886305e-10)
(-5.32410068255209e-12,-1.37602171873084e-11,1.10140873412449e-10)
(-8.71081202463122e-12,-2.35549122606779e-11,1.07021071476841e-10)
(-1.15388921686614e-11,-4.0028281357602e-11,1.01764715908799e-10)
(-1.24229367513843e-11,-6.91749440806598e-11,9.44863265307046e-11)
(-1.23229177710134e-11,-1.23660358930157e-10,8.53127105654099e-11)
(-7.57728185248043e-12,-2.26292476811414e-10,7.68494197779237e-11)
(-6.40074152194954e-12,-3.97155379388119e-10,5.96168251968309e-11)
(-7.13297645598511e-12,-6.92918356578147e-10,4.16811324555732e-11)
(-7.79717622532875e-12,-1.36288600718811e-09,2.19134180859157e-11)
(0,0,0)
(0,0,0)
(0,0,0)
(0,0,0)
(0,0,0)
(0,0,0)
(-3.60508638030167e-12,-4.58839008499457e-12,1.6786063208586e-10)
(-6.75016736385646e-12,-9.50202495519637e-12,1.66585967346636e-10)
(-1.02532671651233e-11,-1.68678334491937e-11,1.64609188692512e-10)
(-1.37008257319652e-11,-2.99427034263619e-11,1.60783463126304e-10)
(-1.54567252688898e-11,-5.52407152428152e-11,1.55381291410143e-10)
(-1.4680943264092e-11,-1.08302407186303e-10,1.47414703665536e-10)
(-1.0519372358368e-11,-2.16328157579094e-10,1.36239461403271e-10)
(-8.65970834281475e-12,-3.86701667338266e-10,1.12689990302539e-10)
(-8.47915138082538e-12,-6.79041888628222e-10,8.02869840029977e-11)
(-8.43917178654715e-12,-1.34610199858695e-09,4.19720614099784e-11)
(0,0,0)
(0,0,0)
(0,0,0)
(0,0,0)
(0,0,0)
(0,0,0)
(-3.77652177981231e-12,-3.24435865287846e-12,2.56409597217913e-10)
(-7.38043486757747e-12,-6.6850176019023e-12,2.55342706436405e-10)
(-1.05288895418104e-11,-1.1657790661176e-11,2.54400342022612e-10)
(-1.42152194905187e-11,-2.19613052154843e-11,2.5257427333955e-10)
(-1.58676861618118e-11,-4.29374784020855e-11,2.49363563653571e-10)
(-1.46781743064554e-11,-9.07352131082427e-11,2.42530397473856e-10)
(-1.40984717243006e-11,-1.97042663655036e-10,2.23134225725712e-10)
(-1.25345917020748e-11,-3.6082083516295e-10,1.94343464190897e-10)
(-1.16310922941048e-11,-6.46091886972029e-10,1.42541996913656e-10)
(-1.09552739651013e-11,-1.3086559630943e-09,7.6444253984776e-11)
(0,0,0)
(0,0,0)
(0,0,0)
(0,0,0)
(0,0,0)
(0,0,0)
(-3.08289403830088e-12,-1.81840181034107e-12,4.07242299209466e-10)
(-7.07137737475231e-12,-4.1822875912112e-12,4.06654015860744e-10)
(-1.0640231263321e-11,-7.97951586599633e-12,4.06548657223224e-10)
(-1.48634104018261e-11,-1.71104294690143e-11,4.05687487201785e-10)
(-1.75223136018205e-11,-3.67229178642995e-11,4.0234757479385e-10)
(-1.77811764601929e-11,-8.1487443517048e-11,3.9381173247875e-10)
(-1.66555431361672e-11,-1.71055629888048e-10,3.72111472506972e-10)
(-1.48239525119672e-11,-3.13427218164118e-10,3.26296178733646e-10)
(-1.35780636420711e-11,-5.84283494121999e-10,2.50695495724076e-10)
(-1.35107101445914e-11,-1.2358817039039e-09,1.42069082952494e-10)
(0,0,0)
(0,0,0)
(0,0,0)
(0,0,0)
(0,0,0)
(0,0,0)
(-3.32110168566384e-12,-7.75905591428273e-13,6.98631175436822e-10)
(-7.09432748176013e-12,-2.48375222887504e-12,6.98486668434658e-10)
(-1.02469752116952e-11,-5.51785605108621e-12,6.98459597911821e-10)
(-1.45918002343086e-11,-1.25342280745164e-11,6.97084683035677e-10)
(-1.89904600027201e-11,-2.82150365959795e-11,6.92316971530892e-10)
(-2.05475219553552e-11,-6.28612446140728e-11,6.79539006354849e-10)
(-1.95927432125793e-11,-1.27366543597642e-10,6.49965482723196e-10)
(-1.69572714003499e-11,-2.40563941278026e-10,5.8967336122964e-10)
(-1.45097951903935e-11,-4.78536469699965e-10,4.83456472615806e-10)
(-1.29413616578544e-11,-1.09628078419779e-09,3.01360908130129e-10)
(0,0,0)
(0,0,0)
(0,0,0)
(0,0,0)
(0,0,0)
(0,0,0)
(-4.66548495689298e-12,6.26454940436596e-15,1.36837082709709e-09)
(-8.7843865700415e-12,-1.19775564233058e-12,1.36911868789304e-09)
(-1.15053851556494e-11,-2.98582923215866e-12,1.3690358750542e-09)
(-1.54203993845279e-11,-6.77795364694241e-12,1.36667070408625e-09)
(-2.01021025971277e-11,-1.5541199602801e-11,1.36027428271659e-09)
(-2.19860583124601e-11,-3.44146279180783e-11,1.34423806306982e-09)
(-2.16454420424899e-11,-6.89351743671035e-11,1.30858668512535e-09)
(-1.81417952050031e-11,-1.36595638858695e-10,1.23679577980273e-09)
(-1.42099296864606e-11,-2.98842281100496e-10,1.09771604431395e-09)
(-1.14035586544976e-11,-7.96802227798262e-10,7.9730036883245e-10)
(0,0,0)
(0,0,0)
(0,0,0)
(0,0,0)
(0,0,0)
(0,0,0)
(0,0,0)
(0,0,0)
(0,0,0)
(0,0,0)
(0,0,0)
(0,0,0)
(0,0,0)
(0,0,0)
(0,0,0)
(0,0,0)
(0,0,0)
(0,0,0)
(0,0,0)
(0,0,0)
(0,0,0)
(0,0,0)
(0,0,0)
(0,0,0)
(0,0,0)
(0,0,0)
(0,0,0)
(0,0,0)
(0,0,0)
(0,0,0)
(0,0,0)
(0,0,0)
(0,0,0)
(0,0,0)
(0,0,0)
(0,0,0)
(0,0,0)
(0,0,0)
(0,0,0)
(0,0,0)
(0,0,0)
(0,0,0)
(0,0,0)
(0,0,0)
(0,0,0)
(0,0,0)
(0,0,0)
(0,0,0)
(0,0,0)
(0,0,0)
(0,0,0)
(0,0,0)
(0,0,0)
(0,0,0)
(0,0,0)
(0,0,0)
(0,0,0)
(0,0,0)
(0,0,0)
(0,0,0)
(0,0,0)
(0,0,0)
(0,0,0)
(0,0,0)
(0,0,0)
(0,0,0)
(0,0,0)
(0,0,0)
(0,0,0)
(0,0,0)
(0,0,0)
(0,0,0)
(0,0,0)
(0,0,0)
(0,0,0)
(0,0,0)
(0,0,0)
(0,0,0)
(0,0,0)
(0,0,0)
(0,0,0)
(0,0,0)
(0,0,0)
(0,0,0)
(0,0,0)
(0,0,0)
(0,0,0)
(0,0,0)
(0,0,0)
(0,0,0)
(0,0,0)
(0,0,0)
(0,0,0)
(0,0,0)
(0,0,0)
(0,0,0)
(0,0,0)
(0,0,0)
(0,0,0)
(0,0,0)
(0,0,0)
(0,0,0)
(1.32269783589642e-12,-1.68402509935959e-11,1.98712678407767e-11)
(1.48097978149816e-12,-3.6590284625974e-11,1.91665162826875e-11)
(1.12050764446492e-12,-5.96322022110948e-11,1.7683642105429e-11)
(-1.68449291257477e-13,-8.88535709500235e-11,1.46964634411641e-11)
(-1.60295767738712e-12,-1.32630442487074e-10,1.04378163501406e-11)
(-2.45637431647291e-12,-1.97395092644594e-10,5.14292582767747e-12)
(-2.77460883632831e-12,-2.92809357005703e-10,4.24646278819342e-13)
(-2.93275967187977e-12,-4.32023824275464e-10,-1.5790766736677e-12)
(-3.81465041435263e-12,-6.30850738326991e-10,-1.31558721110066e-12)
(-4.4955085330997e-12,-8.74300756228394e-10,-3.62378024982642e-13)
(0,0,0)
(0,0,0)
(0,0,0)
(0,0,0)
(0,0,0)
(0,0,0)
(1.57470773527323e-12,-1.56743541412216e-11,4.00923648911383e-11)
(1.51020293636066e-12,-3.41447108398886e-11,3.91179508193929e-11)
(1.82408682462303e-13,-5.56632225235136e-11,3.59763236210298e-11)
(-1.70102069827022e-12,-8.39288517900124e-11,2.98289221778705e-11)
(-3.41105051880086e-12,-1.2722667338718e-10,2.1046306239671e-11)
(-4.9212440929529e-12,-1.92924951895297e-10,9.57417217696052e-12)
(-5.67038646042807e-12,-2.91872598250091e-10,-1.72929484118125e-12)
(-4.99582431650898e-12,-4.33735204899358e-10,-5.23261165432814e-12)
(-5.82460775845633e-12,-6.33571834711473e-10,-3.76804843734783e-12)
(-6.69990495748467e-12,-8.77110935012167e-10,-1.49571343913913e-12)
(0,0,0)
(0,0,0)
(0,0,0)
(0,0,0)
(0,0,0)
(0,0,0)
(2.93952841785831e-13,-1.36215027939884e-11,6.35089279576685e-11)
(-2.90883630352135e-13,-2.92767237064998e-11,6.22965639562898e-11)
(-2.42306901049322e-12,-4.78619641971112e-11,5.79537523586718e-11)
(-4.66333410227482e-12,-7.41179720600363e-11,4.94967672972688e-11)
(-5.94896888624423e-12,-1.15811857194203e-10,3.65306843118426e-11)
(-7.70544346325019e-12,-1.82406753972385e-10,1.7774458007495e-11)
(-8.94967397548419e-12,-2.89934493933701e-10,-2.63094324757982e-12)
(-5.67490568457774e-12,-4.38359252451054e-10,-5.33537015809343e-12)
(-5.40382705857604e-12,-6.39310665354953e-10,-2.24125695198262e-12)
(-6.21850495023939e-12,-8.82392873523636e-10,-5.07322704299198e-13)
(0,0,0)
(0,0,0)
(0,0,0)
(0,0,0)
(0,0,0)
(0,0,0)
(-1.93246551790998e-12,-1.12298508370311e-11,9.766563335168e-11)
(-3.65225936462391e-12,-2.32445362379458e-11,9.52708803409634e-11)
(-6.01563600620425e-12,-3.78255185298781e-11,8.96586555810879e-11)
(-9.02879884727076e-12,-5.99162363682809e-11,8.03215256538416e-11)
(-1.05043527833578e-11,-9.66666488520201e-11,6.54293277761168e-11)
(-1.27207725154495e-11,-1.61805901591518e-10,4.20631011867507e-11)
(-1.26991990542967e-11,-2.84714824093618e-10,1.11715544315212e-11)
(-3.7541048547918e-12,-4.46006590718299e-10,9.26779198462167e-12)
(-2.49496312597796e-12,-6.4649057659348e-10,1.02891581293201e-11)
(-2.99691006562872e-12,-8.87910470162922e-10,6.65615419471349e-12)
(0,0,0)
(0,0,0)
(0,0,0)
(0,0,0)
(0,0,0)
(0,0,0)
(-3.34410394407284e-12,-8.2736018310908e-12,1.45091637701187e-10)
(-6.46249097872729e-12,-1.66915496967013e-11,1.42513220627745e-10)
(-1.01415352695382e-11,-2.71127129470022e-11,1.37213620282639e-10)
(-1.43460807214797e-11,-4.33401899818845e-11,1.2887658443887e-10)
(-1.71835496223318e-11,-7.08661844553678e-11,1.16308054730239e-10)
(-1.92175787277663e-11,-1.24565423654747e-10,1.01039334183501e-10)
(-3.09006505452893e-13,-2.52262899002805e-10,1.0593696548797e-10)
(1.08123916881088e-12,-4.54090013329055e-10,6.86795808878686e-11)
(-1.24173003443929e-12,-6.50937504879569e-10,4.65387214492132e-11)
(-2.66776674087069e-12,-8.87767810484249e-10,2.45777938096495e-11)
(0,0,0)
(0,0,0)
(0,0,0)
(0,0,0)
(0,0,0)
(0,0,0)
(-3.67445307339062e-12,-5.29802980844564e-12,2.1052570675774e-10)
(-7.59039606317346e-12,-1.05471030005515e-11,2.08698631492471e-10)
(-1.16375843872134e-11,-1.71519936317546e-11,2.05344007380602e-10)
(-1.62800522263123e-11,-2.77986466426412e-11,2.00051447769427e-10)
(-1.9793374364942e-11,-4.69436333896137e-11,1.92066800735347e-10)
(-2.10728950802709e-11,-9.64599226838689e-11,1.81280375535524e-10)
(-6.25539518063278e-12,-2.56062789535463e-10,1.80013155585657e-10)
(-2.13753421978023e-12,-4.50605842117035e-10,1.42187551546786e-10)
(-3.11423044257209e-12,-6.39141287263089e-10,9.8948732646511e-11)
(-3.91314586999815e-12,-8.70284768090568e-10,5.0975493910661e-11)
(0,0,0)
(0,0,0)
(0,0,0)
(0,0,0)
(0,0,0)
(0,0,0)
(-4.1355878394108e-12,-2.95653058957835e-12,3.04741688310845e-10)
(-8.94080046657409e-12,-5.78911258053225e-12,3.0337007272561e-10)
(-1.23810956534837e-11,-9.28696718975071e-12,3.01815151128599e-10)
(-1.58553855513611e-11,-1.53883728108315e-11,3.00847366859084e-10)
(-1.52490805191924e-11,-2.47322984283609e-11,3.00916736858196e-10)
(-4.5297721491864e-12,-5.49796364095216e-11,3.03622621205046e-10)
(-1.12947439573758e-11,-2.33004359168002e-10,2.64167021936981e-10)
(-8.12674142418816e-12,-4.21531362246135e-10,2.51928669590023e-10)
(-7.34174221444165e-12,-5.99498452030001e-10,1.74749297440974e-10)
(-7.28527917117109e-12,-8.25068484264742e-10,8.97977175204398e-11)
(0,0,0)
(0,0,0)
(0,0,0)
(0,0,0)
(0,0,0)
(0,0,0)
(-3.53710690723618e-12,-9.34764975889919e-13,4.41409128228648e-10)
(-8.66455409974779e-12,-2.54310042901975e-12,4.411011621505e-10)
(-1.22407210570041e-11,-5.41217955502782e-12,4.41073275124555e-10)
(-1.60996993882084e-11,-1.18248618858078e-11,4.41908678841468e-10)
(-1.74943525550325e-11,-2.68534368812264e-11,4.42719172260143e-10)
(-1.47071153912529e-11,-7.46046631889134e-11,4.4373022316663e-10)
(-1.45293356536839e-11,-2.13489288445081e-10,4.31466502088609e-10)
(-1.20865463890041e-11,-3.49903469713875e-10,3.67072164259913e-10)
(-1.06986752932171e-11,-5.19578719243103e-10,2.67311106982321e-10)
(-1.10425468969736e-11,-7.39421986941374e-10,1.44046240292771e-10)
(0,0,0)
(0,0,0)
(0,0,0)
(0,0,0)
(0,0,0)
(0,0,0)
(-3.95876482497671e-12,1.11267899312698e-13,6.38463473322383e-10)
(-8.35325354652624e-12,-9.58053034136467e-13,6.39004759298872e-10)
(-1.14040871531461e-11,-4.0353661859212e-12,6.39632856505334e-10)
(-1.55803631577269e-11,-1.02502010553834e-11,6.39609888349478e-10)
(-1.88863318190528e-11,-2.56639735671103e-11,6.36884976781852e-10)
(-1.94206150198766e-11,-6.62749661441714e-11,6.27375845114587e-10)
(-1.77319909486121e-11,-1.50377059013086e-10,5.98621881868894e-10)
(-1.47086852083525e-11,-2.53506459423426e-10,5.24795524374947e-10)
(-1.2108419302599e-11,-3.99498975264097e-10,4.05405300129044e-10)
(-1.10590099275204e-11,-5.98691413508322e-10,2.32743998270972e-10)
(0,0,0)
(0,0,0)
(0,0,0)
(0,0,0)
(0,0,0)
(0,0,0)
(-5.40708120466792e-12,2.24364673444589e-13,8.80822293148419e-10)
(-9.89932937380221e-12,-3.99079644763572e-13,8.8165345325064e-10)
(-1.2126043419569e-11,-2.41749179947587e-12,8.82252245065615e-10)
(-1.58019316623491e-11,-6.24056505450624e-12,8.80896696462973e-10)
(-1.96070825522734e-11,-1.55493471510834e-11,8.75121153295353e-10)