/*--------------------------------*- C++ -*----------------------------------*\
| =========                 |                                                 |
| \\      /  F ield         | foam-extend: Open Source CFD                    |
|  \\    /   O peration     | Version:     4.0                                |
|   \\  /    A nd           | Web:         http://www.foam-extend.org         |
|    \\/     M anipulation  |                                                 |
\*---------------------------------------------------------------------------*/
FoamFile
{
    version 2.0;
    format ascii;
    class volVectorField;
    location "2926";
    object      E;
}
// * * * * * * * * * * * * * * * * * * * * * * * * * * * * * * * * * * * * * //

dimensions      [0 1 -1 0 0 0 0];

internalField   nonuniform List<vector>
4096
(
(0,0,0)
(0,0,0)
(0,0,0)
(0,0,0)
(0,0,0)
(0,0,0)
(0,0,0)
(0,0,0)
(0,0,0)
(0,0,0)
(0,0,0)
(0,0,0)
(0,0,0)
(0,0,0)
(0,0,0)
(0,0,0)
(0,0,0)
(0,0,0)
(0,0,0)
(0,0,0)
(0,0,0)
(0,0,0)
(0,0,0)
(0,0,0)
(0,0,0)
(0,0,0)
(0,0,0)
(0,0,0)
(0,0,0)
(0,0,0)
(0,0,0)
(0,0,0)
(0,0,0)
(0,0,0)
(0,0,0)
(0,0,0)
(0,0,0)
(0,0,0)
(0,0,0)
(0,0,0)
(0,0,0)
(0,0,0)
(0,0,0)
(0,0,0)
(0,0,0)
(0,0,0)
(0,0,0)
(0,0,0)
(0,0,0)
(0,0,0)
(0,0,0)
(0,0,0)
(0,0,0)
(0,0,0)
(0,0,0)
(0,0,0)
(0,0,0)
(0,0,0)
(0,0,0)
(0,0,0)
(0,0,0)
(0,0,0)
(0,0,0)
(0,0,0)
(0,0,0)
(0,0,0)
(0,0,0)
(0,0,0)
(0,0,0)
(0,0,0)
(0,0,0)
(0,0,0)
(0,0,0)
(0,0,0)
(0,0,0)
(0,0,0)
(0,0,0)
(0,0,0)
(0,0,0)
(0,0,0)
(0,0,0)
(0,0,0)
(0,0,0)
(0,0,0)
(0,0,0)
(0,0,0)
(0,0,0)
(0,0,0)
(0,0,0)
(0,0,0)
(0,0,0)
(0,0,0)
(0,0,0)
(0,0,0)
(0,0,0)
(0,0,0)
(0,0,0)
(0,0,0)
(0,0,0)
(0,0,0)
(0,0,0)
(0,0,0)
(0,0,0)
(0,0,0)
(0,0,0)
(0,0,0)
(0,0,0)
(0,0,0)
(0,0,0)
(0,0,0)
(0,0,0)
(0,0,0)
(0,0,0)
(0,0,0)
(0,0,0)
(0,0,0)
(0,0,0)
(0,0,0)
(0,0,0)
(0,0,0)
(0,0,0)
(0,0,0)
(0,0,0)
(0,0,0)
(0,0,0)
(0,0,0)
(0,0,0)
(0,0,0)
(0,0,0)
(0,0,0)
(0,0,0)
(0,0,0)
(0,0,0)
(0,0,0)
(0,0,0)
(0,0,0)
(0,0,0)
(0,0,0)
(0,0,0)
(0,0,0)
(0,0,0)
(0,0,0)
(0,0,0)
(0,0,0)
(0,0,0)
(0,0,0)
(0,0,0)
(0,0,0)
(0,0,0)
(0,0,0)
(0,0,0)
(0,0,0)
(0,0,0)
(0,0,0)
(0,0,0)
(0,0,0)
(0,0,0)
(0,0,0)
(0,0,0)
(0,0,0)
(0,0,0)
(0,0,0)
(0,0,0)
(0,0,0)
(0,0,0)
(0,0,0)
(0,0,0)
(0,0,0)
(0,0,0)
(0,0,0)
(0,0,0)
(0,0,0)
(0,0,0)
(0,0,0)
(0,0,0)
(0,0,0)
(0,0,0)
(0,0,0)
(0,0,0)
(0,0,0)
(0,0,0)
(0,0,0)
(0,0,0)
(0,0,0)
(0,0,0)
(0,0,0)
(0,0,0)
(0,0,0)
(0,0,0)
(0,0,0)
(0,0,0)
(0,0,0)
(0,0,0)
(0,0,0)
(0,0,0)
(0,0,0)
(0,0,0)
(0,0,0)
(0,0,0)
(0,0,0)
(0,0,0)
(0,0,0)
(0,0,0)
(0,0,0)
(0,0,0)
(0,0,0)
(0,0,0)
(0,0,0)
(0,0,0)
(0,0,0)
(0,0,0)
(0,0,0)
(0,0,0)
(0,0,0)
(0,0,0)
(0,0,0)
(0,0,0)
(0,0,0)
(0,0,0)
(0,0,0)
(0,0,0)
(0,0,0)
(0,0,0)
(0,0,0)
(0,0,0)
(0,0,0)
(0,0,0)
(0,0,0)
(0,0,0)
(0,0,0)
(0,0,0)
(0,0,0)
(0,0,0)
(0,0,0)
(0,0,0)
(0,0,0)
(0,0,0)
(0,0,0)
(0,0,0)
(0,0,0)
(0,0,0)
(0,0,0)
(0,0,0)
(0,0,0)
(0,0,0)
(0,0,0)
(0,0,0)
(0,0,0)
(0,0,0)
(0,0,0)
(0,0,0)
(0,0,0)
(0,0,0)
(0,0,0)
(0,0,0)
(0,0,0)
(0,0,0)
(0,0,0)
(0,0,0)
(0,0,0)
(0,0,0)
(0,0,0)
(0,0,0)
(0,0,0)
(0,0,0)
(0,0,0)
(0,0,0)
(0,0,0)
(0,0,0)
(0,0,0)
(0,0,0)
(0,0,0)
(0,0,0)
(0,0,0)
(0,0,0)
(0,0,0)
(0,0,0)
(0,0,0)
(0,0,0)
(0,0,0)
(0,0,0)
(0,0,0)
(0,0,0)
(0,0,0)
(0,0,0)
(0,0,0)
(0,0,0)
(0,0,0)
(0,0,0)
(0,0,0)
(0,0,0)
(0,0,0)
(0,0,0)
(0,0,0)
(0,0,0)
(0,0,0)
(0,0,0)
(0,0,0)
(0,0,0)
(0,0,0)
(0,0,0)
(0,0,0)
(0,0,0)
(0,0,0)
(0,0,0)
(0,0,0)
(0,0,0)
(0,0,0)
(0,0,0)
(0,0,0)
(0,0,0)
(0,0,0)
(0,0,0)
(0,0,0)
(0,0,0)
(0,0,0)
(0,0,0)
(0,0,0)
(0,0,0)
(0,0,0)
(0,0,0)
(0,0,0)
(0,0,0)
(0,0,0)
(0,0,0)
(0,0,0)
(0,0,0)
(0,0,0)
(0,0,0)
(0,0,0)
(0,0,0)
(0,0,0)
(0,0,0)
(0,0,0)
(0,0,0)
(0,0,0)
(0,0,0)
(0,0,0)
(0,0,0)
(0,0,0)
(0,0,0)
(0,0,0)
(0,0,0)
(0,0,0)
(0,0,0)
(0,0,0)
(0,0,0)
(0,0,0)
(0,0,0)
(0,0,0)
(0,0,0)
(0,0,0)
(0,0,0)
(0,0,0)
(0,0,0)
(0,0,0)
(0,0,0)
(0,0,0)
(0,0,0)
(0,0,0)
(0,0,0)
(0,0,0)
(0,0,0)
(0,0,0)
(0,0,0)
(0,0,0)
(0,0,0)
(0,0,0)
(0,0,0)
(0,0,0)
(0,0,0)
(0,0,0)
(0,0,0)
(0,0,0)
(0,0,0)
(0,0,0)
(0,0,0)
(0,0,0)
(0,0,0)
(0,0,0)
(0,0,0)
(0,0,0)
(0,0,0)
(0,0,0)
(0,0,0)
(0,0,0)
(0,0,0)
(0,0,0)
(0,0,0)
(0,0,0)
(0,0,0)
(0,0,0)
(0,0,0)
(0,0,0)
(0,0,0)
(0,0,0)
(0,0,0)
(0,0,0)
(0,0,0)
(0,0,0)
(0,0,0)
(0,0,0)
(0,0,0)
(0,0,0)
(0,0,0)
(0,0,0)
(0,0,0)
(0,0,0)
(0,0,0)
(0,0,0)
(0,0,0)
(0,0,0)
(0,0,0)
(0,0,0)
(0,0,0)
(0,0,0)
(0,0,0)
(0,0,0)
(0,0,0)
(0,0,0)
(0,0,0)
(0,0,0)
(0,0,0)
(0,0,0)
(0,0,0)
(0,0,0)
(0,0,0)
(0,0,0)
(0,0,0)
(0,0,0)
(0,0,0)
(0,0,0)
(0,0,0)
(0,0,0)
(0,0,0)
(0,0,0)
(0,0,0)
(0,0,0)
(0,0,0)
(0,0,0)
(0,0,0)
(0,0,0)
(0,0,0)
(0,0,0)
(0,0,0)
(0,0,0)
(0,0,0)
(0,0,0)
(0,0,0)
(0,0,0)
(0,0,0)
(0,0,0)
(0,0,0)
(0,0,0)
(0,0,0)
(0,0,0)
(0,0,0)
(0,0,0)
(0,0,0)
(0,0,0)
(0,0,0)
(0,0,0)
(0,0,0)
(0,0,0)
(0,0,0)
(0,0,0)
(0,0,0)
(0,0,0)
(0,0,0)
(0,0,0)
(0,0,0)
(0,0,0)
(0,0,0)
(0,0,0)
(0,0,0)
(0,0,0)
(0,0,0)
(0,0,0)
(0,0,0)
(0,0,0)
(0,0,0)
(0,0,0)
(0,0,0)
(0,0,0)
(0,0,0)
(0,0,0)
(0,0,0)
(0,0,0)
(0,0,0)
(0,0,0)
(0,0,0)
(0,0,0)
(0,0,0)
(0,0,0)
(0,0,0)
(0,0,0)
(0,0,0)
(0,0,0)
(0,0,0)
(0,0,0)
(0,0,0)
(0,0,0)
(0,0,0)
(0,0,0)
(0,0,0)
(0,0,0)
(0,0,0)
(0,0,0)
(0,0,0)
(0,0,0)
(0,0,0)
(0,0,0)
(0,0,0)
(0,0,0)
(0,0,0)
(0,0,0)
(0,0,0)
(0,0,0)
(0,0,0)
(0,0,0)
(0,0,0)
(0,0,0)
(0,0,0)
(0,0,0)
(0,0,0)
(0,0,0)
(0,0,0)
(0,0,0)
(0,0,0)
(0,0,0)
(0,0,0)
(0,0,0)
(0,0,0)
(0,0,0)
(0,0,0)
(0,0,0)
(0,0,0)
(0,0,0)
(0,0,0)
(0,0,0)
(0,0,0)
(0,0,0)
(0,0,0)
(0,0,0)
(0,0,0)
(0,0,0)
(0,0,0)
(0,0,0)
(0,0,0)
(0,0,0)
(0,0,0)
(0,0,0)
(0,0,0)
(0,0,0)
(0,0,0)
(0,0,0)
(0,0,0)
(0,0,0)
(0,0,0)
(0,0,0)
(0,0,0)
(0,0,0)
(0,0,0)
(0,0,0)
(0,0,0)
(0,0,0)
(0,0,0)
(0,0,0)
(0,0,0)
(0,0,0)
(0,0,0)
(0,0,0)
(0,0,0)
(0,0,0)
(0,0,0)
(0,0,0)
(0,0,0)
(0,0,0)
(0,0,0)
(0,0,0)
(0,0,0)
(0,0,0)
(0,0,0)
(0,0,0)
(0,0,0)
(0,0,0)
(0,0,0)
(0,0,0)
(0,0,0)
(0,0,0)
(0,0,0)
(0,0,0)
(0,0,0)
(0,0,0)
(0,0,0)
(0,0,0)
(0,0,0)
(0,0,0)
(0,0,0)
(0,0,0)
(0,0,0)
(0,0,0)
(0,0,0)
(0,0,0)
(0,0,0)
(0,0,0)
(0,0,0)
(0,0,0)
(0,0,0)
(0,0,0)
(0,0,0)
(0,0,0)
(0,0,0)
(0,0,0)
(0,0,0)
(0,0,0)
(0,0,0)
(0,0,0)
(0,0,0)
(0,0,0)
(0,0,0)
(0,0,0)
(0,0,0)
(0,0,0)
(0,0,0)
(0,0,0)
(0,0,0)
(0,0,0)
(0,0,0)
(0,0,0)
(0,0,0)
(0,0,0)
(0,0,0)
(0,0,0)
(0,0,0)
(0,0,0)
(0,0,0)
(0,0,0)
(0,0,0)
(0,0,0)
(0,0,0)
(0,0,0)
(0,0,0)
(0,0,0)
(0,0,0)
(0,0,0)
(0,0,0)
(0,0,0)
(0,0,0)
(0,0,0)
(0,0,0)
(0,0,0)
(0,0,0)
(0,0,0)
(0,0,0)
(0,0,0)
(0,0,0)
(0,0,0)
(0,0,0)
(0,0,0)
(0,0,0)
(0,0,0)
(0,0,0)
(0,0,0)
(0,0,0)
(0,0,0)
(0,0,0)
(0,0,0)
(0,0,0)
(0,0,0)
(0,0,0)
(0,0,0)
(0,0,0)
(0,0,0)
(0,0,0)
(0,0,0)
(0,0,0)
(0,0,0)
(0,0,0)
(0,0,0)
(0,0,0)
(0,0,0)
(0,0,0)
(0,0,0)
(0,0,0)
(0,0,0)
(0,0,0)
(0,0,0)
(0,0,0)
(0,0,0)
(0,0,0)
(0,0,0)
(0,0,0)
(0,0,0)
(0,0,0)
(0,0,0)
(0,0,0)
(0,0,0)
(0,0,0)
(0,0,0)
(0,0,0)
(0,0,0)
(0,0,0)
(0,0,0)
(0,0,0)
(0,0,0)
(0,0,0)
(0,0,0)
(0,0,0)
(0,0,0)
(0,0,0)
(0,0,0)
(0,0,0)
(0,0,0)
(0,0,0)
(0,0,0)
(0,0,0)
(0,0,0)
(0,0,0)
(0,0,0)
(0,0,0)
(0,0,0)
(0,0,0)
(0,0,0)
(0,0,0)
(0,0,0)
(0,0,0)
(0,0,0)
(0,0,0)
(0,0,0)
(0,0,0)
(0,0,0)
(0,0,0)
(0,0,0)
(0,0,0)
(0,0,0)
(0,0,0)
(0,0,0)
(0,0,0)
(0,0,0)
(0,0,0)
(0,0,0)
(0,0,0)
(0,0,0)
(0,0,0)
(0,0,0)
(0,0,0)
(0,0,0)
(0,0,0)
(0,0,0)
(0,0,0)
(0,0,0)
(0,0,0)
(0,0,0)
(0,0,0)
(0,0,0)
(0,0,0)
(0,0,0)
(0,0,0)
(0,0,0)
(0,0,0)
(0,0,0)
(0,0,0)
(0,0,0)
(0,0,0)
(0,0,0)
(0,0,0)
(0,0,0)
(0,0,0)
(0,0,0)
(0,0,0)
(0,0,0)
(0,0,0)
(0,0,0)
(0,0,0)
(0,0,0)
(0,0,0)
(0,0,0)
(0,0,0)
(0,0,0)
(0,0,0)
(0,0,0)
(0,0,0)
(0,0,0)
(0,0,0)
(0,0,0)
(0,0,0)
(0,0,0)
(0,0,0)
(0,0,0)
(0,0,0)
(0,0,0)
(0,0,0)
(0,0,0)
(0,0,0)
(0,0,0)
(0,0,0)
(0,0,0)
(0,0,0)
(0,0,0)
(0,0,0)
(0,0,0)
(0,0,0)
(0,0,0)
(0,0,0)
(0,0,0)
(0,0,0)
(0,0,0)
(0,0,0)
(0,0,0)
(0,0,0)
(0,0,0)
(0,0,0)
(0,0,0)
(0,0,0)
(0,0,0)
(0,0,0)
(0,0,0)
(0,0,0)
(-64301.1774313712,34064.0403100169,30237.1371213533)
(-68066.5863749113,32692.8361756332,65610.8873206307)
(-76707.8602108199,29766.0911187591,112552.656412688)
(-93032.9363686678,25171.3651989017,180414.227582465)
(-122469.426100532,18968.5835041845,283915.070178812)
(-175205.438167942,11779.7735989703,447340.734747788)
(-270677.146551279,5247.17522192579,712770.706077164)
(-443274.459550719,1231.94643101542,1154813.21919688)
(-731328.21221421,-60.2674621573731,1886201.69887321)
(-1019159.1484955,-126.668856246211,2905487.51622504)
(0,0,0)
(0,0,0)
(0,0,0)
(0,0,0)
(0,0,0)
(0,0,0)
(-68032.5583493002,73286.206455535,28810.3922037803)
(-71818.1855660016,70661.8927749999,62659.5211704179)
(-80616.032139141,65106.2051293405,107935.439298974)
(-97326.5606059356,56222.5796186497,174210.785485162)
(-127546.819461928,43955.7366624755,276770.451788797)
(-181558.184957161,29258.2214953178,440850.188849599)
(-278099.934609571,15369.5375514194,708827.761129668)
(-450038.683748265,6566.32263016356,1153532.06867874)
(-735821.557147746,3140.71372753728,1886152.64463684)
(-1021249.38653062,1596.69957760549,2905678.66273351)
(0,0,0)
(0,0,0)
(0,0,0)
(0,0,0)
(0,0,0)
(0,0,0)
(-76578.9356688476,123686.338817241,26178.8033071423)
(-80426.3748767238,120154.948078214,57112.122880655)
(-89504.0393999137,112631.860880963,99090.5065289517)
(-107043.079276921,100382.987823856,161973.177600667)
(-139173.995529881,82913.2743731088,262189.635419901)
(-196536.590303842,60950.4501815982,427033.997037466)
(-296415.49788805,38711.866743901,700107.165733047)
(-466920.743952601,23426.7822996459,1150167.45001611)
(-746704.004077921,15381.6866471448,1884630.48117449)
(-1026186.0547563,8336.84947420948,2904076.38603418)
(0,0,0)
(0,0,0)
(0,0,0)
(0,0,0)
(0,0,0)
(0,0,0)
(-92509.9144885155,193583.037667894,22613.2156378625)
(-96421.2340060754,189642.687996477,49546.7097256773)
(-105829.040198327,181225.642624823,86781.9681801362)
(-124553.249338072,167301.957363554,144416.247978502)
(-159856.279149451,146915.335222262,240270.466278811)
(-223652.972186905,120024.514523134,404849.374124172)
(-331463.654287306,90092.5567527048,684932.338402671)
(-499535.832005595,65625.9378877966,1142269.01482009)
(-766622.82515227,46602.1917553973,1877671.33486404)
(-1034893.82891635,25092.1675300913,2895809.84572468)
(0,0,0)
(0,0,0)
(0,0,0)
(0,0,0)
(0,0,0)
(0,0,0)
(-121017.133988796,295990.676336647,18609.4953200373)
(-124923.135496805,292156.998670072,41018.3201432467)
(-134512.960058405,283996.667252111,72760.2555743617)
(-154242.011758593,270443.363627897,123860.861068612)
(-192816.81804779,250342.641200788,213250.373137876)
(-264556.517194269,222954.526498065,374876.878357194)
(-384825.480240908,189300.588138843,660494.327211962)
(-549173.649388496,152032.495800978,1123261.41868732)
(-795516.56546479,109242.491621901,1856137.68428571)
(-1047420.89989549,57907.154765815,2870743.59694547)
(0,0,0)
(0,0,0)
(0,0,0)
(0,0,0)
(0,0,0)
(0,0,0)
(-172488.859346403,453783.812330522,14695.7233525345)
(-176197.492307096,450366.498627415,32683.7157022796)
(-185457.403069428,443077.935440026,59059.850583796)
(-204982.091631519,430891.411409064,103593.894434138)
(-243945.22907724,412195.737623908,185686.027088267)
(-317015.501498209,384553.424247226,341102.630837325)
(-437625.448714102,344866.652885549,623162.014804714)
(-594513.83376203,289278.556414081,1080429.78795365)
(-826776.248567863,211759.664600076,1804688.8635434)
(-1063168.56969758,113043.680745204,2812720.90726153)
(0,0,0)
(0,0,0)
(0,0,0)
(0,0,0)
(0,0,0)
(0,0,0)
(-266869.548409423,709425.907062055,11227.4536778823)
(-270162.62778132,706480.537376424,25276.0427102004)
(-278488.22138734,700132.482952098,46709.71658547)
(-296313.177365999,689241.568251469,84672.7371090622)
(-332476.850314616,671494.122805409,157851.202242176)
(-401107.843233608,642235.704371183,301276.765351838)
(-514269.881235533,592960.029974391,567453.269498543)
(-656941.437396616,510889.647522815,1002783.61578642)
(-873388.115130797,382241.299830596,1705690.09568664)
(-1088882.26021069,208271.093251037,2699344.94339159)
(0,0,0)
(0,0,0)
(0,0,0)
(0,0,0)
(0,0,0)
(0,0,0)
(-439587.214081951,1140757.28448334,8255.83666066831)
(-442219.558701141,1138095.3889165,18860.5438217489)
(-448934.492059718,1132225.72908846,35701.7897451262)
(-463419.425183006,1121601.66659769,66761.1165819)
(-493138.002875655,1102953.10334499,128440.138917973)
(-550166.356301894,1069023.30943829,251818.890152748)
(-644895.017366591,1004515.86037793,485158.077115756)
(-760434.307052717,882652.246284176,873829.785407135)
(-958124.698320838,682927.49523993,1531268.28831864)
(-1138126.70689564,387134.622734983,2490531.46573029)
(0,0,0)
(0,0,0)
(0,0,0)
(0,0,0)
(0,0,0)
(0,0,0)
(-728760.435513898,1863966.22103603,5551.49896120296)
(-730565.375848395,1861318.76951686,12893.4942092346)
(-735138.755909901,1855247.41540685,25010.5638006896)
(-744888.439885038,1843457.00729228,48043.6629911123)
(-764536.823151644,1821122.62885175,94410.9606360017)
(-801445.30200931,1777731.52573299,187148.046350617)
(-863460.165305618,1692070.08983772,363053.982196452)
(-955735.878766971,1527732.24356799,673709.863679642)
(-1114454.3925105,1236139.94713852,1234951.80429143)
(-1224033.60348442,743335.025839607,2102785.00467124)
(0,0,0)
(0,0,0)
(0,0,0)
(0,0,0)
(0,0,0)
(0,0,0)
(-1017919.64700151,2879045.0395912,2840.82844632629)
(-1018827.33644671,2876323.2484125,6663.68599738602)
(-1021104.87765816,2869876.82240712,13139.1566553012)
(-1025911.43266745,2856866.71085007,25640.8857650194)
(-1035440.54392027,2831304.37386498,50899.684672076)
(-1053219.11607297,2780491.91439412,101358.412083887)
(-1084260.07233229,2679251.0161771,198437.558076778)
(-1136626.49592593,2481125.9843246,381670.313246075)
(-1223726.60060666,2099843.9507996,741692.910191602)
(-1232502.10348105,1358534.6409404,1358995.39857191)
(0,0,0)
(0,0,0)
(0,0,0)
(0,0,0)
(0,0,0)
(0,0,0)
(0,0,0)
(0,0,0)
(0,0,0)
(0,0,0)
(0,0,0)
(0,0,0)
(0,0,0)
(0,0,0)
(0,0,0)
(0,0,0)
(0,0,0)
(0,0,0)
(0,0,0)
(0,0,0)
(0,0,0)
(0,0,0)
(0,0,0)
(0,0,0)
(0,0,0)
(0,0,0)
(0,0,0)
(0,0,0)
(0,0,0)
(0,0,0)
(0,0,0)
(0,0,0)
(0,0,0)
(0,0,0)
(0,0,0)
(0,0,0)
(0,0,0)
(0,0,0)
(0,0,0)
(0,0,0)
(0,0,0)
(0,0,0)
(0,0,0)
(0,0,0)
(0,0,0)
(0,0,0)
(0,0,0)
(0,0,0)
(0,0,0)
(0,0,0)
(0,0,0)
(0,0,0)
(0,0,0)
(0,0,0)
(0,0,0)
(0,0,0)
(0,0,0)
(0,0,0)
(0,0,0)
(0,0,0)
(0,0,0)
(0,0,0)
(0,0,0)
(0,0,0)
(0,0,0)
(0,0,0)
(0,0,0)
(0,0,0)
(0,0,0)
(0,0,0)
(0,0,0)
(0,0,0)
(0,0,0)
(0,0,0)
(0,0,0)
(0,0,0)
(0,0,0)
(0,0,0)
(0,0,0)
(0,0,0)
(0,0,0)
(0,0,0)
(0,0,0)
(0,0,0)
(0,0,0)
(0,0,0)
(0,0,0)
(0,0,0)
(0,0,0)
(0,0,0)
(0,0,0)
(0,0,0)
(0,0,0)
(0,0,0)
(0,0,0)
(0,0,0)
(0,0,0)
(0,0,0)
(0,0,0)
(0,0,0)
(0,0,0)
(0,0,0)
(9560507.60822457,30353.4669815204,26547.9897645971)
(9554206.20522659,28923.9024603145,57061.5381049672)
(9539811.73334766,25878.3795255239,96373.8074229589)
(9512969.61829588,20923.2838545455,151158.211305913)
(9465210.01910142,13888.5085372937,231300.499968695)
(9380419.04013322,5428.94543798853,351957.318631557)
(9224839.68270788,-2149.6203500729,540300.352124395)
(8917270.38116446,-5494.55330762548,866960.307118925)
(8223238.78380229,-4543.35508291194,1598646.90858744)
(6338419.08427771,-2229.45516893427,3925008.3733853)
(0,0,0)
(0,0,0)
(0,0,0)
(0,0,0)
(0,0,0)
(0,0,0)
(9554164.89011978,64785.4278575899,25080.8330569496)
(9547867.77715044,62076.8757515873,53952.1394513724)
(9533322.42018594,56256.2366398293,91346.0724140772)
(9505969.73026664,46576.3083363649,144106.999461813)
(9456932.88624462,32366.6446716007,222859.40002308)
(9369736.88327286,14318.579132168,344384.940500984)
(9211756.20754269,-2892.79721109386,536982.21761193)
(8905481.07469659,-10243.4100415045,867921.55830298)
(8215931.12831387,-7667.28661918178,1601003.04677964)
(6335230.75128864,-3299.33114844331,3927303.02734182)
(0,0,0)
(0,0,0)
(0,0,0)
(0,0,0)
(0,0,0)
(0,0,0)
(9539711.91140158,107824.686398889,22380.1367902313)
(9533406.85827446,104218.624283021,48115.3975096514)
(9518589.91841622,96346.0645584271,81641.8541770511)
(9490056.93626238,82921.5922439346,129906.797132403)
(9437643.6330982,62267.6613976153,204898.394180424)
(9343276.69111089,33884.204308104,327229.72999192)
(9176215.92069834,3719.18295907771,529696.573637477)
(8872832.92879691,-9124.15362192307,870533.886870571)
(8196920.3440985,-4454.45773559498,1605406.95221247)
(6327324.10221237,-318.17251049648,3930625.87900803)
(0,0,0)
(0,0,0)
(0,0,0)
(0,0,0)
(0,0,0)
(0,0,0)
(9513145.77973914,165131.563405498,18747.6711677822)
(9506865.2868852,161199.234074864,40190.7828867817)
(9491719.5821319,152591.338450476,68107.1290665953)
(9461344.35986634,137694.377472839,109146.977035427)
(9402707.54507191,114030.421042134,176530.635571701)
(9292194.50369346,79173.4536053266,297104.152796183)
(9097340.32846936,36781.929062885,516947.666337865)
(8798634.20157013,16064.2579300192,875299.463612377)
(8158566.43768663,17751.864067006,1609614.12137282)
(6312556.44923986,12550.6288245607,3931005.28428384)
(0,0,0)
(0,0,0)
(0,0,0)
(0,0,0)
(0,0,0)
(0,0,0)
(9466435.81447707,244628.246509001,14760.6108327082)
(9460301.30784005,240981.799113136,31463.844859637)
(9445086.19095375,233102.473899671,53063.800800495)
(9413143.57287204,219763.643020443,85319.1930242823)
(9347385.12885498,199278.280276733,141579.62928912)
(9212688.25076352,170524.479478957,254694.077859908)
(8955589.47977024,136511.64022864,496259.649085131)
(8661135.70357582,106716.364968043,877008.431484945)
(8098548.58494711,78001.9151130384,1604403.47242896)
(6290679.40523241,42136.8275574726,3918427.21097012)
(0,0,0)
(0,0,0)
(0,0,0)
(0,0,0)
(0,0,0)
(0,0,0)
(9383331.94299871,359461.893993154,11055.7925727224)
(9377616.1301314,356463.767944726,23470.4437046945)
(9363154.71033921,350095.378866382,39575.6677314628)
(9331829.05527242,339594.896232301,64643.5100178968)
(9265347.21488273,323681.117519433,112658.471217312)
(9126859.32594807,300455.648641827,220562.717010193)
(8866614.74541775,268187.180380994,466357.225128151)
(8585213.50025491,226826.393250142,848230.105231193)
(8047580.85384987,165165.689892872,1568419.47043575)
(6265672.21753876,87324.0991808288,3876101.65397802)
(0,0,0)
(0,0,0)
(0,0,0)
(0,0,0)
(0,0,0)
(0,0,0)
(9229363.20390507,536934.201045767,8005.18303498432)
(9224363.01331895,534629.974117611,17023.5781638966)
(9211549.28992848,529866.402139632,28925.2859769943)
(9183133.62808486,522283.261424854,48500.3577356167)
(9121186.77752309,510982.668398624,89245.4214208236)
(8988841.35658384,493294.739653158,188167.372994034)
(8736571.2805995,462386.360173765,424837.27376825)
(8482590.31471874,407444.182204866,786397.975100273)
(7972010.08353802,297575.668629916,1490300.04009638)
(6222941.08142566,159078.879302789,3788432.16074021)
(0,0,0)
(0,0,0)
(0,0,0)
(0,0,0)
(0,0,0)
(0,0,0)
(8921539.77639135,851824.212050594,5693.24092398976)
(8917603.79015094,849977.217322892,12232.891268676)
(8907391.07749979,846225.410332719,21258.5559181913)
(8884439.36180312,840327.089946541,37066.182812433)
(8833415.59298353,831757.678937473,71447.8188163734)
(8721232.33279439,817924.628317206,157129.483458251)
(8500579.85103991,786092.080525826,369659.137101806)
(8334702.22594121,687473.158921017,676203.869793662)
(7819287.88333951,526692.077028691,1351385.12213663)
(6123883.48984751,301299.699858594,3628864.34723971)
(0,0,0)
(0,0,0)
(0,0,0)
(0,0,0)
(0,0,0)
(0,0,0)
(8225783.58733087,1575164.02570859,3826.40589938387)
(8223134.42364743,1573395.22815195,8418.83797663039)
(8216301.81390116,1569587.14272822,15326.7781721097)
(8201279.2466687,1562735.50842292,28460.9155440318)
(8169323.36564188,1550508.04255959,57560.605530413)
(8104371.79410311,1526210.68390292,125167.696234495)
(7987216.22068399,1471486.70591424,270806.927258657)
(7822183.33050548,1347010.14227088,515060.977038497)
(7356523.77579987,1126974.34724824,1125510.7809107)
(5822538.78896586,734940.640763556,3327007.68995756)
(0,0,0)
(0,0,0)
(0,0,0)
(0,0,0)
(0,0,0)
(0,0,0)
(6339413.23062215,3897562.06259073,1979.32789622329)
(6338103.05627488,3895711.70590245,4442.69982612037)
(6334738.48159713,3891501.92203902,8394.80366216564)
(6327494.92526888,3883256.23261942,16177.9639315415)
(6312612.02197348,3867174.09713255,33169.5858669985)
(6283413.28038065,3834115.8641104,70342.2516080488)
(6229319.28848206,3763867.48670768,146092.352402379)
(6125516.77888283,3618032.35288215,294637.10938461)
(5822808.14212442,3323759.57642518,733027.379878748)
(4734408.13743579,2591151.95695527,2591616.06517226)
(0,0,0)
(0,0,0)
(0,0,0)
(0,0,0)
(0,0,0)
(0,0,0)
(0,0,0)
(0,0,0)
(0,0,0)
(0,0,0)
(0,0,0)
(0,0,0)
(0,0,0)
(0,0,0)
(0,0,0)
(0,0,0)
(0,0,0)
(0,0,0)
(0,0,0)
(0,0,0)
(0,0,0)
(0,0,0)
(0,0,0)
(0,0,0)
(0,0,0)
(0,0,0)
(0,0,0)
(0,0,0)
(0,0,0)
(0,0,0)
(0,0,0)
(0,0,0)
(0,0,0)
(0,0,0)
(0,0,0)
(0,0,0)
(0,0,0)
(0,0,0)
(0,0,0)
(0,0,0)
(0,0,0)
(0,0,0)
(0,0,0)
(0,0,0)
(0,0,0)
(0,0,0)
(0,0,0)
(0,0,0)
(0,0,0)
(0,0,0)
(0,0,0)
(0,0,0)
(0,0,0)
(0,0,0)
(0,0,0)
(0,0,0)
(0,0,0)
(0,0,0)
(0,0,0)
(0,0,0)
(0,0,0)
(0,0,0)
(0,0,0)
(0,0,0)
(0,0,0)
(0,0,0)
(0,0,0)
(0,0,0)
(0,0,0)
(0,0,0)
(0,0,0)
(0,0,0)
(0,0,0)
(0,0,0)
(0,0,0)
(0,0,0)
(0,0,0)
(0,0,0)
(0,0,0)
(0,0,0)
(0,0,0)
(0,0,0)
(0,0,0)
(0,0,0)
(0,0,0)
(0,0,0)
(0,0,0)
(0,0,0)
(0,0,0)
(0,0,0)
(0,0,0)
(0,0,0)
(0,0,0)
(0,0,0)
(0,0,0)
(0,0,0)
(0,0,0)
(0,0,0)
(0,0,0)
(0,0,0)
(0,0,0)
(0,0,0)
(-165533.386589672,24007.4632021367,20323.2892100474)
(-172496.298900613,22545.2065149653,42770.3444200955)
(-188153.809439139,19365.3223164699,69660.3224884315)
(-216553.711372399,13904.980663772,103568.429090887)
(-265068.855690505,5566.00636273375,146571.055118061)
(-345888.640460659,-5268.22812761119,196436.721437528)
(-478089.131063249,-15248.4385612242,232903.73136792)
(-687433.441693789,-17309.0301839475,173206.34200802)
(-987630.458747062,-11882.2959028269,-285752.361941887)
(-1210991.27991033,-5448.39655261503,-2412603.84360329)
(0,0,0)
(0,0,0)
(0,0,0)
(0,0,0)
(0,0,0)
(0,0,0)
(-172794.979804696,50409.2041282172,18847.8865962932)
(-179625.24867628,47646.9469707188,39528.9295651217)
(-195143.748520826,41530.0831595417,64120.0950267232)
(-223576.14270952,30664.5528627411,95196.1534017856)
(-272815.633562486,13060.541886564,135739.895282955)
(-355858.332714544,-12114.8305305664,186471.471271207)
(-491183.985532897,-38385.9623210045,230838.945704406)
(-698493.696259157,-42824.4710551417,178618.915129281)
(-993168.759488558,-26600.9168068113,-279272.818566295)
(-1212932.34411646,-11151.016532183,-2407117.34558357)
(0,0,0)
(0,0,0)
(0,0,0)
(0,0,0)
(0,0,0)
(0,0,0)
(-189078.298957714,81378.4070926323,16110.7649929212)
(-195676.630579995,77747.1625332569,33383.7958827976)
(-210905.780611185,69506.1469678964,53193.1886997126)
(-239584.4188704,54224.972385162,77563.8819078588)
(-291354.328621712,27311.1041971553,110601.038915053)
(-382994.33301303,-17212.7355492219,160259.725655463)
(-534928.191086303,-75147.7017607229,226455.334477703)
(-736817.48386108,-83281.9024104005,194852.936088782)
(-1010024.53378816,-42715.716891045,-263797.628342228)
(-1218359.20575579,-14998.6648971679,-2395976.91441125)
(0,0,0)
(0,0,0)
(0,0,0)
(0,0,0)
(0,0,0)
(0,0,0)
(-218217.490508963,118565.114873753,12466.32006493)
(-224455.075189871,114751.705207215,25071.8970639255)
(-239223.306949877,106050.106853307,37760.5838581982)
(-268470.617818444,89572.168297163,50518.1232288317)
(-325982.002530821,58761.6117070555,66046.9209195188)
(-442712.071012843,-306.336637546547,102336.854312098)
(-670640.338949008,-104938.521951932,218398.099519512)
(-862040.457300431,-121381.582170237,235462.19574774)
(-1052158.07662096,-42207.8400742677,-236031.409163397)
(-1229978.31296784,-9288.89599310058,-2380916.65826197)
(0,0,0)
(0,0,0)
(0,0,0)
(0,0,0)
(0,0,0)
(0,0,0)
(-267082.259659029,161733.454675749,8639.49193202273)
(-272789.771242519,158489.08140531,16282.9524144366)
(-286737.130694143,151299.262070594,21146.8764428299)
(-315969.312148668,138542.875092244,19578.8122664356)
(-380257.164632278,117329.501671233,6942.97338731395)
(-544854.434924431,84747.3460120318,-2278.26597651025)
(-1082901.04456973,47548.4923096522,202015.001699717)
(-1285368.85549376,30798.2467646588,314629.489432293)
(-1134654.4441926,27056.8135816784,-203142.377485905)
(-1248941.48892125,17140.4884975511,-2371661.11022492)
(0,0,0)
(0,0,0)
(0,0,0)
(0,0,0)
(0,0,0)
(0,0,0)
(-347618.694738747,205599.560497008,5374.2895142128)
(-352611.691314203,203338.632662375,9042.31730070303)
(-365086.757421851,198604.256273364,8268.54845686967)
(-392229.074050057,190986.8630408,-1827.55257143596)
(-454691.597061292,179599.810842732,-25769.2922009916)
(-618787.120523451,162480.020768646,-39565.7628881087)
(-1130331.31354167,138131.892191339,185086.653787439)
(-1315536.60329166,124186.805327186,310737.956369333)
(-1172756.91256481,89643.8016456782,-213221.507682181)
(-1267741.45345939,44632.6662624984,-2389010.25685092)
(0,0,0)
(0,0,0)
(0,0,0)
(0,0,0)
(0,0,0)
(0,0,0)
(-479119.356213017,229309.035814953,3062.8423980362)
(-483262.017393236,228047.606180896,4268.65718963539)
(-493738.231767207,225889.921867941,560.270888560214)
(-517368.857664888,223748.329276554,-13408.9519994741)
(-574672.153806255,223377.789716348,-43038.2419458454)
(-735236.746535466,225819.567716617,-64009.9281764893)
(-1268437.1198676,226454.428088317,170965.693991627)
(-1439529.68980874,259613.925959787,275948.33548445)
(-1230551.19006237,144957.635828994,-258514.467500378)
(-1298827.48285478,60119.446271493,-2433942.92563108)
(0,0,0)
(0,0,0)
(0,0,0)
(0,0,0)
(0,0,0)
(0,0,0)
(-689005.858481999,156349.834200557,1794.59408562747)
(-692131.104008053,155774.487911628,2092.36411184306)
(-700125.482642341,155394.410663144,-1605.80694334356)
(-718652.509819533,157399.463824179,-13875.3122703809)
(-766032.728975778,167918.26230623,-40677.7053029253)
(-913187.924805799,201297.044981585,-63445.1673698972)
(-1494933.2654281,272904.531077922,203907.603706398)
(-1219511.25350306,175089.827490707,160934.939217726)
(-1276846.42629704,64064.4224967784,-343747.780215514)
(-1347070.07288849,75.0477162641819,-2494460.06132625)
(0,0,0)
(0,0,0)
(0,0,0)
(0,0,0)
(0,0,0)
(0,0,0)
(-990093.862518202,-310675.056677777,1192.09832525467)
(-992121.951185406,-311130.250716462,1642.96938405139)
(-997251.862821242,-311513.01687877,393.831246322212)
(-1008652.28311882,-310599.356122716,-3386.06142130872)
(-1034745.71450673,-305768.965490426,-7339.9958780699)
(-1097067.80291796,-294363.688621034,8050.09234339309)
(-1233324.35132851,-286073.617652522,105858.570684194)
(-1278742.32442669,-349377.210957847,49541.0216627556)
(-1396871.52341083,-406512.905952258,-408196.593079588)
(-1419249.86706547,-353033.463735178,-2495009.66799894)
(0,0,0)
(0,0,0)
(0,0,0)
(0,0,0)
(0,0,0)
(0,0,0)
(-1212841.47181531,-2440792.48757222,661.890929830861)
(-1213811.47024531,-2441369.79313387,1105.71746529454)
(-1216285.92310354,-2442308.52875853,1215.39164366583)
(-1221586.32267366,-2443390.50068412,1377.54174540512)
(-1232820.7525345,-2444671.45217384,4002.56053470863)
(-1256307.98019881,-2448605.12740137,16255.0174923372)
(-1299721.68879061,-2464811.63586826,42323.7705786529)
(-1348372.05962847,-2506902.53087529,-7972.31339487579)
(-1419654.78513108,-2498556.52202292,-355176.012470852)
(-1370153.71130899,-2142929.48471576,-2142428.38514766)
(0,0,0)
(0,0,0)
(0,0,0)
(0,0,0)
(0,0,0)
(0,0,0)
(0,0,0)
(0,0,0)
(0,0,0)
(0,0,0)
(0,0,0)
(0,0,0)
(0,0,0)
(0,0,0)
(0,0,0)
(0,0,0)
(0,0,0)
(0,0,0)
(0,0,0)
(0,0,0)
(0,0,0)
(0,0,0)
(0,0,0)
(0,0,0)
(0,0,0)
(0,0,0)
(0,0,0)
(0,0,0)
(0,0,0)
(0,0,0)
(0,0,0)
(0,0,0)
(0,0,0)
(0,0,0)
(0,0,0)
(0,0,0)
(0,0,0)
(0,0,0)
(0,0,0)
(0,0,0)
(0,0,0)
(0,0,0)
(0,0,0)
(0,0,0)
(0,0,0)
(0,0,0)
(0,0,0)
(0,0,0)
(0,0,0)
(0,0,0)
(0,0,0)
(0,0,0)
(0,0,0)
(0,0,0)
(0,0,0)
(0,0,0)
(0,0,0)
(0,0,0)
(0,0,0)
(0,0,0)
(0,0,0)
(0,0,0)
(0,0,0)
(0,0,0)
(0,0,0)
(0,0,0)
(0,0,0)
(0,0,0)
(0,0,0)
(0,0,0)
(0,0,0)
(0,0,0)
(0,0,0)
(0,0,0)
(0,0,0)
(0,0,0)
(0,0,0)
(0,0,0)
(0,0,0)
(0,0,0)
(0,0,0)
(0,0,0)
(0,0,0)
(0,0,0)
(0,0,0)
(0,0,0)
(0,0,0)
(0,0,0)
(0,0,0)
(0,0,0)
(0,0,0)
(0,0,0)
(0,0,0)
(0,0,0)
(0,0,0)
(0,0,0)
(0,0,0)
(0,0,0)
(0,0,0)
(0,0,0)
(0,0,0)
(0,0,0)
(-195777.697246098,16754.0348374635,13490.2758189628)
(-201696.993975966,15424.8194192675,27266.1514750531)
(-214663.263899747,12400.1274969714,41375.4784386921)
(-237198.410011574,6881.72665387293,55138.4504239917)
(-273460.247066286,-2212.67015530733,65742.5119550786)
(-329159.798598252,-15245.6406562576,64259.3107489299)
(-409231.855055348,-28322.1972709183,23724.2320119478)
(-508630.040990481,-28360.0971759598,-126719.071515399)
(-588198.307665698,-17445.4573340737,-508705.765262653)
(-511289.642729265,-7426.14213658963,-1200981.2603071)
(0,0,0)
(0,0,0)
(0,0,0)
(0,0,0)
(0,0,0)
(0,0,0)
(-202404.111662508,34244.7448878659,12118.4218074078)
(-207962.680895592,31702.0578339269,24178.6156120615)
(-220217.562719338,25841.1791023091,35811.37820524)
(-241561.543851658,14652.0416915917,46026.4643096536)
(-276169.974959321,-5539.43598241149,52707.571533588)
(-330305.812092961,-39279.2975538274,51188.7078095798)
(-409909.474181643,-82086.3950563227,23678.3942437315)
(-506288.523692517,-81074.2401235062,-115812.63537536)
(-584338.186848257,-43418.6380714664,-498670.027278251)
(-508893.165891151,-16558.8053413277,-1193576.5422989)
(0,0,0)
(0,0,0)
(0,0,0)
(0,0,0)
(0,0,0)
(0,0,0)
(-216932.982065323,52509.9407575981,9589.48723788268)
(-221861.597193992,49184.4670148165,18292.0446709884)
(-232698.644102295,41337.8848680828,24588.2023963232)
(-251577.345075066,25414.8462659986,25818.3240265829)
(-282729.69713604,-7330.34874908266,18984.6053075812)
(-334700.82694466,-76977.4378795153,8389.23956488281)
(-422490.115827288,-210846.506301191,24711.2755507356)
(-506602.033282118,-208452.042431198,-78126.3727205518)
(-574982.596737974,-84789.132164452,-471797.815677748)
(-503097.636591938,-26552.0539576919,-1177066.13622526)
(0,0,0)
(0,0,0)
(0,0,0)
(0,0,0)
(0,0,0)
(0,0,0)
(-241983.410987196,70003.0439127688,6272.81732307137)
(-246036.421888083,66645.3952714167,10393.2357646878)
(-254771.092887909,58721.0736886038,8557.832882203)
(-269677.18614604,42179.5380029381,-7000.2905271399)
(-294125.858507174,4490.49324095284,-50677.2765408198)
(-342397.313455157,-102476.684842097,-125492.787135931)
(-516973.408039769,-517191.35127735,27185.1269309866)
(-544216.298534123,-544667.560523222,45576.4862566953)
(-553180.762318361,-124644.52747535,-413545.432735024)
(-491396.044673799,-28191.1438097742,-1150488.61117705)
(0,0,0)
(0,0,0)
(0,0,0)
(0,0,0)
(0,0,0)
(0,0,0)
(-281581.610642437,81535.4188967814,2966.97599939518)
(-284571.103156032,78942.3850327042,2451.31815162263)
(-290691.677945263,73154.932914234,-8027.99382288013)
(-299510.566660493,62388.7229652038,-44695.92427332)
(-305768.666038768,42909.7139373156,-157603.643563198)
(-275591.723517347,10794.7167123473,-540137.756524735)
(7.96100595168349e-05,2.12280607754364e-05,-5.17314162463973e-05)