/*--------------------------------*- C++ -*----------------------------------*\
| =========                 |                                                 |
| \\      /  F ield         | foam-extend: Open Source Cstd::filesystem::create_directory();FD                    |
|  \\    /   O peration     | Version:     4.0                                |
|   \\  /    A nd           | Web:         http://www.foam-extend.org         |
|    \\/     M anipulation  |                                                 |
\*---------------------------------------------------------------------------*/
FoamFile
{
    version 2.0;
    format ascii;
    class volVectorField;
    location "Data/1563";
    object      H;
}
// * * * * * * * * * * * * * * * * * * * * * * * * * * * * * * * * * * * * * //

dimensions      [0 1 -1 0 0 0 0];

internalField   nonuniform List<vector>
4096
(
(0,0,0)
(0,0,0)
(0,0,0)
(0,0,0)
(0,0,0)
(0,0,0)
(0,0,0)
(0,0,0)
(0,0,0)
(0,0,0)
(0,0,0)
(0,0,0)
(0,0,0)
(0,0,0)
(0,0,0)
(0,0,0)
(0,0,0)
(0,0,0)
(0,0,0)
(0,0,0)
(0,0,0)
(0,0,0)
(0,0,0)
(0,0,0)
(0,0,0)
(0,0,0)
(0,0,0)
(0,0,0)
(0,0,0)
(0,0,0)
(0,0,0)
(0,0,0)
(0,0,0)
(0,0,0)
(0,0,0)
(0,0,0)
(0,0,0)
(0,0,0)
(0,0,0)
(0,0,0)
(0,0,0)
(0,0,0)
(0,0,0)
(0,0,0)
(0,0,0)
(0,0,0)
(0,0,0)
(0,0,0)
(0,0,0)
(0,0,0)
(0,0,0)
(0,0,0)
(0,0,0)
(0,0,0)
(0,0,0)
(0,0,0)
(0,0,0)
(0,0,0)
(0,0,0)
(0,0,0)
(0,0,0)
(0,0,0)
(0,0,0)
(0,0,0)
(0,0,0)
(0,0,0)
(0,0,0)
(0,0,0)
(0,0,0)
(0,0,0)
(0,0,0)
(0,0,0)
(0,0,0)
(0,0,0)
(0,0,0)
(0,0,0)
(0,0,0)
(0,0,0)
(0,0,0)
(0,0,0)
(0,0,0)
(0,0,0)
(0,0,0)
(0,0,0)
(0,0,0)
(0,0,0)
(0,0,0)
(0,0,0)
(0,0,0)
(0,0,0)
(0,0,0)
(0,0,0)
(0,0,0)
(0,0,0)
(0,0,0)
(0,0,0)
(0,0,0)
(0,0,0)
(0,0,0)
(0,0,0)
(0,0,0)
(0,0,0)
(0,0,0)
(0,0,0)
(0,0,0)
(0,0,0)
(0,0,0)
(0,0,0)
(0,0,0)
(0,0,0)
(0,0,0)
(0,0,0)
(0,0,0)
(0,0,0)
(0,0,0)
(0,0,0)
(0,0,0)
(0,0,0)
(0,0,0)
(0,0,0)
(0,0,0)
(0,0,0)
(0,0,0)
(0,0,0)
(0,0,0)
(0,0,0)
(0,0,0)
(0,0,0)
(0,0,0)
(0,0,0)
(0,0,0)
(0,0,0)
(0,0,0)
(0,0,0)
(0,0,0)
(0,0,0)
(0,0,0)
(0,0,0)
(0,0,0)
(0,0,0)
(0,0,0)
(0,0,0)
(0,0,0)
(0,0,0)
(0,0,0)
(0,0,0)
(0,0,0)
(0,0,0)
(0,0,0)
(0,0,0)
(0,0,0)
(0,0,0)
(0,0,0)
(0,0,0)
(0,0,0)
(0,0,0)
(0,0,0)
(0,0,0)
(0,0,0)
(0,0,0)
(0,0,0)
(0,0,0)
(0,0,0)
(0,0,0)
(0,0,0)
(0,0,0)
(0,0,0)
(0,0,0)
(0,0,0)
(0,0,0)
(0,0,0)
(0,0,0)
(0,0,0)
(0,0,0)
(0,0,0)
(0,0,0)
(0,0,0)
(0,0,0)
(0,0,0)
(0,0,0)
(0,0,0)
(0,0,0)
(0,0,0)
(0,0,0)
(0,0,0)
(0,0,0)
(0,0,0)
(0,0,0)
(0,0,0)
(0,0,0)
(0,0,0)
(0,0,0)
(0,0,0)
(0,0,0)
(0,0,0)
(0,0,0)
(0,0,0)
(0,0,0)
(0,0,0)
(0,0,0)
(0,0,0)
(0,0,0)
(0,0,0)
(0,0,0)
(0,0,0)
(0,0,0)
(0,0,0)
(0,0,0)
(0,0,0)
(0,0,0)
(0,0,0)
(0,0,0)
(0,0,0)
(0,0,0)
(0,0,0)
(0,0,0)
(0,0,0)
(0,0,0)
(0,0,0)
(0,0,0)
(0,0,0)
(0,0,0)
(0,0,0)
(0,0,0)
(0,0,0)
(0,0,0)
(0,0,0)
(0,0,0)
(0,0,0)
(0,0,0)
(0,0,0)
(0,0,0)
(0,0,0)
(0,0,0)
(0,0,0)
(0,0,0)
(0,0,0)
(0,0,0)
(0,0,0)
(0,0,0)
(0,0,0)
(0,0,0)
(0,0,0)
(0,0,0)
(0,0,0)
(0,0,0)
(0,0,0)
(0,0,0)
(0,0,0)
(0,0,0)
(0,0,0)
(0,0,0)
(0,0,0)
(0,0,0)
(0,0,0)
(0,0,0)
(0,0,0)
(0,0,0)
(0,0,0)
(0,0,0)
(0,0,0)
(0,0,0)
(0,0,0)
(0,0,0)
(0,0,0)
(0,0,0)
(0,0,0)
(0,0,0)
(0,0,0)
(0,0,0)
(0,0,0)
(0,0,0)
(0,0,0)
(0,0,0)
(0,0,0)
(0,0,0)
(0,0,0)
(0,0,0)
(0,0,0)
(0,0,0)
(0,0,0)
(0,0,0)
(0,0,0)
(0,0,0)
(0,0,0)
(0,0,0)
(0,0,0)
(0,0,0)
(0,0,0)
(0,0,0)
(0,0,0)
(0,0,0)
(0,0,0)
(0,0,0)
(0,0,0)
(0,0,0)
(0,0,0)
(0,0,0)
(0,0,0)
(0,0,0)
(0,0,0)
(0,0,0)
(0,0,0)
(0,0,0)
(0,0,0)
(0,0,0)
(0,0,0)
(0,0,0)
(0,0,0)
(0,0,0)
(0,0,0)
(0,0,0)
(0,0,0)
(0,0,0)
(0,0,0)
(0,0,0)
(0,0,0)
(0,0,0)
(0,0,0)
(0,0,0)
(0,0,0)
(0,0,0)
(0,0,0)
(0,0,0)
(0,0,0)
(0,0,0)
(0,0,0)
(0,0,0)
(0,0,0)
(0,0,0)
(0,0,0)
(0,0,0)
(0,0,0)
(0,0,0)
(0,0,0)
(0,0,0)
(0,0,0)
(0,0,0)
(0,0,0)
(0,0,0)
(0,0,0)
(0,0,0)
(0,0,0)
(0,0,0)
(0,0,0)
(0,0,0)
(0,0,0)
(0,0,0)
(0,0,0)
(0,0,0)
(0,0,0)
(0,0,0)
(0,0,0)
(0,0,0)
(0,0,0)
(0,0,0)
(0,0,0)
(0,0,0)
(0,0,0)
(0,0,0)
(0,0,0)
(0,0,0)
(0,0,0)
(0,0,0)
(0,0,0)
(0,0,0)
(0,0,0)
(0,0,0)
(0,0,0)
(0,0,0)
(0,0,0)
(0,0,0)
(0,0,0)
(0,0,0)
(0,0,0)
(0,0,0)
(0,0,0)
(0,0,0)
(0,0,0)
(0,0,0)
(0,0,0)
(0,0,0)
(0,0,0)
(0,0,0)
(0,0,0)
(0,0,0)
(0,0,0)
(0,0,0)
(0,0,0)
(0,0,0)
(0,0,0)
(0,0,0)
(0,0,0)
(0,0,0)
(0,0,0)
(0,0,0)
(0,0,0)
(0,0,0)
(0,0,0)
(0,0,0)
(0,0,0)
(0,0,0)
(0,0,0)
(0,0,0)
(0,0,0)
(0,0,0)
(0,0,0)
(0,0,0)
(0,0,0)
(0,0,0)
(0,0,0)
(0,0,0)
(0,0,0)
(0,0,0)
(0,0,0)
(0,0,0)
(0,0,0)
(0,0,0)
(0,0,0)
(0,0,0)
(0,0,0)
(0,0,0)
(0,0,0)
(0,0,0)
(0,0,0)
(0,0,0)
(0,0,0)
(0,0,0)
(0,0,0)
(0,0,0)
(0,0,0)
(0,0,0)
(0,0,0)
(0,0,0)
(0,0,0)
(0,0,0)
(0,0,0)
(0,0,0)
(0,0,0)
(0,0,0)
(0,0,0)
(0,0,0)
(0,0,0)
(0,0,0)
(0,0,0)
(0,0,0)
(0,0,0)
(0,0,0)
(0,0,0)
(0,0,0)
(0,0,0)
(0,0,0)
(0,0,0)
(0,0,0)
(0,0,0)
(0,0,0)
(0,0,0)
(0,0,0)
(0,0,0)
(0,0,0)
(0,0,0)
(0,0,0)
(0,0,0)
(0,0,0)
(0,0,0)
(0,0,0)
(0,0,0)
(0,0,0)
(0,0,0)
(0,0,0)
(0,0,0)
(0,0,0)
(0,0,0)
(0,0,0)
(0,0,0)
(0,0,0)
(0,0,0)
(0,0,0)
(0,0,0)
(0,0,0)
(0,0,0)
(0,0,0)
(0,0,0)
(0,0,0)
(0,0,0)
(0,0,0)
(0,0,0)
(0,0,0)
(0,0,0)
(0,0,0)
(0,0,0)
(0,0,0)
(0,0,0)
(0,0,0)
(0,0,0)
(0,0,0)
(0,0,0)
(0,0,0)
(0,0,0)
(0,0,0)
(0,0,0)
(0,0,0)
(0,0,0)
(0,0,0)
(0,0,0)
(0,0,0)
(0,0,0)
(0,0,0)
(0,0,0)
(0,0,0)
(0,0,0)
(0,0,0)
(0,0,0)
(0,0,0)
(0,0,0)
(0,0,0)
(0,0,0)
(0,0,0)
(0,0,0)
(0,0,0)
(0,0,0)
(0,0,0)
(0,0,0)
(0,0,0)
(0,0,0)
(0,0,0)
(0,0,0)
(0,0,0)
(0,0,0)
(0,0,0)
(0,0,0)
(0,0,0)
(0,0,0)
(0,0,0)
(0,0,0)
(0,0,0)
(0,0,0)
(0,0,0)
(0,0,0)
(0,0,0)
(0,0,0)
(0,0,0)
(0,0,0)
(0,0,0)
(0,0,0)
(0,0,0)
(0,0,0)
(0,0,0)
(0,0,0)
(0,0,0)
(0,0,0)
(0,0,0)
(0,0,0)
(0,0,0)
(0,0,0)
(0,0,0)
(0,0,0)
(0,0,0)
(0,0,0)
(0,0,0)
(0,0,0)
(0,0,0)
(0,0,0)
(0,0,0)
(0,0,0)
(0,0,0)
(0,0,0)
(0,0,0)
(0,0,0)
(0,0,0)
(0,0,0)
(0,0,0)
(0,0,0)
(0,0,0)
(0,0,0)
(0,0,0)
(0,0,0)
(0,0,0)
(0,0,0)
(0,0,0)
(0,0,0)
(0,0,0)
(0,0,0)
(0,0,0)
(0,0,0)
(0,0,0)
(0,0,0)
(0,0,0)
(0,0,0)
(0,0,0)
(0,0,0)
(0,0,0)
(0,0,0)
(0,0,0)
(0,0,0)
(0,0,0)
(0,0,0)
(0,0,0)
(0,0,0)
(0,0,0)
(0,0,0)
(0,0,0)
(0,0,0)
(0,0,0)
(0,0,0)
(0,0,0)
(0,0,0)
(0,0,0)
(0,0,0)
(0,0,0)
(0,0,0)
(0,0,0)
(0,0,0)
(0,0,0)
(0,0,0)
(0,0,0)
(0,0,0)
(0,0,0)
(0,0,0)
(0,0,0)
(0,0,0)
(0,0,0)
(0,0,0)
(0,0,0)
(0,0,0)
(0,0,0)
(0,0,0)
(0,0,0)
(0,0,0)
(0,0,0)
(0,0,0)
(0,0,0)
(0,0,0)
(0,0,0)
(0,0,0)
(0,0,0)
(0,0,0)
(0,0,0)
(0,0,0)
(0,0,0)
(0,0,0)
(0,0,0)
(0,0,0)
(0,0,0)
(0,0,0)
(0,0,0)
(0,0,0)
(0,0,0)
(0,0,0)
(0,0,0)
(0,0,0)
(0,0,0)
(0,0,0)
(0,0,0)
(0,0,0)
(0,0,0)
(0,0,0)
(0,0,0)
(0,0,0)
(0,0,0)
(0,0,0)
(0,0,0)
(0,0,0)
(0,0,0)
(0,0,0)
(0,0,0)
(0,0,0)
(0,0,0)
(0,0,0)
(0,0,0)
(0,0,0)
(0,0,0)
(0,0,0)
(0,0,0)
(0,0,0)
(0,0,0)
(0,0,0)
(0,0,0)
(0,0,0)
(0,0,0)
(0,0,0)
(0,0,0)
(0,0,0)
(0,0,0)
(0,0,0)
(0,0,0)
(0,0,0)
(0,0,0)
(0,0,0)
(0,0,0)
(0,0,0)
(0,0,0)
(0,0,0)
(0,0,0)
(0,0,0)
(0,0,0)
(0,0,0)
(0,0,0)
(0,0,0)
(0,0,0)
(0,0,0)
(0,0,0)
(0,0,0)
(0,0,0)
(0,0,0)
(0,0,0)
(0,0,0)
(0,0,0)
(0,0,0)
(0,0,0)
(0,0,0)
(0,0,0)
(0,0,0)
(0,0,0)
(0,0,0)
(0,0,0)
(0,0,0)
(0,0,0)
(0,0,0)
(0,0,0)
(0,0,0)
(0,0,0)
(0,0,0)
(0,0,0)
(0,0,0)
(0,0,0)
(0,0,0)
(0,0,0)
(0,0,0)
(0,0,0)
(0,0,0)
(0,0,0)
(0,0,0)
(0,0,0)
(0,0,0)
(0,0,0)
(0,0,0)
(0,0,0)
(0,0,0)
(0,0,0)
(0,0,0)
(0,0,0)
(0,0,0)
(0,0,0)
(0,0,0)
(0,0,0)
(0,0,0)
(0,0,0)
(0,0,0)
(0,0,0)
(0,0,0)
(0,0,0)
(0,0,0)
(0,0,0)
(0,0,0)
(0,0,0)
(0,0,0)
(0,0,0)
(0,0,0)
(0,0,0)
(0,0,0)
(0,0,0)
(0,0,0)
(0,0,0)
(0,0,0)
(0,0,0)
(0,0,0)
(0,0,0)
(0,0,0)
(0,0,0)
(0,0,0)
(0,0,0)
(0,0,0)
(0,0,0)
(0,0,0)
(0,0,0)
(0,0,0)
(0,0,0)
(0,0,0)
(0,0,0)
(0,0,0)
(0,0,0)
(0,0,0)
(0,0,0)
(0,0,0)
(0,0,0)
(0,0,0)
(0,0,0)
(0,0,0)
(0,0,0)
(0,0,0)
(0,0,0)
(0,0,0)
(0,0,0)
(0,0,0)
(0,0,0)
(0,0,0)
(0,0,0)
(0,0,0)
(0,0,0)
(0,0,0)
(0,0,0)
(0,0,0)
(0,0,0)
(0,0,0)
(0,0,0)
(0,0,0)
(0,0,0)
(0,0,0)
(0,0,0)
(0,0,0)
(0,0,0)
(0,0,0)
(0,0,0)
(0,0,0)
(0,0,0)
(0,0,0)
(0,0,0)
(0,0,0)
(1.6900661003038e-13,1.23048933363629e-12,4.71512977244691e-13)
(7.6438678205525e-13,1.95628205661379e-12,2.2492229261724e-13)
(1.59967566079988e-12,1.75522044105999e-12,-3.19222415215233e-14)
(3.42832442633152e-12,9.83693433221446e-13,-7.70488363908696e-14)
(5.46993482405386e-12,-3.62188308784722e-13,1.51048509829975e-13)
(6.2718302056129e-12,-4.6645716490119e-12,4.04992886795532e-13)
(6.84312201382874e-12,-1.0512197600118e-11,4.82739981985389e-13)
(7.67319237942121e-12,-1.77226386835883e-11,7.56054801685806e-13)
(7.84925085784838e-12,-2.81082986172014e-11,9.08568662078449e-13)
(6.82042281052193e-12,-4.23477012799479e-11,6.17605563748829e-13)
(0,0,0)
(0,0,0)
(0,0,0)
(0,0,0)
(0,0,0)
(0,0,0)
(3.26183544396772e-13,1.2513018013419e-12,6.52064189798667e-13)
(1.36313928870706e-12,2.08191203083501e-12,1.57639678857451e-13)
(3.30140745239277e-12,1.72194386630555e-12,5.39688113571698e-15)
(6.09901375026305e-12,1.00497261353208e-12,4.06352883027637e-13)
(9.23151977228576e-12,-1.35128548598581e-13,6.65890240542864e-13)
(1.1199006347521e-11,-4.36946307318681e-12,1.06338333594034e-12)
(1.22861669803134e-11,-1.02651837703166e-11,1.37583497149707e-12)
(1.31952958319419e-11,-1.7389415463366e-11,1.45755923995995e-12)
(1.31523032803294e-11,-2.75494228029027e-11,1.44337630474842e-12)
(1.19599185043724e-11,-4.12601368285146e-11,8.978608606581e-13)
(0,0,0)
(0,0,0)
(0,0,0)
(0,0,0)
(0,0,0)
(0,0,0)
(1.37595066012943e-12,1.36030668419682e-12,-2.90953442545383e-13)
(3.42883360674864e-12,1.63960021122705e-12,-3.27531344402157e-13)
(7.02184780966095e-12,9.60539186230419e-13,-3.15691019840217e-13)
(1.03124728018082e-11,8.03923137222151e-13,1.32907154633688e-13)
(1.28697846205288e-11,-6.7532280109518e-14,7.82587474356542e-13)
(1.51653923354586e-11,-4.16551754650261e-12,1.84620770485589e-12)
(1.6404050917611e-11,-9.9684593862633e-12,2.82183034264065e-12)
(1.71586718429402e-11,-1.71249657759073e-11,2.77576644609728e-12)
(1.70719205707066e-11,-2.71063242473762e-11,2.25909685004568e-12)
(1.64075503282765e-11,-4.05629257254145e-11,1.34385123394375e-12)
(0,0,0)
(0,0,0)
(0,0,0)
(0,0,0)
(0,0,0)
(0,0,0)
(3.01853352623596e-12,1.02422078778384e-12,-1.38586402621387e-12)
(6.12639912763711e-12,8.96902977212532e-13,-1.18886640398752e-12)
(1.01996462186627e-11,1.20687289661723e-13,-8.41087850423064e-13)
(1.37210667358056e-11,4.61766844237454e-16,-2.44150214199992e-13)
(1.52725429359061e-11,-8.68662471760034e-13,8.33606435689651e-13)
(1.69594256696952e-11,-4.30644250432552e-12,1.96225668404557e-12)
(1.81670486884716e-11,-9.52656758281622e-12,3.02500609872354e-12)
(1.85118889648754e-11,-1.66932883462256e-11,3.0773127997416e-12)
(1.87062000236774e-11,-2.66367123434533e-11,2.13890270958091e-12)
(1.87639081623985e-11,-3.9798130232003e-11,9.56420107175514e-13)
(0,0,0)
(0,0,0)
(0,0,0)
(0,0,0)
(0,0,0)
(0,0,0)
(4.16863591494186e-12,6.27410486942497e-13,-1.05688289818566e-12)
(7.50665905949688e-12,3.64605913256864e-13,-8.20605681539346e-13)
(1.21572250186943e-11,-1.82321651741177e-13,-3.71598130047267e-13)
(1.59932676293665e-11,-7.0339210393522e-13,2.66524117308919e-13)
(1.70436355751312e-11,-1.81941965202386e-12,1.29098713558745e-12)
(1.79976831160118e-11,-4.62251502504335e-12,2.23883586926983e-12)
(1.87551536540206e-11,-9.39445186615925e-12,3.24215142642568e-12)
(1.86175006444039e-11,-1.64246707490179e-11,3.47606031782243e-12)
(1.93610743765733e-11,-2.62155241607501e-11,2.22677747006041e-12)
(1.97176652960422e-11,-3.94339187126882e-11,9.6386392289309e-13)
(0,0,0)
(0,0,0)
(0,0,0)
(0,0,0)
(0,0,0)
(0,0,0)
(4.67169303342219e-12,3.43973594934309e-13,1.14672282118991e-12)
(8.51916337903391e-12,-1.40416740911669e-13,1.53686395188371e-12)
(1.32909023364235e-11,-4.55316930757902e-13,1.79743530286653e-12)
(1.6321301374624e-11,-1.24547235626668e-12,2.44356532030303e-12)
(1.71368451429163e-11,-2.479362877435e-12,3.05666937198736e-12)
(1.77933285902316e-11,-4.79623518705454e-12,3.69576960294609e-12)
(1.79756470711132e-11,-9.41975637647765e-12,4.52282324668098e-12)
(1.70996886083451e-11,-1.61160995888744e-11,4.69891612386178e-12)
(1.75163528275398e-11,-2.57403311357794e-11,3.48478326749902e-12)
(1.77038790860778e-11,-3.91879446753312e-11,2.05982354217755e-12)
(0,0,0)
(0,0,0)
(0,0,0)
(0,0,0)
(0,0,0)
(0,0,0)
(5.28695016755634e-12,1.95513038079522e-13,4.76115084625684e-12)
(9.45832949715824e-12,1.80929136862328e-14,5.21714359833129e-12)
(1.28091336374921e-11,-2.23457115038307e-13,5.64860818294035e-12)
(1.42176474567037e-11,-1.0975234803883e-12,6.30711630269616e-12)
(1.53322085213226e-11,-2.30705607656464e-12,6.31309181425231e-12)
(1.62804318366149e-11,-4.33747091542751e-12,6.58091788144493e-12)
(1.65531047809051e-11,-9.01132108020988e-12,7.34794342756267e-12)
(1.61112241233329e-11,-1.55106447701966e-11,7.30646768956367e-12)
(1.66965368853106e-11,-2.48100704698515e-11,5.64662181661029e-12)
(1.74340311167503e-11,-3.78838316115449e-11,3.21209867697462e-12)
(0,0,0)
(0,0,0)
(0,0,0)
(0,0,0)
(0,0,0)
(0,0,0)
(3.85989368096738e-12,1.82027630507744e-13,1.12910083236844e-11)
(7.54648040962999e-12,2.56072457312703e-13,1.15342570391027e-11)
(1.01643630912117e-11,-8.82965730810924e-14,1.16974381149952e-11)
(1.15162052951474e-11,-7.58201695282639e-13,1.17520828261586e-11)
(1.29868775320286e-11,-1.82986379723452e-12,1.16384275526584e-11)
(1.40117097876303e-11,-4.04000238177777e-12,1.20827239202776e-11)
(1.52101407494851e-11,-8.26174710402229e-12,1.24745208000662e-11)
(1.61377586579821e-11,-1.38818648923042e-11,1.1645210613348e-11)
(1.696323423537e-11,-2.23499449240074e-11,9.15248743852552e-12)
(1.72924519390391e-11,-3.49566584470322e-11,5.26267922878693e-12)
(0,0,0)
(0,0,0)
(0,0,0)
(0,0,0)
(0,0,0)
(0,0,0)
(2.69051552505085e-12,1.47070556680299e-13,2.17639643519688e-11)
(5.14315554605517e-12,1.48795552530963e-13,2.18478379652027e-11)
(6.9354774607005e-12,-2.54116943708838e-13,2.18794953522546e-11)
(8.71660658377459e-12,-6.68810963145428e-13,2.16389608662665e-11)
(1.12216738731669e-11,-1.41280328027358e-12,2.11420962441411e-11)
(1.29206737872009e-11,-3.37904079716053e-12,2.12014394215131e-11)
(1.52854618980482e-11,-6.56375748519596e-12,2.1020302022064e-11)
(1.6932290886825e-11,-1.0941247793768e-11,1.96981425511491e-11)
(1.70220400885788e-11,-1.82235318566059e-11,1.64280680032839e-11)
(1.68998517724036e-11,-2.98007643266618e-11,9.97675010099058e-12)
(0,0,0)
(0,0,0)
(0,0,0)
(0,0,0)
(0,0,0)
(0,0,0)
(1.32479357780663e-12,3.73501360985031e-13,3.53292483442151e-11)
(3.39244971810219e-12,2.13835246337009e-13,3.53244649726949e-11)
(4.9192622129123e-12,-1.29751046652125e-13,3.50341793364713e-11)
(6.17360945026214e-12,-1.46289861322488e-13,3.46946130911829e-11)
(9.65036578026734e-12,-6.57735453910196e-13,3.44083032625893e-11)
(1.2965391488386e-11,-2.16866490164794e-12,3.43456764880715e-11)
(1.6561895510258e-11,-3.97935342521817e-12,3.36463589280816e-11)
(1.83517091140338e-11,-6.46907286179007e-12,3.17884983870384e-11)
(1.70874081794269e-11,-1.08367474749705e-11,2.74365774656751e-11)
(1.61759731795298e-11,-1.91013712136517e-11,1.8108930586376e-11)
(0,0,0)
(0,0,0)
(0,0,0)
(0,0,0)
(0,0,0)
(0,0,0)
(0,0,0)
(0,0,0)
(0,0,0)
(0,0,0)
(0,0,0)
(0,0,0)
(0,0,0)
(0,0,0)
(0,0,0)
(0,0,0)
(0,0,0)
(0,0,0)
(0,0,0)
(0,0,0)
(0,0,0)
(0,0,0)
(0,0,0)
(0,0,0)
(0,0,0)
(0,0,0)
(0,0,0)
(0,0,0)
(0,0,0)
(0,0,0)
(0,0,0)
(0,0,0)
(0,0,0)
(0,0,0)
(0,0,0)
(0,0,0)
(0,0,0)
(0,0,0)
(0,0,0)
(0,0,0)
(0,0,0)
(0,0,0)
(0,0,0)
(0,0,0)
(0,0,0)
(0,0,0)
(0,0,0)
(0,0,0)
(0,0,0)
(0,0,0)
(0,0,0)
(0,0,0)
(0,0,0)
(0,0,0)
(0,0,0)
(0,0,0)
(0,0,0)
(0,0,0)
(0,0,0)
(0,0,0)
(0,0,0)
(0,0,0)
(0,0,0)
(0,0,0)
(0,0,0)
(0,0,0)
(0,0,0)
(0,0,0)
(0,0,0)
(0,0,0)
(0,0,0)
(0,0,0)
(0,0,0)
(0,0,0)
(0,0,0)
(0,0,0)
(0,0,0)
(0,0,0)
(0,0,0)
(0,0,0)
(0,0,0)
(0,0,0)
(0,0,0)
(0,0,0)
(0,0,0)
(0,0,0)
(0,0,0)
(0,0,0)
(0,0,0)
(0,0,0)
(0,0,0)
(0,0,0)
(0,0,0)
(0,0,0)
(0,0,0)
(0,0,0)
(0,0,0)
(0,0,0)
(0,0,0)
(0,0,0)
(0,0,0)
(0,0,0)
(3.94784826954037e-13,1.58981983295045e-12,1.25163326373632e-12)
(8.95601341971771e-13,2.72895930998662e-12,1.23772285470691e-12)
(1.67807883040678e-12,2.73848865714056e-12,6.81333998363765e-13)
(3.17894789979798e-12,7.25462978926338e-13,4.77583387576867e-13)
(4.98893068687549e-12,-2.10865549631184e-12,6.8969025301076e-13)
(5.89897453464788e-12,-8.63470869525492e-12,1.29701363331915e-12)
(6.32279336438792e-12,-1.78429221261176e-11,1.53700055628111e-12)
(7.18745529854309e-12,-3.0279843974143e-11,1.47595406043263e-12)
(7.58133814165669e-12,-5.1139313272441e-11,1.3032000219805e-12)
(6.35046392230639e-12,-9.59413554913758e-11,8.98311919672409e-13)
(0,0,0)
(0,0,0)
(0,0,0)
(0,0,0)
(0,0,0)
(0,0,0)
(7.11603172483428e-13,1.57191201523099e-12,1.27591676388782e-12)
(1.9576939060427e-12,2.72025354104068e-12,1.24770629523269e-12)
(3.66185613058817e-12,2.32494206042735e-12,1.08290130973884e-12)
(6.04052586906271e-12,7.03919375617833e-13,1.10870529440549e-12)
(8.76643040841786e-12,-1.84886417240547e-12,1.10043862752831e-12)
(1.06826091852289e-11,-8.21894597679608e-12,1.79344382394796e-12)
(1.19077183276843e-11,-1.74557994304153e-11,2.3770245078572e-12)
(1.29450290798566e-11,-2.99719553440878e-11,2.39407745081013e-12)
(1.32547201692867e-11,-5.05006167587793e-11,2.15658850045697e-12)
(1.21605682619801e-11,-9.50491496422354e-11,1.25029572271628e-12)
(0,0,0)
(0,0,0)
(0,0,0)
(0,0,0)
(0,0,0)
(0,0,0)
(1.74861445840052e-12,1.50833587323202e-12,-1.62610572476732e-13)
(4.15969051620333e-12,2.10470315335673e-12,-6.79596798062088e-15)
(7.41310153176383e-12,1.44887469680815e-12,7.80209924732149e-14)
(1.04662538524638e-11,6.49709809292598e-13,5.48229355067426e-13)
(1.26072945816321e-11,-1.49594004131429e-12,1.39119737426796e-12)
(1.43306946554623e-11,-7.49323346402019e-12,2.80148075152993e-12)
(1.60082230107394e-11,-1.65273614722098e-11,3.75547451728576e-12)
(1.724366400925e-11,-2.92301613285329e-11,3.7358996458432e-12)
(1.75175542826725e-11,-4.94716002743635e-11,3.21216092660132e-12)
(1.69866060687544e-11,-9.42403716034483e-11,1.98705493643731e-12)
(0,0,0)
(0,0,0)
(0,0,0)
(0,0,0)
(0,0,0)
(0,0,0)
(3.21834620485026e-12,1.24018322829851e-12,-1.65900375701481e-12)
(6.31091763802774e-12,1.79573020645609e-12,-1.25897338979377e-12)
(9.90571752383743e-12,8.28242562204049e-13,-3.96256338057579e-13)
(1.33471639566991e-11,-8.9442803650708e-14,5.46217719476444e-13)
(1.50946498678164e-11,-1.9757185580497e-12,2.09387185883009e-12)
(1.62127487757487e-11,-6.90912037811386e-12,3.79515666156328e-12)
(1.79826262708055e-11,-1.53548409313536e-11,4.99999956997069e-12)
(1.91816814577631e-11,-2.84378884361839e-11,4.85487739083681e-12)
(1.94674944437432e-11,-4.86776489760589e-11,3.46783769109376e-12)
(1.93561167504986e-11,-9.31323535249189e-11,1.79750068219379e-12)
(0,0,0)
(0,0,0)
(0,0,0)
(0,0,0)
(0,0,0)
(0,0,0)
(4.21579559030292e-12,7.34095447952868e-13,7.01630039388304e-13)
(7.56267416217043e-12,1.191641000724e-12,6.98449163127498e-13)
(1.17920980503528e-11,3.25738436715855e-13,1.32852891579617e-12)
(1.55108848634221e-11,-1.01888050669009e-12,2.25390664492795e-12)
(1.67557300668791e-11,-2.80495476043082e-12,3.94672498439341e-12)
(1.7168087720804e-11,-6.90899211825205e-12,5.85736660086434e-12)
(1.854654927303e-11,-1.49715888186916e-11,7.60927598541968e-12)
(1.95582123321795e-11,-2.79436434323393e-11,7.09506268249541e-12)
(2.01487948987392e-11,-4.79772379772198e-11,4.91886634262825e-12)
(2.04355551811888e-11,-9.21288456986987e-11,2.50993255269501e-12)
(0,0,0)
(0,0,0)
(0,0,0)
(0,0,0)
(0,0,0)
(0,0,0)
(4.43001245958374e-12,6.57477699453879e-13,5.62075958610116e-12)
(8.10008237345264e-12,4.25274360173526e-13,5.4879212766525e-12)
(1.24129125032643e-11,-4.77446504532766e-13,5.420367455489e-12)
(1.55602484470645e-11,-2.26614348488403e-12,6.26972040846097e-12)
(1.6325438111082e-11,-3.95796059063802e-12,7.48638414396626e-12)
(1.65075106748575e-11,-7.30419831816321e-12,8.99169379779202e-12)
(1.7391118897721e-11,-1.52917295293008e-11,1.0615367307681e-11)
(1.77083666461075e-11,-2.74169300987525e-11,9.75870645645004e-12)
(1.8011051887023e-11,-4.68028712027848e-11,7.33121259469485e-12)
(1.84595895647978e-11,-9.08033376046844e-11,4.18885613216046e-12)
(0,0,0)
(0,0,0)
(0,0,0)
(0,0,0)
(0,0,0)
(0,0,0)
(4.84444282305355e-12,8.10936596978286e-13,1.13614577720898e-11)
(8.78888536892287e-12,3.8675644550159e-13,1.14955210154058e-11)
(1.20154649757795e-11,-7.75437333117348e-13,1.14649751493911e-11)
(1.38723501600359e-11,-2.74326899944499e-12,1.2155756428485e-11)
(1.45871901748133e-11,-4.35040568081366e-12,1.24401726715254e-11)
(1.52159377568667e-11,-7.11811180278315e-12,1.3361321551233e-11)
(1.58450065427738e-11,-1.52786056983645e-11,1.45614379424239e-11)
(1.61422901182761e-11,-2.66432325750617e-11,1.37727139497593e-11)
(1.66709344789569e-11,-4.49136178134128e-11,1.05972107419501e-11)
(1.77189566299336e-11,-8.796043310383e-11,5.81289760547193e-12)
(0,0,0)
(0,0,0)
(0,0,0)
(0,0,0)
(0,0,0)
(0,0,0)
(3.65160203937643e-12,1.05856990666613e-12,2.12003989911351e-11)
(7.49057623851968e-12,7.16535823128318e-13,2.10419304371802e-11)
(1.02755387506784e-11,-5.87287920700191e-13,2.05139579105842e-11)
(1.15404698365094e-11,-2.32002735332577e-12,2.0587645221879e-11)
(1.21255206474263e-11,-3.9773810114933e-12,2.06258600674162e-11)
(1.29589513232456e-11,-6.66803510564443e-12,2.1470939130938e-11)
(1.43414613173883e-11,-1.34304845266522e-11,2.19565252953758e-11)
(1.56898647341263e-11,-2.34540973332516e-11,2.02062320812366e-11)
(1.67266293777603e-11,-4.03538050145045e-11,1.58705388727338e-11)
(1.73992370468578e-11,-8.23103353728701e-11,9.10811709695679e-12)
(0,0,0)
(0,0,0)
(0,0,0)
(0,0,0)
(0,0,0)
(0,0,0)
(2.38021110751238e-12,1.03367810241041e-12,4.10491628455691e-11)
(5.04645846519761e-12,6.5428888735636e-13,4.11602706235203e-11)
(7.05164604963363e-12,-5.49997559842552e-13,4.07273399591347e-11)
(8.69095010408141e-12,-1.87915388158287e-12,4.05816914252915e-11)
(1.04072628694455e-11,-3.41684366576145e-12,3.99949292368159e-11)
(1.18914352911161e-11,-5.63586195818651e-12,3.97664980835119e-11)
(1.40232173089697e-11,-1.02739910451075e-11,3.91667821205345e-11)
(1.57301905026959e-11,-1.80203120730443e-11,3.66123251552428e-11)
(1.60865736091658e-11,-3.29213686301031e-11,3.08416509219494e-11)
(1.61772087605591e-11,-7.2879525607922e-11,1.94472834097998e-11)
(0,0,0)
(0,0,0)
(0,0,0)
(0,0,0)
(0,0,0)
(0,0,0)
(1.70307831031195e-12,7.67521846842653e-13,8.4506867143934e-11)
(3.89657060066263e-12,2.78705075708665e-13,8.52423986987175e-11)
(5.12907741154749e-12,-4.48018321790308e-13,8.48879840326802e-11)
(6.31362941753429e-12,-8.65069897278207e-13,8.43467949922104e-11)
(9.05525710087064e-12,-1.92977052175835e-12,8.37128764942914e-11)
(1.14960441467218e-11,-3.56736138023314e-12,8.31641251400806e-11)
(1.44404026260794e-11,-5.85117807225516e-12,8.16486583565359e-11)
(1.62345571736516e-11,-1.01571874310586e-11,7.8343736424607e-11)
(1.55783075837503e-11,-2.01090552858613e-11,7.07339181678147e-11)
(1.51835325523663e-11,-5.28285622629187e-11,5.21912710317491e-11)
(0,0,0)
(0,0,0)
(0,0,0)
(0,0,0)
(0,0,0)
(0,0,0)
(0,0,0)
(0,0,0)
(0,0,0)
(0,0,0)
(0,0,0)
(0,0,0)
(0,0,0)
(0,0,0)
(0,0,0)
(0,0,0)
(0,0,0)
(0,0,0)
(0,0,0)
(0,0,0)
(0,0,0)
(0,0,0)
(0,0,0)
(0,0,0)
(0,0,0)
(0,0,0)
(0,0,0)
(0,0,0)
(0,0,0)
(0,0,0)
(0,0,0)
(0,0,0)
(0,0,0)
(0,0,0)
(0,0,0)
(0,0,0)
(0,0,0)
(0,0,0)
(0,0,0)
(0,0,0)
(0,0,0)
(0,0,0)
(0,0,0)
(0,0,0)
(0,0,0)
(0,0,0)
(0,0,0)
(0,0,0)
(0,0,0)
(0,0,0)
(0,0,0)
(0,0,0)
(0,0,0)
(0,0,0)
(0,0,0)
(0,0,0)
(0,0,0)
(0,0,0)
(0,0,0)
(0,0,0)
(0,0,0)
(0,0,0)
(0,0,0)
(0,0,0)
(0,0,0)
(0,0,0)
(0,0,0)
(0,0,0)
(0,0,0)
(0,0,0)
(0,0,0)
(0,0,0)
(0,0,0)
(0,0,0)
(0,0,0)
(0,0,0)
(0,0,0)
(0,0,0)
(0,0,0)
(0,0,0)
(0,0,0)
(0,0,0)
(0,0,0)
(0,0,0)
(0,0,0)
(0,0,0)
(0,0,0)
(0,0,0)
(0,0,0)
(0,0,0)
(0,0,0)
(0,0,0)
(0,0,0)
(0,0,0)
(0,0,0)
(0,0,0)
(0,0,0)
(0,0,0)
(0,0,0)
(0,0,0)
(0,0,0)
(0,0,0)
(4.26603053699396e-13,2.93057757013492e-13,7.20465389332545e-13)
(1.46069596678744e-12,8.03107560845752e-13,6.80049238847174e-13)
(2.29537603846383e-12,4.1968015928935e-13,3.80292017037417e-13)
(2.988384638029e-12,-2.30922493703938e-12,5.51682478845837e-13)
(4.12181598244016e-12,-5.91481765481584e-12,7.10861228590557e-13)
(5.24322489320584e-12,-1.24171945464634e-11,8.85902284618823e-13)
(5.99671716395923e-12,-2.05519830716062e-11,1.06887824473997e-12)
(7.05232070715452e-12,-3.17436712219324e-11,1.2432596773416e-12)
(7.34752973032337e-12,-4.76165922962168e-11,1.31157448234907e-12)
(6.35656999303512e-12,-6.51835832571866e-11,8.91793121351263e-13)
(0,0,0)
(0,0,0)
(0,0,0)
(0,0,0)
(0,0,0)
(0,0,0)
(8.03389782981337e-13,4.66138189690395e-13,9.58590331958426e-13)
(2.73804927888746e-12,1.2084911863804e-12,8.40836497507506e-13)
(4.51211950908565e-12,4.54605456271919e-13,7.42390303779145e-13)
(6.10300210261401e-12,-1.67523506586602e-12,6.8360350161341e-13)
(7.72050108117999e-12,-5.01391148352032e-12,8.06920874979717e-13)
(9.37331598852918e-12,-1.14803053729856e-11,1.35690376456572e-12)
(1.09622274252079e-11,-1.97848608370512e-11,1.86295021384192e-12)
(1.24407240160281e-11,-3.11088213469532e-11,2.21380678203326e-12)
(1.31319964624461e-11,-4.66971953638406e-11,2.27235856839069e-12)
(1.26020859458659e-11,-6.43343604351548e-11,1.44481334362564e-12)
(0,0,0)
(0,0,0)
(0,0,0)
(0,0,0)
(0,0,0)
(0,0,0)
(1.86095249721465e-12,4.65578316494055e-13,2.33637975755261e-13)
(4.38384650406909e-12,1.25461766460368e-12,1.53811854828508e-14)
(7.56352530391901e-12,5.62616539447032e-13,-2.67668906424942e-13)
(1.03624384457615e-11,-8.81578626642274e-13,-2.83439981500009e-13)
(1.16767897208258e-11,-3.98392249294707e-12,9.32858252455664e-13)
(1.27925878037012e-11,-1.00612358895636e-11,2.58794307236554e-12)
(1.48552773424531e-11,-1.85249418542628e-11,3.38917343658656e-12)
(1.69751298351811e-11,-3.03726124935269e-11,3.41337708630103e-12)
(1.79487089751904e-11,-4.53120564744948e-11,3.07119967222057e-12)
(1.78656429261476e-11,-6.29526034555016e-11,1.96767004542678e-12)
(0,0,0)
(0,0,0)
(0,0,0)
(0,0,0)
(0,0,0)
(0,0,0)
(3.32440361757992e-12,5.01782438904992e-13,-5.58594742436836e-13)
(6.05228979299764e-12,1.72452187466109e-12,-6.55736634384763e-13)
(9.46574759144958e-12,9.62008035911489e-13,-4.59870835035862e-13)
(1.27289475196547e-11,-7.72721779333644e-13,-1.76120198362902e-14)
(1.42226012679944e-11,-3.53252744259031e-12,1.8512810246449e-12)
(1.50077776073927e-11,-8.48752322680991e-12,4.11367923422213e-12)
(1.77444963369861e-11,-1.68568940013068e-11,6.03786803772768e-12)
(2.00744761538897e-11,-3.02402365105993e-11,5.47321383815132e-12)
(2.04374204540826e-11,-4.46310229161643e-11,3.70573277859131e-12)
(2.01501096065336e-11,-6.13571323178251e-11,1.86122788317377e-12)
(0,0,0)
(0,0,0)
(0,0,0)
(0,0,0)
(0,0,0)
(0,0,0)
(4.29559421489336e-12,1.20400233384273e-13,2.87835816016335e-12)
(7.69896105047533e-12,1.08875206427671e-12,1.88020526396903e-12)
(1.16699052621556e-11,6.07855578172489e-13,1.53799531227334e-12)
(1.50653295018031e-11,-1.0887070084659e-12,2.28258394691414e-12)
(1.59980942817765e-11,-3.37641099453448e-12,4.70891857819711e-12)
(1.5811384535587e-11,-7.62078996886579e-12,7.65816481168799e-12)
(1.93809032861255e-11,-1.61276326156685e-11,1.31724232991014e-11)
(2.12076953375996e-11,-3.14135708318161e-11,1.04029945756917e-11)
(2.13833619159448e-11,-4.45705630571268e-11,6.13132783923016e-12)
(2.16199796394273e-11,-6.02152442836031e-11,2.62837974958455e-12)
(0,0,0)
(0,0,0)
(0,0,0)
(0,0,0)
(0,0,0)
(0,0,0)
(4.40939187234646e-12,5.20046028257258e-13,7.93561504824757e-12)
(8.20615410895243e-12,7.15672025781566e-13,7.14259407571719e-12)
(1.18615503783159e-11,1.21891249822776e-13,6.37311778898266e-12)
(1.48207102274305e-11,-1.65026589129371e-12,7.03100064733059e-12)
(1.52125735464822e-11,-3.33991910263758e-12,8.98003739950796e-12)
(1.46977506497056e-11,-6.8347916930137e-12,1.14459250886877e-11)
(1.82346559182025e-11,-1.71362605409679e-11,1.70080621841744e-11)
(1.93621629837526e-11,-3.14624468482896e-11,1.39077058317665e-11)
(1.9264154960558e-11,-4.34167394262446e-11,9.04198134650855e-12)
(1.98055411955412e-11,-5.86393364706342e-11,4.38229222365729e-12)
(0,0,0)
(0,0,0)
(0,0,0)
(0,0,0)
(0,0,0)
(0,0,0)
(4.46274627048966e-12,1.21046585789195e-12,1.40250094124154e-11)
(8.48965185693973e-12,1.31109785614159e-12,1.36567941430502e-11)
(1.11365342840213e-11,9.79367805335431e-14,1.31538517856897e-11)
(1.31646922711601e-11,-2.10569352643564e-12,1.35023930807059e-11)
(1.32930166261103e-11,-3.42960725578978e-12,1.45315109274927e-11)
(1.3565744668014e-11,-6.0064864814356e-12,1.62835615577349e-11)
(1.47856093641962e-11,-1.95567291256854e-11,1.76626889155233e-11)
(1.61286580835151e-11,-3.12221664152931e-11,1.67727317066656e-11)
(1.68954348169267e-11,-4.14891733710766e-11,1.20968981279743e-11)
(1.78817565044456e-11,-5.58734644319891e-11,6.23711534319842e-12)
(0,0,0)
(0,0,0)
(0,0,0)
(0,0,0)
(0,0,0)
(0,0,0)
(3.83496239801458e-12,1.80305439707197e-12,2.34494703638975e-11)
(8.08079570054066e-12,1.8084200447582e-12,2.2857641071205e-11)
(1.01645610782399e-11,1.90103970526133e-13,2.21319063587347e-11)
(1.10613815199331e-11,-2.04557486178555e-12,2.2005356379355e-11)
(1.07199042380975e-11,-3.66213071153075e-12,2.22183056174026e-11)
(1.14411920112171e-11,-6.34970183271283e-12,2.31336845928913e-11)
(1.29352610500461e-11,-1.5622190010962e-11,2.37639105888797e-11)
(1.45917726815497e-11,-2.54129542495648e-11,2.16460969027495e-11)
(1.60566147695776e-11,-3.59448345021925e-11,1.64683695201341e-11)
(1.7076544379165e-11,-4.99616631405124e-11,8.94151485082919e-12)
(0,0,0)
(0,0,0)
(0,0,0)
(0,0,0)
(0,0,0)
(0,0,0)
(2.53525958482832e-12,1.98670150726114e-12,3.70576573980668e-11)
(5.85497294088032e-12,1.85796619383416e-12,3.68448528114537e-11)
(7.09531534562446e-12,2.4876374109908e-13,3.65093522299622e-11)
(8.26362830850499e-12,-1.62929172437378e-12,3.62815371313271e-11)
(9.14862087933552e-12,-3.42974344553567e-12,3.52277154770379e-11)
(1.04226506760847e-11,-5.45008062898714e-12,3.45752449960245e-11)
(1.21548613009798e-11,-1.08349172251974e-11,3.41495644940558e-11)
(1.36377400933788e-11,-1.82137800094145e-11,3.16153296140607e-11)
(1.46686277774381e-11,-2.74929571185451e-11,2.52536655837999e-11)
(1.55735288252739e-11,-4.02652365728627e-11,1.45872862388538e-11)
(0,0,0)
(0,0,0)
(0,0,0)
(0,0,0)
(0,0,0)
(0,0,0)
(1.73506860189309e-12,1.15963566237624e-12,5.27978557174856e-11)
(4.52969034189289e-12,8.65721204809755e-13,5.30930510632187e-11)
(5.2222481307674e-12,-2.55670125942099e-14,5.28525167557196e-11)
(6.08247801746163e-12,-6.55078139755353e-13,5.20697983669111e-11)
(7.67423793400497e-12,-1.84333623712691e-12,5.05790776304941e-11)
(9.44414954976707e-12,-3.32226610681273e-12,4.96566955339619e-11)
(1.18941464860163e-11,-5.709335493927e-12,4.83904566146186e-11)
(1.36871879985017e-11,-9.60682348868017e-12,4.53853302057246e-11)
(1.40118994341515e-11,-1.55068392770327e-11,3.80782204811549e-11)