/*--------------------------------*- C++ -*----------------------------------*\
| =========                 |                                                 |
| \\      /  F ield         | foam-extend: Open Source CFD                    |
|  \\    /   O peration     | Version:     4.0                                |
|   \\  /    A nd           | Web:         http://www.foam-extend.org         |
|    \\/     M anipulation  |                                                 |
\*---------------------------------------------------------------------------*/
FoamFile
{
    version 2.0;
    format ascii;
    class volVectorField;
    location "726";
    object      H;
}
// * * * * * * * * * * * * * * * * * * * * * * * * * * * * * * * * * * * * * //

dimensions      [0 1 -1 0 0 0 0];

internalField   nonuniform List<vector>
4096
(
(0,0,0)
(0,0,0)
(0,0,0)
(0,0,0)
(0,0,0)
(0,0,0)
(0,0,0)
(0,0,0)
(0,0,0)
(0,0,0)
(0,0,0)
(0,0,0)
(0,0,0)
(0,0,0)
(0,0,0)
(0,0,0)
(0,0,0)
(0,0,0)
(0,0,0)
(0,0,0)
(0,0,0)
(0,0,0)
(0,0,0)
(0,0,0)
(0,0,0)
(0,0,0)
(0,0,0)
(0,0,0)
(0,0,0)
(0,0,0)
(0,0,0)
(0,0,0)
(0,0,0)
(0,0,0)
(0,0,0)
(0,0,0)
(0,0,0)
(0,0,0)
(0,0,0)
(0,0,0)
(0,0,0)
(0,0,0)
(0,0,0)
(0,0,0)
(0,0,0)
(0,0,0)
(0,0,0)
(0,0,0)
(0,0,0)
(0,0,0)
(0,0,0)
(0,0,0)
(0,0,0)
(0,0,0)
(0,0,0)
(0,0,0)
(0,0,0)
(0,0,0)
(0,0,0)
(0,0,0)
(0,0,0)
(0,0,0)
(0,0,0)
(0,0,0)
(0,0,0)
(0,0,0)
(0,0,0)
(0,0,0)
(0,0,0)
(0,0,0)
(0,0,0)
(0,0,0)
(0,0,0)
(0,0,0)
(0,0,0)
(0,0,0)
(0,0,0)
(0,0,0)
(0,0,0)
(0,0,0)
(0,0,0)
(0,0,0)
(0,0,0)
(0,0,0)
(0,0,0)
(0,0,0)
(0,0,0)
(0,0,0)
(0,0,0)
(0,0,0)
(0,0,0)
(0,0,0)
(0,0,0)
(0,0,0)
(0,0,0)
(0,0,0)
(0,0,0)
(0,0,0)
(0,0,0)
(0,0,0)
(0,0,0)
(0,0,0)
(0,0,0)
(0,0,0)
(0,0,0)
(0,0,0)
(0,0,0)
(0,0,0)
(0,0,0)
(0,0,0)
(0,0,0)
(0,0,0)
(0,0,0)
(0,0,0)
(0,0,0)
(0,0,0)
(0,0,0)
(0,0,0)
(0,0,0)
(0,0,0)
(0,0,0)
(0,0,0)
(0,0,0)
(0,0,0)
(0,0,0)
(0,0,0)
(0,0,0)
(0,0,0)
(0,0,0)
(0,0,0)
(0,0,0)
(0,0,0)
(0,0,0)
(0,0,0)
(0,0,0)
(0,0,0)
(0,0,0)
(0,0,0)
(0,0,0)
(0,0,0)
(0,0,0)
(0,0,0)
(0,0,0)
(0,0,0)
(0,0,0)
(0,0,0)
(0,0,0)
(0,0,0)
(0,0,0)
(0,0,0)
(0,0,0)
(0,0,0)
(0,0,0)
(0,0,0)
(0,0,0)
(0,0,0)
(0,0,0)
(0,0,0)
(0,0,0)
(0,0,0)
(0,0,0)
(0,0,0)
(0,0,0)
(0,0,0)
(0,0,0)
(0,0,0)
(0,0,0)
(0,0,0)
(0,0,0)
(0,0,0)
(0,0,0)
(0,0,0)
(0,0,0)
(0,0,0)
(0,0,0)
(0,0,0)
(0,0,0)
(0,0,0)
(0,0,0)
(0,0,0)
(0,0,0)
(0,0,0)
(0,0,0)
(0,0,0)
(0,0,0)
(0,0,0)
(0,0,0)
(0,0,0)
(0,0,0)
(0,0,0)
(0,0,0)
(0,0,0)
(0,0,0)
(0,0,0)
(0,0,0)
(0,0,0)
(0,0,0)
(0,0,0)
(0,0,0)
(0,0,0)
(0,0,0)
(0,0,0)
(0,0,0)
(0,0,0)
(0,0,0)
(0,0,0)
(0,0,0)
(0,0,0)
(0,0,0)
(0,0,0)
(0,0,0)
(0,0,0)
(0,0,0)
(0,0,0)
(0,0,0)
(0,0,0)
(0,0,0)
(0,0,0)
(0,0,0)
(0,0,0)
(0,0,0)
(0,0,0)
(0,0,0)
(0,0,0)
(0,0,0)
(0,0,0)
(0,0,0)
(0,0,0)
(0,0,0)
(0,0,0)
(0,0,0)
(0,0,0)
(0,0,0)
(0,0,0)
(0,0,0)
(0,0,0)
(0,0,0)
(0,0,0)
(0,0,0)
(0,0,0)
(0,0,0)
(0,0,0)
(0,0,0)
(0,0,0)
(0,0,0)
(0,0,0)
(0,0,0)
(0,0,0)
(0,0,0)
(0,0,0)
(0,0,0)
(0,0,0)
(0,0,0)
(0,0,0)
(0,0,0)
(0,0,0)
(0,0,0)
(0,0,0)
(0,0,0)
(0,0,0)
(0,0,0)
(0,0,0)
(0,0,0)
(0,0,0)
(0,0,0)
(0,0,0)
(0,0,0)
(0,0,0)
(0,0,0)
(0,0,0)
(0,0,0)
(0,0,0)
(0,0,0)
(0,0,0)
(0,0,0)
(0,0,0)
(0,0,0)
(0,0,0)
(0,0,0)
(0,0,0)
(0,0,0)
(0,0,0)
(0,0,0)
(0,0,0)
(0,0,0)
(0,0,0)
(0,0,0)
(0,0,0)
(0,0,0)
(0,0,0)
(0,0,0)
(0,0,0)
(0,0,0)
(0,0,0)
(0,0,0)
(0,0,0)
(0,0,0)
(0,0,0)
(0,0,0)
(0,0,0)
(0,0,0)
(0,0,0)
(0,0,0)
(0,0,0)
(0,0,0)
(0,0,0)
(0,0,0)
(0,0,0)
(0,0,0)
(0,0,0)
(0,0,0)
(0,0,0)
(0,0,0)
(0,0,0)
(0,0,0)
(0,0,0)
(0,0,0)
(0,0,0)
(0,0,0)
(0,0,0)
(0,0,0)
(0,0,0)
(0,0,0)
(0,0,0)
(0,0,0)
(0,0,0)
(0,0,0)
(0,0,0)
(0,0,0)
(0,0,0)
(0,0,0)
(0,0,0)
(0,0,0)
(0,0,0)
(0,0,0)
(0,0,0)
(0,0,0)
(0,0,0)
(0,0,0)
(0,0,0)
(0,0,0)
(0,0,0)
(0,0,0)
(0,0,0)
(0,0,0)
(0,0,0)
(0,0,0)
(0,0,0)
(0,0,0)
(0,0,0)
(0,0,0)
(0,0,0)
(0,0,0)
(0,0,0)
(0,0,0)
(0,0,0)
(0,0,0)
(0,0,0)
(0,0,0)
(0,0,0)
(0,0,0)
(0,0,0)
(0,0,0)
(0,0,0)
(0,0,0)
(0,0,0)
(0,0,0)
(0,0,0)
(0,0,0)
(0,0,0)
(0,0,0)
(0,0,0)
(0,0,0)
(0,0,0)
(0,0,0)
(0,0,0)
(0,0,0)
(0,0,0)
(0,0,0)
(0,0,0)
(0,0,0)
(0,0,0)
(0,0,0)
(0,0,0)
(0,0,0)
(0,0,0)
(0,0,0)
(0,0,0)
(0,0,0)
(0,0,0)
(0,0,0)
(0,0,0)
(0,0,0)
(0,0,0)
(0,0,0)
(0,0,0)
(0,0,0)
(0,0,0)
(0,0,0)
(0,0,0)
(0,0,0)
(0,0,0)
(0,0,0)
(0,0,0)
(0,0,0)
(0,0,0)
(0,0,0)
(0,0,0)
(0,0,0)
(0,0,0)
(0,0,0)
(0,0,0)
(0,0,0)
(0,0,0)
(0,0,0)
(0,0,0)
(0,0,0)
(0,0,0)
(0,0,0)
(0,0,0)
(0,0,0)
(0,0,0)
(0,0,0)
(0,0,0)
(0,0,0)
(0,0,0)
(0,0,0)
(0,0,0)
(0,0,0)
(0,0,0)
(0,0,0)
(0,0,0)
(0,0,0)
(0,0,0)
(0,0,0)
(0,0,0)
(0,0,0)
(0,0,0)
(0,0,0)
(0,0,0)
(0,0,0)
(0,0,0)
(0,0,0)
(0,0,0)
(0,0,0)
(0,0,0)
(0,0,0)
(0,0,0)
(0,0,0)
(0,0,0)
(0,0,0)
(0,0,0)
(0,0,0)
(0,0,0)
(0,0,0)
(0,0,0)
(0,0,0)
(0,0,0)
(0,0,0)
(0,0,0)
(0,0,0)
(0,0,0)
(0,0,0)
(0,0,0)
(0,0,0)
(0,0,0)
(0,0,0)
(0,0,0)
(0,0,0)
(0,0,0)
(0,0,0)
(0,0,0)
(0,0,0)
(0,0,0)
(0,0,0)
(0,0,0)
(0,0,0)
(0,0,0)
(0,0,0)
(0,0,0)
(0,0,0)
(0,0,0)
(0,0,0)
(0,0,0)
(0,0,0)
(0,0,0)
(0,0,0)
(0,0,0)
(0,0,0)
(0,0,0)
(0,0,0)
(0,0,0)
(0,0,0)
(0,0,0)
(0,0,0)
(0,0,0)
(0,0,0)
(0,0,0)
(0,0,0)
(0,0,0)
(0,0,0)
(0,0,0)
(0,0,0)
(0,0,0)
(0,0,0)
(0,0,0)
(0,0,0)
(0,0,0)
(0,0,0)
(0,0,0)
(0,0,0)
(0,0,0)
(0,0,0)
(0,0,0)
(0,0,0)
(0,0,0)
(0,0,0)
(0,0,0)
(0,0,0)
(0,0,0)
(0,0,0)
(0,0,0)
(0,0,0)
(0,0,0)
(0,0,0)
(0,0,0)
(0,0,0)
(0,0,0)
(0,0,0)
(0,0,0)
(0,0,0)
(0,0,0)
(0,0,0)
(0,0,0)
(0,0,0)
(0,0,0)
(0,0,0)
(0,0,0)
(0,0,0)
(0,0,0)
(0,0,0)
(0,0,0)
(0,0,0)
(0,0,0)
(0,0,0)
(0,0,0)
(0,0,0)
(0,0,0)
(0,0,0)
(0,0,0)
(0,0,0)
(0,0,0)
(0,0,0)
(0,0,0)
(0,0,0)
(0,0,0)
(0,0,0)
(0,0,0)
(0,0,0)
(0,0,0)
(0,0,0)
(0,0,0)
(0,0,0)
(0,0,0)
(0,0,0)
(0,0,0)
(0,0,0)
(0,0,0)
(0,0,0)
(0,0,0)
(0,0,0)
(0,0,0)
(0,0,0)
(0,0,0)
(0,0,0)
(0,0,0)
(0,0,0)
(0,0,0)
(0,0,0)
(0,0,0)
(0,0,0)
(0,0,0)
(0,0,0)
(0,0,0)
(0,0,0)
(0,0,0)
(0,0,0)
(0,0,0)
(0,0,0)
(0,0,0)
(0,0,0)
(0,0,0)
(0,0,0)
(0,0,0)
(0,0,0)
(0,0,0)
(0,0,0)
(0,0,0)
(0,0,0)
(0,0,0)
(0,0,0)
(0,0,0)
(0,0,0)
(0,0,0)
(0,0,0)
(0,0,0)
(0,0,0)
(0,0,0)
(0,0,0)
(0,0,0)
(0,0,0)
(0,0,0)
(0,0,0)
(0,0,0)
(0,0,0)
(0,0,0)
(0,0,0)
(0,0,0)
(0,0,0)
(0,0,0)
(0,0,0)
(0,0,0)
(0,0,0)
(0,0,0)
(0,0,0)
(0,0,0)
(0,0,0)
(0,0,0)
(0,0,0)
(0,0,0)
(0,0,0)
(0,0,0)
(0,0,0)
(0,0,0)
(0,0,0)
(0,0,0)
(0,0,0)
(0,0,0)
(0,0,0)
(0,0,0)
(0,0,0)
(0,0,0)
(0,0,0)
(0,0,0)
(0,0,0)
(0,0,0)
(0,0,0)
(0,0,0)
(0,0,0)
(0,0,0)
(0,0,0)
(0,0,0)
(0,0,0)
(0,0,0)
(0,0,0)
(0,0,0)
(0,0,0)
(0,0,0)
(0,0,0)
(0,0,0)
(0,0,0)
(0,0,0)
(0,0,0)
(0,0,0)
(0,0,0)
(0,0,0)
(0,0,0)
(0,0,0)
(0,0,0)
(0,0,0)
(0,0,0)
(0,0,0)
(0,0,0)
(0,0,0)
(0,0,0)
(0,0,0)
(0,0,0)
(0,0,0)
(0,0,0)
(0,0,0)
(0,0,0)
(0,0,0)
(0,0,0)
(0,0,0)
(0,0,0)
(0,0,0)
(0,0,0)
(0,0,0)
(0,0,0)
(0,0,0)
(0,0,0)
(0,0,0)
(0,0,0)
(0,0,0)
(0,0,0)
(0,0,0)
(0,0,0)
(0,0,0)
(0,0,0)
(0,0,0)
(0,0,0)
(0,0,0)
(0,0,0)
(0,0,0)
(0,0,0)
(0,0,0)
(0,0,0)
(0,0,0)
(0,0,0)
(0,0,0)
(0,0,0)
(0,0,0)
(0,0,0)
(0,0,0)
(0,0,0)
(0,0,0)
(0,0,0)
(0,0,0)
(0,0,0)
(0,0,0)
(0,0,0)
(0,0,0)
(0,0,0)
(0,0,0)
(0,0,0)
(0,0,0)
(0,0,0)
(0,0,0)
(0,0,0)
(0,0,0)
(0,0,0)
(0,0,0)
(0,0,0)
(0,0,0)
(0,0,0)
(0,0,0)
(0,0,0)
(0,0,0)
(0,0,0)
(0,0,0)
(0,0,0)
(0,0,0)
(0,0,0)
(0,0,0)
(0,0,0)
(0,0,0)
(0,0,0)
(0,0,0)
(0,0,0)
(0,0,0)
(0,0,0)
(0,0,0)
(0,0,0)
(0,0,0)
(0,0,0)
(0,0,0)
(0,0,0)
(0,0,0)
(0,0,0)
(0,0,0)
(0,0,0)
(0,0,0)
(0,0,0)
(0,0,0)
(0,0,0)
(0,0,0)
(0,0,0)
(0,0,0)
(0,0,0)
(0,0,0)
(0,0,0)
(0,0,0)
(0,0,0)
(0,0,0)
(0,0,0)
(0,0,0)
(0,0,0)
(0,0,0)
(0,0,0)
(0,0,0)
(0,0,0)
(0,0,0)
(0,0,0)
(0,0,0)
(0,0,0)
(0,0,0)
(0,0,0)
(0,0,0)
(0,0,0)
(0,0,0)
(0,0,0)
(0,0,0)
(0,0,0)
(0,0,0)
(0,0,0)
(0,0,0)
(0,0,0)
(0,0,0)
(0,0,0)
(0,0,0)
(0,0,0)
(0,0,0)
(0,0,0)
(0,0,0)
(0,0,0)
(0,0,0)
(0,0,0)
(0,0,0)
(0,0,0)
(0,0,0)
(0,0,0)
(0,0,0)
(0,0,0)
(0,0,0)
(0,0,0)
(0,0,0)
(0,0,0)
(0,0,0)
(0,0,0)
(-1.01710441348939e-12,-1.4744627838575e-11,1.60406043503519e-11)
(-1.53278636496226e-12,-3.10248013000875e-11,1.50912617138729e-11)
(-1.59858783425399e-12,-5.02869582374076e-11,1.3468487466575e-11)
(-7.34575483990708e-13,-7.69149246303157e-11,1.1410908197766e-11)
(6.73913343767257e-13,-1.17704635038856e-10,8.87673816978391e-12)
(1.84789722070317e-12,-1.82501928563908e-10,5.95188154144577e-12)
(4.0688152742138e-12,-2.88263684221616e-10,2.86863562489826e-12)
(4.00260170739121e-12,-4.64064846880591e-10,1.21255398436989e-12)
(3.71135065628557e-12,-7.55399646986913e-10,4.36974699914447e-13)
(3.57000439192954e-12,-1.16216108543764e-09,2.06924253467042e-13)
(0,0,0)
(0,0,0)
(0,0,0)
(0,0,0)
(0,0,0)
(0,0,0)
(-1.20392743027665e-12,-1.36363284747963e-11,3.31694310063727e-11)
(-1.66388812171062e-12,-2.91647979488237e-11,3.17939744455774e-11)
(-2.37738063887885e-12,-4.83560420771541e-11,2.92388099289251e-11)
(-2.10299909408001e-12,-7.49414959998753e-11,2.54181340704299e-11)
(4.52253668443287e-14,-1.15226222220889e-10,2.01504299313261e-11)
(2.38230372880881e-12,-1.79922669667653e-10,1.39122569991321e-11)
(5.8516480586098e-12,-2.86839348869954e-10,7.97904634979911e-12)
(6.30491090232179e-12,-4.6391625403835e-10,4.48883010435627e-12)
(6.24303799734432e-12,-7.55723271328592e-10,2.5390712179073e-12)
(6.11187691917105e-12,-1.16208838068528e-09,1.17215287178236e-12)
(0,0,0)
(0,0,0)
(0,0,0)
(0,0,0)
(0,0,0)
(0,0,0)
(-8.00287395203058e-13,-1.24298872344196e-11,5.3521155921125e-11)
(-1.28157665487295e-12,-2.61131545729271e-11,5.18067621517186e-11)
(-2.63689656905311e-12,-4.40167119867013e-11,4.87321894400463e-11)
(-2.6498148830879e-12,-6.98329518132502e-11,4.34870569144013e-11)
(-6.2920117961319e-14,-1.0931653380267e-10,3.5852858824422e-11)
(1.97176897389496e-12,-1.74230148467708e-10,2.66367945228756e-11)
(5.24312202828274e-12,-2.83236900587902e-10,1.79914739229283e-11)
(6.98925904929964e-12,-4.62823500392231e-10,1.22667183319494e-11)
(7.05127179229967e-12,-7.55552521026194e-10,8.15285016639679e-12)
(7.27265504518692e-12,-1.16147459678828e-09,3.93389576683619e-12)
(0,0,0)
(0,0,0)
(0,0,0)
(0,0,0)
(0,0,0)
(0,0,0)
(-2.34036880928978e-13,-1.07572892917478e-11,8.12814524606829e-11)
(-7.12884124215713e-13,-2.22588867742104e-11,7.92480640749632e-11)
(-1.50641349967995e-12,-3.7717048468225e-11,7.57012450826521e-11)
(-1.44648386139776e-12,-6.15288585435942e-11,6.97087008363271e-11)
(7.65999292498449e-13,-9.94200979902424e-11,6.09046987842709e-11)
(1.34754114334462e-12,-1.64465692555783e-10,5.03466778798019e-11)
(3.30811005320538e-12,-2.76382462742931e-10,3.95037800814953e-11)
(5.58978210158977e-12,-4.5950797738649e-10,3.0171232692814e-11)
(5.89345575227036e-12,-7.53162833262969e-10,2.09918962025322e-11)
(5.27329232613377e-12,-1.15894026963185e-09,1.07709221531745e-11)
(0,0,0)
(0,0,0)
(0,0,0)
(0,0,0)
(0,0,0)
(0,0,0)
(-3.8199176025611e-13,-8.64539501137973e-12,1.22472294095564e-10)
(-1.01936622859631e-13,-1.7891527432885e-11,1.20643417935534e-10)
(-7.56553799347768e-14,-3.03241684590923e-11,1.1689397646982e-10)
(-4.17666336482546e-13,-5.09844493259189e-11,1.1078759112517e-10)
(1.02909829694273e-12,-8.63689380795994e-11,1.02278283223938e-10)
(1.00764715017387e-12,-1.50460938672199e-10,9.22056115599303e-11)
(2.37193266447288e-12,-2.6445646864752e-10,8.04882535953761e-11)
(3.27506542610288e-12,-4.50809431935232e-10,6.46012534290272e-11)
(3.51650662736101e-12,-7.44553767933978e-10,4.55206769904387e-11)
(2.65251925565203e-12,-1.14982629762551e-09,2.3553851698498e-11)
(0,0,0)
(0,0,0)
(0,0,0)
(0,0,0)
(0,0,0)
(0,0,0)
(-6.58408563183199e-13,-6.62227291166843e-12,1.85537258272286e-10)
(6.49887150662417e-13,-1.37755027654761e-11,1.83751345194563e-10)
(1.57656633001209e-12,-2.35146902363072e-11,1.80225205152173e-10)
(1.61730515510723e-12,-4.09627616554631e-11,1.74937489413272e-10)
(1.75426687007099e-12,-7.31704426876623e-11,1.67365174550911e-10)
(6.0300897232258e-13,-1.35116993555058e-10,1.57117011343818e-10)
(-5.60871396714182e-14,-2.49508286569401e-10,1.42220212882125e-10)
(-1.13790262706622e-12,-4.33889350170358e-10,1.19345565993958e-10)
(-1.27086711751449e-12,-7.2443684490725e-10,8.68332624617932e-11)
(-2.52229883522036e-12,-1.12769950418148e-09,4.61261496857051e-11)
(0,0,0)
(0,0,0)
(0,0,0)
(0,0,0)
(0,0,0)
(0,0,0)
(-1.37073624975494e-12,-4.96605171770527e-12,2.87307951007105e-10)
(2.45505986209803e-13,-1.01415580671705e-11,2.85636182273552e-10)
(1.57806546449078e-12,-1.76820435547391e-11,2.8255510554421e-10)
(1.60955209329732e-12,-3.21256316505789e-11,2.7864522512891e-10)
(1.31048767546072e-12,-6.04737964678539e-11,2.72348005166045e-10)
(-4.3104671629052e-13,-1.17910807931573e-10,2.61304865931754e-10)
(-3.59157728816928e-12,-2.27589033223639e-10,2.40343552158136e-10)
(-5.48444155924863e-12,-4.03544416337518e-10,2.07565695197225e-10)
(-5.65626191462161e-12,-6.85791887735626e-10,1.55283998303824e-10)
(-7.0380485653391e-12,-1.08322720390402e-09,8.46283022576249e-11)
(0,0,0)
(0,0,0)
(0,0,0)
(0,0,0)
(0,0,0)
(0,0,0)
(-2.47894338852888e-12,-3.74078803455744e-12,4.60112959872076e-10)
(-1.78410520063465e-12,-7.22324214009943e-12,4.58613065939618e-10)
(-1.63222302980395e-13,-1.31531002324928e-11,4.55809450283627e-10)
(2.16693896637396e-14,-2.50786325909157e-11,4.52319652231496e-10)
(-6.29929289805548e-13,-4.94855562990444e-11,4.45852457613857e-10)
(-3.46257703759685e-12,-1.00214541030632e-10,4.32982490773144e-10)
(-7.04679233622784e-12,-1.9535345858438e-10,4.06280498300072e-10)
(-8.3872904455084e-12,-3.51952623052853e-10,3.57005027450199e-10)
(-8.08221055521984e-12,-6.16069999771581e-10,2.76094744427459e-10)
(-8.31675046332005e-12,-9.99571204701148e-10,1.56313835741824e-10)
(0,0,0)
(0,0,0)
(0,0,0)
(0,0,0)
(0,0,0)
(0,0,0)
(-2.03216715072842e-12,-2.90123012315569e-12,7.49259039432491e-10)
(-2.84136223902364e-12,-5.22148320262817e-12,7.47937670316019e-10)
(-2.93630493570421e-12,-9.43865103037784e-12,7.45247966043597e-10)
(-3.17507121721145e-12,-1.7913684756294e-11,7.40835879616375e-10)
(-4.36878468116033e-12,-3.61421220826577e-11,7.3270663548939e-10)
(-7.07948183134985e-12,-7.4898045688617e-11,7.16326653870433e-10)
(-9.66902297078419e-12,-1.46481302896767e-10,6.81646932333551e-10)
(-1.05694354502365e-11,-2.71088385135144e-10,6.14943592415392e-10)
(-1.06674531739119e-11,-4.96102981498616e-10,4.96935686082596e-10)
(-1.06169784608448e-11,-8.42890703363741e-10,2.98275155545373e-10)
(0,0,0)
(0,0,0)
(0,0,0)
(0,0,0)
(0,0,0)
(0,0,0)
(-2.10627740326321e-12,-1.61572676471124e-12,1.15511645388007e-09)
(-3.94645297712367e-12,-2.83546426030358e-12,1.15357332160661e-09)
(-5.36676408289926e-12,-5.13692819876306e-12,1.15050112390733e-09)
(-5.68136201286935e-12,-9.61670761890202e-12,1.14499671889275e-09)
(-7.21630768705919e-12,-1.93976516322931e-11,1.13561003236262e-09)
(-8.8582658073355e-12,-4.04677642531987e-11,1.11646906487973e-09)
(-1.06224658482313e-11,-8.00264285218764e-11,1.07604210901447e-09)
(-1.19077349255715e-11,-1.53319308585138e-10,9.95610605027942e-10)
(-1.16947852450592e-11,-2.97437287194362e-10,8.41653182957347e-10)
(-1.16482737372244e-11,-5.44114539253736e-10,5.43846776239861e-10)
(0,0,0)
(0,0,0)
(0,0,0)
(0,0,0)
(0,0,0)
(0,0,0)
(0,0,0)
(0,0,0)
(0,0,0)
(0,0,0)
(0,0,0)
(0,0,0)
(0,0,0)
(0,0,0)
(0,0,0)
(0,0,0)
(0,0,0)
(0,0,0)
(0,0,0)
(0,0,0)
(0,0,0)
(0,0,0)
(0,0,0)
(0,0,0)
(0,0,0)
(0,0,0)
(0,0,0)
(0,0,0)
(0,0,0)
(0,0,0)
(0,0,0)
(0,0,0)
(0,0,0)
(0,0,0)
(0,0,0)
(0,0,0)
(0,0,0)
(0,0,0)
(0,0,0)
(0,0,0)
(0,0,0)
(0,0,0)
(0,0,0)
(0,0,0)
(0,0,0)
(0,0,0)
(0,0,0)
(0,0,0)
(0,0,0)
(0,0,0)
(0,0,0)
(0,0,0)
(0,0,0)
(0,0,0)
(0,0,0)
(0,0,0)
(0,0,0)
(0,0,0)
(0,0,0)
(0,0,0)
(0,0,0)
(0,0,0)
(0,0,0)
(0,0,0)
(0,0,0)
(0,0,0)
(0,0,0)
(0,0,0)
(0,0,0)
(0,0,0)
(0,0,0)
(0,0,0)
(0,0,0)
(0,0,0)
(0,0,0)
(0,0,0)
(0,0,0)
(0,0,0)
(0,0,0)
(0,0,0)
(0,0,0)
(0,0,0)
(0,0,0)
(0,0,0)
(0,0,0)
(0,0,0)
(0,0,0)
(0,0,0)
(0,0,0)
(0,0,0)
(0,0,0)
(0,0,0)
(0,0,0)
(0,0,0)
(0,0,0)
(0,0,0)
(0,0,0)
(0,0,0)
(0,0,0)
(0,0,0)
(0,0,0)
(0,0,0)
(-1.17606114078608e-12,-2.70419158358103e-11,2.97593515826571e-11)
(-1.77001546893009e-12,-5.65286660632892e-11,2.8231605866628e-11)
(-1.47192472570135e-12,-9.24951756893085e-11,2.51515630239241e-11)
(-1.73834086464492e-13,-1.41853930383049e-10,2.06745140601133e-11)
(1.12035715414099e-12,-2.14871741287067e-10,1.49367365189994e-11)
(2.35188424106442e-12,-3.26579885386646e-10,8.49409814446732e-12)
(4.30056156315027e-12,-5.06972245431962e-10,2.95760678108497e-12)
(4.62958814937055e-12,-8.12904420911335e-10,4.12842384905312e-13)
(4.2650254443022e-12,-1.39520677904798e-09,-1.40327187788714e-13)
(3.70422389261803e-12,-2.73003348796818e-09,1.2090512884449e-13)
(0,0,0)
(0,0,0)
(0,0,0)
(0,0,0)
(0,0,0)
(0,0,0)
(-1.03491210985862e-12,-2.57550212817041e-11,6.27074014231759e-11)
(-2.16036698094993e-12,-5.38772676719806e-11,6.00996655766095e-11)
(-2.89603487083357e-12,-8.84059868453934e-11,5.46464976605037e-11)
(-1.94383914159914e-12,-1.36452094400026e-10,4.63032075166534e-11)
(3.7370988082555e-13,-2.08645954671785e-10,3.48404402036959e-11)
(2.6229931782149e-12,-3.21406595114841e-10,2.12783996328237e-11)
(5.739416021982e-12,-5.0475740934665e-10,9.366199602169e-12)
(7.16191614273479e-12,-8.13287677492262e-10,3.82032702010306e-12)
(7.43920604143744e-12,-1.39675452819092e-09,2.25070068231635e-12)
(6.67024589417047e-12,-2.73124167333264e-09,1.37891211245809e-12)
(0,0,0)
(0,0,0)
(0,0,0)
(0,0,0)
(0,0,0)
(0,0,0)
(-7.58491568467449e-13,-2.35906969919909e-11,1.01114392572439e-10)
(-2.06127174191648e-12,-4.87940187344787e-11,9.73353733964827e-11)
(-3.69142756187474e-12,-8.01986455090163e-11,8.99806286651223e-11)
(-3.31971006275667e-12,-1.254812098229e-10,7.8507354671545e-11)
(-7.43291628889679e-13,-1.95561366793668e-10,6.23016651208322e-11)
(8.52633661890869e-13,-3.0961090941128e-10,4.23686666657115e-11)
(4.11343977422673e-12,-4.99031826222135e-10,2.33019988747876e-11)
(7.78760420910727e-12,-8.13186843568838e-10,1.42094676544935e-11)
(8.88053842844936e-12,-1.39823021063252e-09,1.02006332941496e-11)
(8.67222365536515e-12,-2.73209294123067e-09,5.67124136556539e-12)
(0,0,0)
(0,0,0)
(0,0,0)
(0,0,0)
(0,0,0)
(0,0,0)
(-3.12542775578481e-13,-2.0019865852502e-11,1.51499624155956e-10)
(-1.53342447323056e-12,-4.1513823349705e-11,1.47182201657899e-10)
(-2.90674926249385e-12,-6.84255803707332e-11,1.38810728869765e-10)
(-3.18689102701831e-12,-1.0894015956077e-10,1.25869359112741e-10)
(-1.72713971367634e-12,-1.74660621307288e-10,1.07324889465367e-10)
(-1.81431494191455e-12,-2.88459680470377e-10,8.4103439959943e-11)
(7.14663346412242e-13,-4.87188907069733e-10,5.95083080947487e-11)
(6.07057314052815e-12,-8.11336915523962e-10,4.4435606226003e-11)
(7.50536447281163e-12,-1.39731790759579e-09,3.22327856901586e-11)
(6.93024247298659e-12,-2.7297447877893e-09,1.75414780215018e-11)
(0,0,0)
(0,0,0)
(0,0,0)
(0,0,0)
(0,0,0)
(0,0,0)
(-5.76237699938052e-13,-1.56331123721702e-11,2.23401629780696e-10)
(-4.68519824555772e-13,-3.2818381887031e-11,2.1923597992938e-10)
(-7.7874825807565e-13,-5.43267540698641e-11,2.10989302574706e-10)
(-1.93004610569954e-12,-8.81134649998567e-11,1.98904110307856e-10)
(-2.09672543097064e-12,-1.46752701641133e-10,1.82583258754953e-10)
(-2.61894000244927e-12,-2.55545343159537e-10,1.63266870598592e-10)
(3.31075075276575e-12,-4.60742812160478e-10,1.45379480464718e-10)
(5.4355600999169e-12,-8.01624819679994e-10,1.12619999642443e-10)
(5.36640889264645e-12,-1.3872714835686e-09,7.86797423432602e-11)
(4.0795775098183e-12,-2.71670919622242e-09,4.11266838062116e-11)
(0,0,0)
(0,0,0)
(0,0,0)
(0,0,0)
(0,0,0)
(0,0,0)
(-5.28716679423365e-13,-1.13513159334151e-11,3.31237925046285e-10)
(5.42082494746614e-13,-2.42411254507582e-11,3.27865257348232e-10)
(1.03163538734468e-12,-4.0742796450552e-11,3.21116116919544e-10)
(3.52490012579789e-13,-6.80199586452032e-11,3.11711661252987e-10)
(-6.94216142635338e-13,-1.18941812590161e-10,2.98722973391985e-10)
(-1.70637818947195e-12,-2.23143950262678e-10,2.80894868363282e-10)
(8.99306402750031e-13,-4.37436666403616e-10,2.57703742042713e-10)
(1.02946707222373e-12,-7.76202453293092e-10,2.14459296830629e-10)
(7.91288487015948e-13,-1.35525005860056e-09,1.54396917548244e-10)
(-8.68449426765202e-13,-2.67987167294597e-09,8.15659126860612e-11)
(0,0,0)
(0,0,0)
(0,0,0)
(0,0,0)
(0,0,0)
(0,0,0)
(-9.24231199350214e-13,-8.14532479267942e-12,5.03601059202445e-10)
(4.082667884796e-13,-1.72849322467081e-11,5.01222509380552e-10)
(9.5900255754581e-13,-2.96573109714208e-11,4.96321152605414e-10)
(8.59772996500198e-13,-5.11129056776058e-11,4.90298324098974e-10)
(1.3653867409456e-12,-9.33445443002365e-11,4.81704946791171e-10)
(2.834000156408e-12,-1.87198861636374e-10,4.65896573223489e-10)
(-3.04929496657379e-12,-3.99679373372045e-10,4.26223461911533e-10)
(-4.79453795044851e-12,-7.22793228340625e-10,3.73700135233538e-10)
(-4.72245383278804e-12,-1.28680572398037e-09,2.76534162209757e-10)
(-6.06574551016163e-12,-2.60160171802391e-09,1.49397062421069e-10)
(0,0,0)
(0,0,0)
(0,0,0)
(0,0,0)
(0,0,0)
(0,0,0)
(-1.81860736747306e-12,-6.02392355814471e-12,8.02699016481164e-10)
(-9.82248482114081e-13,-1.22971522819356e-11,8.00837038394843e-10)
(-3.87873452963452e-13,-2.20225319328752e-11,7.96708071429872e-10)
(-6.76083827319891e-13,-4.03689125999029e-11,7.91546778139659e-10)
(-1.10339666549815e-12,-7.88284850476685e-11,7.83150567113915e-10)
(-2.07707990653587e-12,-1.6615454700608e-10,7.65833506546916e-10)
(-6.64347717397538e-12,-3.4662084189831e-10,7.23390141972216e-10)
(-8.34124534057643e-12,-6.26858552271944e-10,6.35480260354499e-10)
(-8.26832014242617e-12,-1.1613351429458e-09,4.8974740777315e-10)
(-8.6834160593318e-12,-2.45421665249206e-09,2.78608368357624e-10)
(0,0,0)
(0,0,0)
(0,0,0)
(0,0,0)
(0,0,0)
(0,0,0)
(-1.99630139270119e-12,-4.39846628616763e-12,1.38156691999401e-09)
(-2.53767690892458e-12,-8.46025102155853e-12,1.37959681979675e-09)
(-2.82594134009649e-12,-1.55173154464323e-11,1.37516924614952e-09)
(-3.34280422761665e-12,-2.96259893068093e-11,1.3684933146103e-09)
(-4.73327351255698e-12,-6.00339799420785e-11,1.35685147884555e-09)
(-6.83004172989596e-12,-1.27323251445573e-10,1.33201934486231e-09)
(-9.42055742750671e-12,-2.57884280149123e-10,1.27485195070693e-09)
(-1.03306056674546e-11,-4.80621434242255e-10,1.15807570810543e-09)
(-1.06726169410226e-11,-9.49920103356576e-10,9.51030715851371e-10)
(-1.11179870252097e-11,-2.17569497017011e-09,5.94121479109301e-10)
(0,0,0)
(0,0,0)
(0,0,0)
(0,0,0)
(0,0,0)
(0,0,0)
(-2.17887189451554e-12,-2.34200581205811e-12,2.71357714318052e-09)
(-3.70971953814622e-12,-4.35461585764871e-12,2.71124582142691e-09)
(-4.99928726708538e-12,-8.20504623523497e-12,2.70618188803684e-09)
(-5.91138310163221e-12,-1.60022083466924e-11,2.69786886250348e-09)
(-7.47299183647161e-12,-3.28793915686994e-11,2.68373348115197e-09)
(-8.89907419527365e-12,-6.93873113004361e-11,2.6532046822877e-09)
(-1.02173903835893e-11,-1.40202701004679e-10,2.58525632973308e-09)
(-1.1269621440102e-11,-2.73140319803311e-10,2.4457428070441e-09)
(-1.13256657219356e-11,-5.92507364792484e-10,2.17247405704155e-09)
(-1.19160367510627e-11,-1.5810097552109e-09,1.5802899278849e-09)
(0,0,0)
(0,0,0)
(0,0,0)
(0,0,0)
(0,0,0)
(0,0,0)
(0,0,0)
(0,0,0)
(0,0,0)
(0,0,0)
(0,0,0)
(0,0,0)
(0,0,0)
(0,0,0)
(0,0,0)
(0,0,0)
(0,0,0)
(0,0,0)
(0,0,0)
(0,0,0)
(0,0,0)
(0,0,0)
(0,0,0)
(0,0,0)
(0,0,0)
(0,0,0)
(0,0,0)
(0,0,0)
(0,0,0)
(0,0,0)
(0,0,0)
(0,0,0)
(0,0,0)
(0,0,0)
(0,0,0)
(0,0,0)
(0,0,0)
(0,0,0)
(0,0,0)
(0,0,0)
(0,0,0)
(0,0,0)
(0,0,0)
(0,0,0)
(0,0,0)
(0,0,0)
(0,0,0)
(0,0,0)
(0,0,0)
(0,0,0)
(0,0,0)
(0,0,0)
(0,0,0)
(0,0,0)
(0,0,0)
(0,0,0)
(0,0,0)
(0,0,0)
(0,0,0)
(0,0,0)
(0,0,0)
(0,0,0)
(0,0,0)
(0,0,0)
(0,0,0)
(0,0,0)
(0,0,0)
(0,0,0)
(0,0,0)
(0,0,0)
(0,0,0)
(0,0,0)
(0,0,0)
(0,0,0)
(0,0,0)
(0,0,0)
(0,0,0)
(0,0,0)
(0,0,0)
(0,0,0)
(0,0,0)
(0,0,0)
(0,0,0)
(0,0,0)
(0,0,0)
(0,0,0)
(0,0,0)
(0,0,0)
(0,0,0)
(0,0,0)
(0,0,0)
(0,0,0)
(0,0,0)
(0,0,0)
(0,0,0)
(0,0,0)
(0,0,0)
(0,0,0)
(0,0,0)
(0,0,0)
(0,0,0)
(0,0,0)
(-9.35209978661998e-13,-3.49657623212164e-11,3.87320629212397e-11)
(-1.34137101822842e-12,-7.39687068065505e-11,3.70666654252634e-11)
(-1.08406460539466e-12,-1.22217351026156e-10,3.30020513876417e-11)
(1.62107471915009e-13,-1.8542654009136e-10,2.64715091776341e-11)
(1.33720891312085e-12,-2.76379379799565e-10,1.78466144524352e-11)
(2.71508533297743e-12,-4.08115650790521e-10,7.41701010876142e-12)
(4.6304898735251e-12,-6.02818203004443e-10,-1.4703592325943e-12)
(5.56601430302691e-12,-8.83618398311963e-10,-4.7066120095161e-12)
(5.55154227056412e-12,-1.28200079019864e-09,-3.85908699410075e-12)
(5.03331438601448e-12,-1.76779593546168e-09,-1.56800317835319e-12)
(0,0,0)
(0,0,0)
(0,0,0)
(0,0,0)
(0,0,0)
(0,0,0)
(-5.9150055291319e-13,-3.38956433583e-11,8.23821404067928e-11)
(-1.79044800267927e-12,-7.0776071681861e-11,7.90976765553133e-11)
(-2.76008606363717e-12,-1.16282276749869e-10,7.1662763770398e-11)
(-1.45195640567547e-12,-1.77078765441212e-10,5.90283575285984e-11)
(8.51162573996937e-13,-2.66387500437565e-10,4.09628761520501e-11)
(2.73950750517986e-12,-4.00365301985921e-10,1.79391966500865e-11)
(5.5597054785032e-12,-6.0124141219833e-10,-3.4943714391752e-12)
(8.63070855856819e-12,-8.86621287686067e-10,-9.14864893749314e-12)
(9.7866770524891e-12,-1.28635959923341e-09,-5.91278581292796e-12)
(8.90042590478907e-12,-1.77141719224486e-09,-1.96688290203036e-12)
(0,0,0)
(0,0,0)
(0,0,0)
(0,0,0)
(0,0,0)
(0,0,0)
(-5.50303532332121e-13,-3.11579987767313e-11,1.32991201297308e-10)
(-1.98672239464056e-12,-6.4093425237921e-11,1.28029514158369e-10)
(-3.99121870668847e-12,-1.04545555722647e-10,1.17662594555824e-10)
(-3.65507077429282e-12,-1.60305392072707e-10,1.0006918524241e-10)
(-1.71103866016779e-12,-2.44852785865347e-10,7.34469608259104e-11)
(-1.23192748846062e-12,-3.81158909193366e-10,3.65878579562533e-11)
(1.36305184287362e-12,-5.9820429812021e-10,-3.97711833485203e-12)
(9.94651052436e-12,-8.94334381708573e-10,-8.94551267340382e-12)
(1.24976273204573e-11,-1.29414783177097e-09,-1.95880982287378e-12)
(1.19953115793174e-11,-1.7769582689741e-09,1.34755685538178e-12)
(0,0,0)
(0,0,0)
(0,0,0)
(0,0,0)
(0,0,0)
(0,0,0)
(-3.81873758557453e-13,-2.60158233666152e-11,1.98342510398786e-10)
(-1.85739314716493e-12,-5.39038961386041e-11,1.9276871116523e-10)
(-4.06420580665954e-12,-8.76214989724863e-11,1.81011508115195e-10)
(-5.46911594080417e-12,-1.34759512789159e-10,1.60824372834607e-10)
(-6.41360987391067e-12,-2.08928391021615e-10,1.28985877668504e-10)
(-1.01335203873195e-11,-3.41423070143122e-10,8.18477356980383e-11)
(-1.06587296944784e-11,-5.89231749231236e-10,1.84149802527911e-11)
(8.56129783210059e-12,-9.08668627478429e-10,1.730107910725e-11)
(1.21502481145825e-11,-1.30395101602712e-09,2.14307463766274e-11)
(1.14361289275786e-11,-1.7807380101999e-09,1.46937320103024e-11)
(0,0,0)
(0,0,0)
(0,0,0)
(0,0,0)
(0,0,0)
(0,0,0)
(-6.92384286918826e-13,-1.97584901371559e-11,2.86899425534502e-10)
(-7.99098906444871e-13,-4.16191809410822e-11,2.8153649621836e-10)
(-2.2775136106306e-12,-6.72385468484216e-11,2.70384565429262e-10)
(-5.70270090767012e-12,-1.0230954756924e-10,2.52179698520433e-10)
(-1.05912263247828e-11,-1.58407485460903e-10,2.25398468666249e-10)
(-1.71329427660888e-11,-2.65708187041801e-10,1.93578580815048e-10)
(1.27640858182962e-11,-5.20404660919201e-10,1.96626760591724e-10)
(1.39534510116764e-11,-9.23048408705536e-10,1.28453806380049e-10)
(1.08980424627665e-11,-1.30736168513397e-09,8.86093857184503e-11)
(8.36873803914879e-12,-1.77309976624162e-09,4.70251180632207e-11)
(0,0,0)
(0,0,0)
(0,0,0)
(0,0,0)
(0,0,0)
(0,0,0)
(-3.62040122245547e-13,-1.36542629464069e-11,4.11095996970929e-10)
(3.35029719659984e-13,-2.94608044927624e-11,4.07117676328686e-10)
(-6.49394425502049e-13,-4.71585444990006e-11,3.98637298967305e-10)
(-3.56587509349893e-12,-7.05818078293961e-11,3.85871888138883e-10)
(-8.46337940443337e-12,-1.10627740251398e-10,3.68046201389356e-10)
(-1.4460340494945e-11,-2.07918999871857e-10,3.44746139495489e-10)
(6.38645858333494e-12,-5.19620031075024e-10,3.38097032017481e-10)
(7.6826214016204e-12,-9.08054594486838e-10,2.69121561867599e-10)
(5.17795872946201e-12,-1.27685525814997e-09,1.89504974809449e-10)
(2.4275083372505e-12,-1.73250600969391e-09,9.87658165338138e-11)
(0,0,0)
(0,0,0)
(0,0,0)
(0,0,0)
(0,0,0)
(0,0,0)
(-6.67082611713186e-13,-9.14587288859834e-12,5.93463850089261e-10)
(3.21843599052356e-13,-1.9734607070757e-11,5.9086603370058e-10)
(-6.52947974913429e-13,-3.115442527941e-11,5.85958041566112e-10)
(-1.29084277295231e-12,-4.4671513550383e-11,5.80782175416744e-10)
(2.65770105597035e-12,-6.59074927132004e-11,5.78518381931768e-10)
(2.14627968379446e-11,-1.27202953945485e-10,5.8039630376495e-10)
(-3.584499762049e-12,-4.79795332915313e-10,4.97046861207419e-10)
(-3.56324099580494e-12,-8.46419404322432e-10,4.81042249998934e-10)
(-3.05593507851059e-12,-1.19373631922916e-09,3.36708695915894e-10)
(-4.05374862089186e-12,-1.63803660568156e-09,1.74213471656633e-10)
(0,0,0)
(0,0,0)
(0,0,0)
(0,0,0)
(0,0,0)
(0,0,0)
(-1.5820865529283e-12,-6.50299638779061e-12,8.64182543079762e-10)
(-6.90182777651449e-13,-1.38348978484535e-11,8.62421601912628e-10)
(-1.73179664983479e-12,-2.27421675127479e-11,8.59265685496765e-10)
(-3.02279609386703e-12,-3.59930993909245e-11,8.56544229710348e-10)
(-2.58084120423323e-12,-6.66036771384002e-11,8.56076807840175e-10)
(1.5349891074665e-12,-1.60388570870956e-10,8.57026007369145e-10)
(-7.47015730490381e-12,-4.35659872093868e-10,8.30899490611897e-10)
(-8.84551078983806e-12,-7.00526682142853e-10,7.09095551949253e-10)
(-8.5443203160852e-12,-1.0322996747744e-09,5.18233589859294e-10)
(-8.59673002335813e-12,-1.46537603858647e-09,2.80041574208696e-10)
(0,0,0)
(0,0,0)
(0,0,0)
(0,0,0)
(0,0,0)
(0,0,0)
(-2.08266166994555e-12,-5.04495776270151e-12,1.25737433006372e-09)
(-2.21573842546004e-12,-9.76648236689055e-12,1.2554222577614e-09)
(-3.46227901193314e-12,-1.67956758249379e-11,1.25186588593137e-09)
(-5.32474942315594e-12,-2.95316812751662e-11,1.24702677875538e-09)
(-7.05572790190072e-12,-6.03169737032248e-11,1.23944872162322e-09)
(-7.59858771989882e-12,-1.3902498988806e-10,1.22134300969852e-09)
(-1.03258939706295e-11,-3.05895649255366e-10,1.16607041837768e-09)
(-1.07667278526281e-11,-5.0677341636299e-10,1.02412456281011e-09)
(-1.1176118762658e-11,-7.92958506600876e-10,7.92853822043058e-10)
(-1.16817228754255e-11,-1.18484618229047e-09,4.55463149188208e-10)
(0,0,0)
(0,0,0)
(0,0,0)
(0,0,0)
(0,0,0)
(0,0,0)
(-2.18955595329079e-12,-2.93538800135348e-12,1.74087249333744e-09)
(-3.0004020062663e-12,-5.20556482469409e-12,1.73830120207152e-09)
(-4.89130796854592e-12,-9.1894744469236e-12,1.73361094299937e-09)
(-7.77821009739148e-12,-1.70254265213394e-11,1.7261522470672e-09)
(-9.8235845403693e-12,-3.56720513831446e-11,1.71285554487506e-09)
(-1.03380329415313e-11,-7.84563451741307e-11,1.68209802151248e-09)
(-1.09065686987916e-11,-1.59686707029047e-10,1.60829340868819e-09)