/*--------------------------------*- C++ -*----------------------------------*\
| =========                 |                                                 |
| \\      /  F ield         | foam-extend: Open Source Cstd::filesystem::create_directory();FD                    |
|  \\    /   O peration     | Version:     4.0                                |
|   \\  /    A nd           | Web:         http://www.foam-extend.org         |
|    \\/     M anipulation  |                                                 |
\*---------------------------------------------------------------------------*/
FoamFile
{
    version 2.0;
    format ascii;
    class volVectorField;
    location "Data/1451";
    object      H;
}
// * * * * * * * * * * * * * * * * * * * * * * * * * * * * * * * * * * * * * //

dimensions      [0 1 -1 0 0 0 0];

internalField   nonuniform List<vector>
4096
(
(0,0,0)
(0,0,0)
(0,0,0)
(0,0,0)
(0,0,0)
(0,0,0)
(0,0,0)
(0,0,0)
(0,0,0)
(0,0,0)
(0,0,0)
(0,0,0)
(0,0,0)
(0,0,0)
(0,0,0)
(0,0,0)
(0,0,0)
(0,0,0)
(0,0,0)
(0,0,0)
(0,0,0)
(0,0,0)
(0,0,0)
(0,0,0)
(0,0,0)
(0,0,0)
(0,0,0)
(0,0,0)
(0,0,0)
(0,0,0)
(0,0,0)
(0,0,0)
(0,0,0)
(0,0,0)
(0,0,0)
(0,0,0)
(0,0,0)
(0,0,0)
(0,0,0)
(0,0,0)
(0,0,0)
(0,0,0)
(0,0,0)
(0,0,0)
(0,0,0)
(0,0,0)
(0,0,0)
(0,0,0)
(0,0,0)
(0,0,0)
(0,0,0)
(0,0,0)
(0,0,0)
(0,0,0)
(0,0,0)
(0,0,0)
(0,0,0)
(0,0,0)
(0,0,0)
(0,0,0)
(0,0,0)
(0,0,0)
(0,0,0)
(0,0,0)
(0,0,0)
(0,0,0)
(0,0,0)
(0,0,0)
(0,0,0)
(0,0,0)
(0,0,0)
(0,0,0)
(0,0,0)
(0,0,0)
(0,0,0)
(0,0,0)
(0,0,0)
(0,0,0)
(0,0,0)
(0,0,0)
(0,0,0)
(0,0,0)
(0,0,0)
(0,0,0)
(0,0,0)
(0,0,0)
(0,0,0)
(0,0,0)
(0,0,0)
(0,0,0)
(0,0,0)
(0,0,0)
(0,0,0)
(0,0,0)
(0,0,0)
(0,0,0)
(0,0,0)
(0,0,0)
(0,0,0)
(0,0,0)
(0,0,0)
(0,0,0)
(0,0,0)
(0,0,0)
(0,0,0)
(0,0,0)
(0,0,0)
(0,0,0)
(0,0,0)
(0,0,0)
(0,0,0)
(0,0,0)
(0,0,0)
(0,0,0)
(0,0,0)
(0,0,0)
(0,0,0)
(0,0,0)
(0,0,0)
(0,0,0)
(0,0,0)
(0,0,0)
(0,0,0)
(0,0,0)
(0,0,0)
(0,0,0)
(0,0,0)
(0,0,0)
(0,0,0)
(0,0,0)
(0,0,0)
(0,0,0)
(0,0,0)
(0,0,0)
(0,0,0)
(0,0,0)
(0,0,0)
(0,0,0)
(0,0,0)
(0,0,0)
(0,0,0)
(0,0,0)
(0,0,0)
(0,0,0)
(0,0,0)
(0,0,0)
(0,0,0)
(0,0,0)
(0,0,0)
(0,0,0)
(0,0,0)
(0,0,0)
(0,0,0)
(0,0,0)
(0,0,0)
(0,0,0)
(0,0,0)
(0,0,0)
(0,0,0)
(0,0,0)
(0,0,0)
(0,0,0)
(0,0,0)
(0,0,0)
(0,0,0)
(0,0,0)
(0,0,0)
(0,0,0)
(0,0,0)
(0,0,0)
(0,0,0)
(0,0,0)
(0,0,0)
(0,0,0)
(0,0,0)
(0,0,0)
(0,0,0)
(0,0,0)
(0,0,0)
(0,0,0)
(0,0,0)
(0,0,0)
(0,0,0)
(0,0,0)
(0,0,0)
(0,0,0)
(0,0,0)
(0,0,0)
(0,0,0)
(0,0,0)
(0,0,0)
(0,0,0)
(0,0,0)
(0,0,0)
(0,0,0)
(0,0,0)
(0,0,0)
(0,0,0)
(0,0,0)
(0,0,0)
(0,0,0)
(0,0,0)
(0,0,0)
(0,0,0)
(0,0,0)
(0,0,0)
(0,0,0)
(0,0,0)
(0,0,0)
(0,0,0)
(0,0,0)
(0,0,0)
(0,0,0)
(0,0,0)
(0,0,0)
(0,0,0)
(0,0,0)
(0,0,0)
(0,0,0)
(0,0,0)
(0,0,0)
(0,0,0)
(0,0,0)
(0,0,0)
(0,0,0)
(0,0,0)
(0,0,0)
(0,0,0)
(0,0,0)
(0,0,0)
(0,0,0)
(0,0,0)
(0,0,0)
(0,0,0)
(0,0,0)
(0,0,0)
(0,0,0)
(0,0,0)
(0,0,0)
(0,0,0)
(0,0,0)
(0,0,0)
(0,0,0)
(0,0,0)
(0,0,0)
(0,0,0)
(0,0,0)
(0,0,0)
(0,0,0)
(0,0,0)
(0,0,0)
(0,0,0)
(0,0,0)
(0,0,0)
(0,0,0)
(0,0,0)
(0,0,0)
(0,0,0)
(0,0,0)
(0,0,0)
(0,0,0)
(0,0,0)
(0,0,0)
(0,0,0)
(0,0,0)
(0,0,0)
(0,0,0)
(0,0,0)
(0,0,0)
(0,0,0)
(0,0,0)
(0,0,0)
(0,0,0)
(0,0,0)
(0,0,0)
(0,0,0)
(0,0,0)
(0,0,0)
(0,0,0)
(0,0,0)
(0,0,0)
(0,0,0)
(0,0,0)
(0,0,0)
(0,0,0)
(0,0,0)
(0,0,0)
(0,0,0)
(0,0,0)
(0,0,0)
(0,0,0)
(0,0,0)
(0,0,0)
(0,0,0)
(0,0,0)
(0,0,0)
(0,0,0)
(0,0,0)
(0,0,0)
(0,0,0)
(0,0,0)
(0,0,0)
(0,0,0)
(0,0,0)
(0,0,0)
(0,0,0)
(0,0,0)
(0,0,0)
(0,0,0)
(0,0,0)
(0,0,0)
(0,0,0)
(0,0,0)
(0,0,0)
(0,0,0)
(0,0,0)
(0,0,0)
(0,0,0)
(0,0,0)
(0,0,0)
(0,0,0)
(0,0,0)
(0,0,0)
(0,0,0)
(0,0,0)
(0,0,0)
(0,0,0)
(0,0,0)
(0,0,0)
(0,0,0)
(0,0,0)
(0,0,0)
(0,0,0)
(0,0,0)
(0,0,0)
(0,0,0)
(0,0,0)
(0,0,0)
(0,0,0)
(0,0,0)
(0,0,0)
(0,0,0)
(0,0,0)
(0,0,0)
(0,0,0)
(0,0,0)
(0,0,0)
(0,0,0)
(0,0,0)
(0,0,0)
(0,0,0)
(0,0,0)
(0,0,0)
(0,0,0)
(0,0,0)
(0,0,0)
(0,0,0)
(0,0,0)
(0,0,0)
(0,0,0)
(0,0,0)
(0,0,0)
(0,0,0)
(0,0,0)
(0,0,0)
(0,0,0)
(0,0,0)
(0,0,0)
(0,0,0)
(0,0,0)
(0,0,0)
(0,0,0)
(0,0,0)
(0,0,0)
(0,0,0)
(0,0,0)
(0,0,0)
(0,0,0)
(0,0,0)
(0,0,0)
(0,0,0)
(0,0,0)
(0,0,0)
(0,0,0)
(0,0,0)
(0,0,0)
(0,0,0)
(0,0,0)
(0,0,0)
(0,0,0)
(0,0,0)
(0,0,0)
(0,0,0)
(0,0,0)
(0,0,0)
(0,0,0)
(0,0,0)
(0,0,0)
(0,0,0)
(0,0,0)
(0,0,0)
(0,0,0)
(0,0,0)
(0,0,0)
(0,0,0)
(0,0,0)
(0,0,0)
(0,0,0)
(0,0,0)
(0,0,0)
(0,0,0)
(0,0,0)
(0,0,0)
(0,0,0)
(0,0,0)
(0,0,0)
(0,0,0)
(0,0,0)
(0,0,0)
(0,0,0)
(0,0,0)
(0,0,0)
(0,0,0)
(0,0,0)
(0,0,0)
(0,0,0)
(0,0,0)
(0,0,0)
(0,0,0)
(0,0,0)
(0,0,0)
(0,0,0)
(0,0,0)
(0,0,0)
(0,0,0)
(0,0,0)
(0,0,0)
(0,0,0)
(0,0,0)
(0,0,0)
(0,0,0)
(0,0,0)
(0,0,0)
(0,0,0)
(0,0,0)
(0,0,0)
(0,0,0)
(0,0,0)
(0,0,0)
(0,0,0)
(0,0,0)
(0,0,0)
(0,0,0)
(0,0,0)
(0,0,0)
(0,0,0)
(0,0,0)
(0,0,0)
(0,0,0)
(0,0,0)
(0,0,0)
(0,0,0)
(0,0,0)
(0,0,0)
(0,0,0)
(0,0,0)
(0,0,0)
(0,0,0)
(0,0,0)
(0,0,0)
(0,0,0)
(0,0,0)
(0,0,0)
(0,0,0)
(0,0,0)
(0,0,0)
(0,0,0)
(0,0,0)
(0,0,0)
(0,0,0)
(0,0,0)
(0,0,0)
(0,0,0)
(0,0,0)
(0,0,0)
(0,0,0)
(0,0,0)
(0,0,0)
(0,0,0)
(0,0,0)
(0,0,0)
(0,0,0)
(0,0,0)
(0,0,0)
(0,0,0)
(0,0,0)
(0,0,0)
(0,0,0)
(0,0,0)
(0,0,0)
(0,0,0)
(0,0,0)
(0,0,0)
(0,0,0)
(0,0,0)
(0,0,0)
(0,0,0)
(0,0,0)
(0,0,0)
(0,0,0)
(0,0,0)
(0,0,0)
(0,0,0)
(0,0,0)
(0,0,0)
(0,0,0)
(0,0,0)
(0,0,0)
(0,0,0)
(0,0,0)
(0,0,0)
(0,0,0)
(0,0,0)
(0,0,0)
(0,0,0)
(0,0,0)
(0,0,0)
(0,0,0)
(0,0,0)
(0,0,0)
(0,0,0)
(0,0,0)
(0,0,0)
(0,0,0)
(0,0,0)
(0,0,0)
(0,0,0)
(0,0,0)
(0,0,0)
(0,0,0)
(0,0,0)
(0,0,0)
(0,0,0)
(0,0,0)
(0,0,0)
(0,0,0)
(0,0,0)
(0,0,0)
(0,0,0)
(0,0,0)
(0,0,0)
(0,0,0)
(0,0,0)
(0,0,0)
(0,0,0)
(0,0,0)
(0,0,0)
(0,0,0)
(0,0,0)
(0,0,0)
(0,0,0)
(0,0,0)
(0,0,0)
(0,0,0)
(0,0,0)
(0,0,0)
(0,0,0)
(0,0,0)
(0,0,0)
(0,0,0)
(0,0,0)
(0,0,0)
(0,0,0)
(0,0,0)
(0,0,0)
(0,0,0)
(0,0,0)
(0,0,0)
(0,0,0)
(0,0,0)
(0,0,0)
(0,0,0)
(0,0,0)
(0,0,0)
(0,0,0)
(0,0,0)
(0,0,0)
(0,0,0)
(0,0,0)
(0,0,0)
(0,0,0)
(0,0,0)
(0,0,0)
(0,0,0)
(0,0,0)
(0,0,0)
(0,0,0)
(0,0,0)
(0,0,0)
(0,0,0)
(0,0,0)
(0,0,0)
(0,0,0)
(0,0,0)
(0,0,0)
(0,0,0)
(0,0,0)
(0,0,0)
(0,0,0)
(0,0,0)
(0,0,0)
(0,0,0)
(0,0,0)
(0,0,0)
(0,0,0)
(0,0,0)
(0,0,0)
(0,0,0)
(0,0,0)
(0,0,0)
(0,0,0)
(0,0,0)
(0,0,0)
(0,0,0)
(0,0,0)
(0,0,0)
(0,0,0)
(0,0,0)
(0,0,0)
(0,0,0)
(0,0,0)
(0,0,0)
(0,0,0)
(0,0,0)
(0,0,0)
(0,0,0)
(0,0,0)
(0,0,0)
(0,0,0)
(0,0,0)
(0,0,0)
(0,0,0)
(0,0,0)
(0,0,0)
(0,0,0)
(0,0,0)
(0,0,0)
(0,0,0)
(0,0,0)
(0,0,0)
(0,0,0)
(0,0,0)
(0,0,0)
(0,0,0)
(0,0,0)
(0,0,0)
(0,0,0)
(0,0,0)
(0,0,0)
(0,0,0)
(0,0,0)
(0,0,0)
(0,0,0)
(0,0,0)
(0,0,0)
(0,0,0)
(0,0,0)
(0,0,0)
(0,0,0)
(0,0,0)
(0,0,0)
(0,0,0)
(0,0,0)
(0,0,0)
(0,0,0)
(0,0,0)
(0,0,0)
(0,0,0)
(0,0,0)
(0,0,0)
(0,0,0)
(0,0,0)
(0,0,0)
(0,0,0)
(0,0,0)
(0,0,0)
(0,0,0)
(0,0,0)
(0,0,0)
(0,0,0)
(0,0,0)
(0,0,0)
(0,0,0)
(0,0,0)
(0,0,0)
(0,0,0)
(0,0,0)
(0,0,0)
(0,0,0)
(0,0,0)
(0,0,0)
(0,0,0)
(0,0,0)
(0,0,0)
(0,0,0)
(0,0,0)
(0,0,0)
(0,0,0)
(0,0,0)
(0,0,0)
(0,0,0)
(0,0,0)
(0,0,0)
(0,0,0)
(0,0,0)
(0,0,0)
(0,0,0)
(0,0,0)
(0,0,0)
(0,0,0)
(0,0,0)
(0,0,0)
(0,0,0)
(0,0,0)
(0,0,0)
(0,0,0)
(0,0,0)
(0,0,0)
(0,0,0)
(0,0,0)
(0,0,0)
(0,0,0)
(0,0,0)
(0,0,0)
(0,0,0)
(0,0,0)
(0,0,0)
(0,0,0)
(0,0,0)
(0,0,0)
(0,0,0)
(0,0,0)
(0,0,0)
(0,0,0)
(0,0,0)
(0,0,0)
(0,0,0)
(0,0,0)
(0,0,0)
(0,0,0)
(0,0,0)
(0,0,0)
(0,0,0)
(0,0,0)
(0,0,0)
(0,0,0)
(0,0,0)
(0,0,0)
(0,0,0)
(0,0,0)
(0,0,0)
(0,0,0)
(0,0,0)
(0,0,0)
(0,0,0)
(0,0,0)
(0,0,0)
(0,0,0)
(0,0,0)
(0,0,0)
(0,0,0)
(0,0,0)
(0,0,0)
(0,0,0)
(0,0,0)
(0,0,0)
(0,0,0)
(0,0,0)
(0,0,0)
(0,0,0)
(0,0,0)
(0,0,0)
(0,0,0)
(0,0,0)
(0,0,0)
(0,0,0)
(0,0,0)
(0,0,0)
(0,0,0)
(0,0,0)
(0,0,0)
(0,0,0)
(0,0,0)
(0,0,0)
(0,0,0)
(0,0,0)
(0,0,0)
(0,0,0)
(0,0,0)
(0,0,0)
(0,0,0)
(0,0,0)
(0,0,0)
(0,0,0)
(0,0,0)
(0,0,0)
(0,0,0)
(0,0,0)
(0,0,0)
(0,0,0)
(0,0,0)
(0,0,0)
(0,0,0)
(0,0,0)
(0,0,0)
(0,0,0)
(0,0,0)
(0,0,0)
(0,0,0)
(3.22702080384494e-14,9.11167706808156e-12,-8.16530394961884e-12)
(-9.0270968090883e-13,1.89729904024139e-11,-7.54573665869053e-12)
(-1.55130841395609e-12,3.14685457304145e-11,-6.80285021796868e-12)
(-5.99856140826305e-13,4.9860663469664e-11,-6.26610204727033e-12)
(-1.06836205347637e-12,7.58395934931739e-11,-5.23955900041113e-12)
(-2.74577979350774e-12,1.17014241574773e-10,-3.53576810544438e-12)
(-4.35260827743306e-12,1.84709527378304e-10,-1.61117291623605e-12)
(-6.53219889758729e-12,2.96325885885379e-10,-4.8056937621831e-13)
(-7.53733942748902e-12,4.81121844435899e-10,-3.12745762833627e-13)
(-8.86959958821092e-12,7.39546197991423e-10,-1.09299224027255e-13)
(0,0,0)
(0,0,0)
(0,0,0)
(0,0,0)
(0,0,0)
(0,0,0)
(-1.88334738496533e-13,8.51571930477192e-12,-1.87391017696204e-11)
(-1.12261788263695e-12,1.79015990302126e-11,-1.75423206236465e-11)
(-1.73062067405191e-12,3.03049141709675e-11,-1.62592376720207e-11)
(-1.78002573231456e-13,4.85065426173275e-11,-1.47004397308854e-11)
(-9.02875613162703e-13,7.41546879161396e-11,-1.16569286531225e-11)
(-3.44601494201332e-12,1.15391841655066e-10,-7.86105354518709e-12)
(-7.06035165024045e-12,1.8370817970098e-10,-4.1819289496125e-12)
(-1.19097079843772e-11,2.96262450401152e-10,-1.8555799973183e-12)
(-1.54053523917293e-11,4.81207518994645e-10,-1.0023985933992e-12)
(-1.80113036611282e-11,7.39099274587633e-10,-3.05176239976921e-13)
(0,0,0)
(0,0,0)
(0,0,0)
(0,0,0)
(0,0,0)
(0,0,0)
(-4.23888436907438e-13,7.77532922419242e-12,-3.06554610063665e-11)
(-7.41122105667176e-13,1.64625563821854e-11,-2.93192990281667e-11)
(-5.96746838982989e-13,2.79371371414118e-11,-2.78438876020611e-11)
(5.96590325341421e-13,4.50772653521809e-11,-2.54140155760381e-11)
(-6.1242420123969e-13,7.04854644268109e-11,-2.0927277658578e-11)
(-3.7607534294367e-12,1.12097548486059e-10,-1.54717163622385e-11)
(-8.92121618731325e-12,1.81539748748504e-10,-1.03794380715846e-11)
(-1.58875414101832e-11,2.95491878007035e-10,-7.01284700214245e-12)
(-2.19270344641532e-11,4.80824609672839e-10,-4.49193239121716e-12)
(-2.46071293133759e-11,7.38421684786107e-10,-2.0150777006359e-12)
(0,0,0)
(0,0,0)
(0,0,0)
(0,0,0)
(0,0,0)
(0,0,0)
(3.99721767181655e-14,7.09558786870406e-12,-4.75858028626787e-11)
(6.44755751966452e-13,1.49177649177617e-11,-4.68011966739057e-11)
(1.41522376124071e-12,2.48440709339598e-11,-4.52698516499642e-11)
(1.91515887122409e-12,4.0167877057609e-11,-4.17369101825363e-11)
(2.18449873764843e-13,6.48627001271933e-11,-3.65084288266067e-11)
(-3.47233872632528e-12,1.0671334093713e-10,-3.048151892091e-11)
(-1.03038192599752e-11,1.77708581645598e-10,-2.4248696518162e-11)
(-1.90531842606865e-11,2.93250883006921e-10,-1.86061080582132e-11)
(-2.64847145567055e-11,4.79065894139849e-10,-1.26934321134672e-11)
(-3.0066151025241e-11,7.36940737361594e-10,-6.49968508525173e-12)
(0,0,0)
(0,0,0)
(0,0,0)
(0,0,0)
(0,0,0)
(0,0,0)
(9.4489471034528e-13,6.59715374340865e-12,-7.3339131499034e-11)
(2.66330166480993e-12,1.30763222140949e-11,-7.2657492029939e-11)
(3.18257222477262e-12,2.09365127341338e-11,-7.09194345058359e-11)
(2.69245587002319e-12,3.4509090455787e-11,-6.75617327164801e-11)
(-2.35160089430285e-14,5.78684589275584e-11,-6.30894806497398e-11)
(-4.5738520218384e-12,9.87725393637441e-11,-5.77145832049396e-11)
(-1.23358774302998e-11,1.70527426440366e-10,-5.12946627042121e-11)
(-2.10961017887847e-11,2.87909512115973e-10,-4.13349837070333e-11)
(-2.8635127798955e-11,4.73957568853278e-10,-2.89049810768695e-11)
(-3.32691925437181e-11,7.31513388155907e-10,-1.49582443151193e-11)
(0,0,0)
(0,0,0)
(0,0,0)
(0,0,0)
(0,0,0)
(0,0,0)
(1.01250582635495e-12,5.70169464625e-12,-1.1279233070424e-10)
(2.71879170777492e-12,1.07815265121237e-11,-1.11796975379504e-10)
(2.04973909834653e-12,1.68351707518447e-11,-1.10468034688741e-10)
(3.74282004305201e-13,2.84988191451239e-11,-1.08272547756627e-10)
(-2.93791527960095e-12,4.9707812548079e-11,-1.04952779151507e-10)
(-7.76094039480159e-12,8.92097208244244e-11,-1.00139326657047e-10)
(-1.4113606648863e-11,1.61097669830289e-10,-9.18757163801798e-11)
(-2.16237990312612e-11,2.77124626128181e-10,-7.65403210669952e-11)
(-2.872059717757e-11,4.61255804874546e-10,-5.49878268799703e-11)
(-3.33400997831293e-11,7.17225885822288e-10,-2.90326584326571e-11)
(0,0,0)
(0,0,0)
(0,0,0)
(0,0,0)
(0,0,0)
(0,0,0)
(6.2289351857269e-13,4.42814121736724e-12,-1.77238302177833e-10)
(9.02874132133634e-13,8.63794909228976e-12,-1.76191090571606e-10)
(-1.41505164052876e-12,1.33182916350286e-11,-1.75495918901218e-10)
(-4.07016295624748e-12,2.29251625512523e-11,-1.74555203953052e-10)
(-8.0437936406202e-12,4.20132151024534e-11,-1.7210242467206e-10)
(-1.31380588952027e-11,7.85273179205655e-11,-1.66611031454341e-10)
(-1.77733585456772e-11,1.46571226615798e-10,-1.54132647793363e-10)
(-2.34988814839347e-11,2.5724248420077e-10,-1.32344732218905e-10)
(-2.93679822445132e-11,4.36281765408194e-10,-9.84994777664451e-11)
(-3.26854257624572e-11,6.88332964869423e-10,-5.35836060903331e-11)
(0,0,0)
(0,0,0)
(0,0,0)
(0,0,0)
(0,0,0)
(0,0,0)
(-1.95330332486417e-13,2.91946132182574e-12,-2.8654237140558e-10)
(-8.83489071678149e-13,6.49219572533979e-12,-2.86218216023422e-10)
(-3.92269193718531e-12,1.03488043749776e-11,-2.85653800441745e-10)
(-7.30689118860527e-12,1.82084925467997e-11,-2.84912947439842e-10)
(-1.11402266552804e-11,3.48651110111786e-11,-2.8234812792753e-10)
(-1.59865596481573e-11,6.69375082046639e-11,-2.75079377815708e-10)
(-2.10077254530362e-11,1.25562315612153e-10,-2.58672678510184e-10)
(-2.53119612567481e-11,2.24243395892691e-10,-2.27136128535785e-10)
(-2.94651271377936e-11,3.91689977478357e-10,-1.75426498352979e-10)
(-3.08751060384739e-11,6.34232522217844e-10,-9.93334288071456e-11)
(0,0,0)
(0,0,0)
(0,0,0)
(0,0,0)
(0,0,0)
(0,0,0)
(-2.0152141453037e-12,1.66831366736199e-12,-4.68459712852872e-10)
(-4.06761426741946e-12,4.4541176131729e-12,-4.69215686816427e-10)
(-7.1635889051987e-12,7.60000903211262e-12,-4.68950575912266e-10)
(-1.08932629459808e-11,1.32552575648855e-11,-4.67567862195018e-10)
(-1.42594708330097e-11,2.55469576894892e-11,-4.6385816419126e-10)
(-1.92657943345187e-11,4.98352926878959e-11,-4.53947685102746e-10)
(-2.40881988109219e-11,9.3823501857653e-11,-4.3219497996608e-10)
(-2.70139275718556e-11,1.72632959146109e-10,-3.90272022088735e-10)
(-2.98428785023438e-11,3.15728880126442e-10,-3.15622197701656e-10)
(-3.09379304019595e-11,5.34946129282361e-10,-1.89454513965305e-10)
(0,0,0)
(0,0,0)
(0,0,0)
(0,0,0)
(0,0,0)
(0,0,0)
(-3.63960281691484e-12,8.04512957687781e-13,-7.23941152708058e-10)
(-7.07316670972929e-12,2.32776046773326e-12,-7.25226517677802e-10)
(-9.54646380800263e-12,4.08779925792648e-12,-7.25476843365741e-10)
(-1.23965062699016e-11,7.12635451870503e-12,-7.23983390673975e-10)
(-1.56679040554091e-11,1.37323951426545e-11,-7.19369537180289e-10)
(-2.06255452343047e-11,2.68774030981872e-11,-7.07706768483731e-10)
(-2.48934782671734e-11,5.11326954614129e-11,-6.821716101779e-10)
(-2.75194614874621e-11,9.77601730963241e-11,-6.31673589595643e-10)
(-3.04276598051273e-11,1.89574353908941e-10,-5.33949568921879e-10)
(-3.2208983185788e-11,3.45751470418557e-10,-3.44844603837762e-10)
(0,0,0)
(0,0,0)
(0,0,0)
(0,0,0)
(0,0,0)
(0,0,0)
(0,0,0)
(0,0,0)
(0,0,0)
(0,0,0)
(0,0,0)
(0,0,0)
(0,0,0)
(0,0,0)
(0,0,0)
(0,0,0)
(0,0,0)
(0,0,0)
(0,0,0)
(0,0,0)
(0,0,0)
(0,0,0)
(0,0,0)
(0,0,0)
(0,0,0)
(0,0,0)
(0,0,0)
(0,0,0)
(0,0,0)
(0,0,0)
(0,0,0)
(0,0,0)
(0,0,0)
(0,0,0)
(0,0,0)
(0,0,0)
(0,0,0)
(0,0,0)
(0,0,0)
(0,0,0)
(0,0,0)
(0,0,0)
(0,0,0)
(0,0,0)
(0,0,0)
(0,0,0)
(0,0,0)
(0,0,0)
(0,0,0)
(0,0,0)
(0,0,0)
(0,0,0)
(0,0,0)
(0,0,0)
(0,0,0)
(0,0,0)
(0,0,0)
(0,0,0)
(0,0,0)
(0,0,0)
(0,0,0)
(0,0,0)
(0,0,0)
(0,0,0)
(0,0,0)
(0,0,0)
(0,0,0)
(0,0,0)
(0,0,0)
(0,0,0)
(0,0,0)
(0,0,0)
(0,0,0)
(0,0,0)
(0,0,0)
(0,0,0)
(0,0,0)
(0,0,0)
(0,0,0)
(0,0,0)
(0,0,0)
(0,0,0)
(0,0,0)
(0,0,0)
(0,0,0)
(0,0,0)
(0,0,0)
(0,0,0)
(0,0,0)
(0,0,0)
(0,0,0)
(0,0,0)
(0,0,0)
(0,0,0)
(0,0,0)
(0,0,0)
(0,0,0)
(0,0,0)
(0,0,0)
(0,0,0)
(0,0,0)
(0,0,0)
(8.66068042406165e-15,1.71173982063585e-11,-1.53916615841129e-11)
(-5.7420474943541e-13,3.53807056691127e-11,-1.42095583297622e-11)
(-9.24425025212687e-13,5.86904615549038e-11,-1.28082209266047e-11)
(-2.722783353659e-13,9.09804950529031e-11,-1.12585518124429e-11)
(-1.08724737144043e-12,1.37444995985715e-10,-8.45588155863641e-12)
(-3.04797506294438e-12,2.09318687387559e-10,-4.71372881635437e-12)
(-4.48186414005334e-12,3.25915584333905e-10,-1.59382170404792e-12)
(-6.63658702697807e-12,5.20812489009351e-10,2.27660899708297e-13)
(-7.82646052511156e-12,8.90767569066136e-10,4.27483852343657e-13)
(-8.53197540878777e-12,1.73735645661629e-09,2.47188674070024e-13)
(0,0,0)
(0,0,0)
(0,0,0)
(0,0,0)
(0,0,0)
(0,0,0)
(-6.44725803890565e-13,1.63900433673229e-11,-3.43875055767812e-11)
(-9.66658186231218e-13,3.38216942721176e-11,-3.26044961802953e-11)
(-9.21641585620214e-13,5.66380637256604e-11,-2.99965686787515e-11)
(2.07763614160443e-13,8.81520056776152e-11,-2.59184348150575e-11)
(-1.0295272317317e-12,1.33775847490065e-10,-1.91692605848215e-11)
(-3.83084636857432e-12,2.05937405449671e-10,-1.13319547554704e-11)
(-7.21826965010791e-12,3.23942987588749e-10,-4.54112713041788e-12)
(-1.19923169940805e-11,5.20804799560002e-10,-8.76394446388945e-13)
(-1.57196654229988e-11,8.91199400712235e-10,5.9649008642574e-14)
(-1.76388900993839e-11,1.73731685661304e-09,1.99515330671264e-13)
(0,0,0)
(0,0,0)
(0,0,0)
(0,0,0)
(0,0,0)
(0,0,0)
(-1.08030905961695e-12,1.49909977779445e-11,-5.71842776568298e-11)
(-6.71742067347903e-13,3.09191693947219e-11,-5.53171900379849e-11)
(6.64473424565931e-14,5.19412587850811e-11,-5.2157447309926e-11)
(1.01924070245544e-12,8.13995283277668e-11,-4.61657684237427e-11)
(-4.45221198017684e-13,1.2604363146902e-10,-3.63966989428265e-11)
(-3.46882417118779e-12,1.99049606175206e-10,-2.43926549312035e-11)
(-8.45664015383757e-12,3.20495874267924e-10,-1.29333406881595e-11)
(-1.61674610210051e-11,5.20853624779172e-10,-7.32863292438179e-12)
(-2.26451736218648e-11,8.9182824993343e-10,-4.56406809209292e-12)
(-2.51412595896587e-11,1.73745949534878e-09,-2.35482987081516e-12)
(0,0,0)
(0,0,0)
(0,0,0)
(0,0,0)
(0,0,0)
(0,0,0)
(-2.46199886760649e-13,1.31212769030442e-11,-8.73278599612692e-11)
(9.54853431692008e-13,2.70562763271376e-11,-8.60928351256383e-11)
(1.7898404936317e-12,4.51216136297902e-11,-8.29435998893396e-11)
(2.34546411712064e-12,7.11673665208207e-11,-7.61551347367913e-11)
(1.18578116769713e-12,1.13384677664905e-10,-6.54624968992946e-11)
(-1.76435955567721e-12,1.86545116747413e-10,-5.15548560884881e-11)
(-8.7652525147166e-12,3.13581025207145e-10,-3.64550992970678e-11)
(-1.96244893145369e-11,5.19698722888421e-10,-2.70150329193208e-11)
(-2.75701362980726e-11,8.9142004707193e-10,-1.90964431813849e-11)
(-3.11384869047589e-11,1.73660650286738e-09,-1.02961920094195e-11)
(0,0,0)
(0,0,0)
(0,0,0)
(0,0,0)
(0,0,0)
(0,0,0)
(1.15871433840802e-12,1.11610403637128e-11,-1.32425715838313e-10)
(3.22003984267511e-12,2.23334415419879e-11,-1.3121527115506e-10)
(3.92621241770387e-12,3.6545584700394e-11,-1.28083626208256e-10)
(4.23047511395366e-12,5.87365590816794e-11,-1.22573842859763e-10)
(2.76223292575785e-12,9.66987713575636e-11,-1.13862372154956e-10)
(-1.43095398329955e-12,1.66489261442831e-10,-1.02909180066619e-10)
(-1.28657998173132e-11,2.9721616176313e-10,-9.35115849243035e-11)
(-2.27412184310521e-11,5.13696736692566e-10,-7.26625693514174e-11)
(-2.98801005819775e-11,8.85476364837442e-10,-5.0384083559102e-11)
(-3.39399345256079e-11,1.72896095957595e-09,-2.60507605851639e-11)
(0,0,0)
(0,0,0)
(0,0,0)
(0,0,0)
(0,0,0)
(0,0,0)
(1.29070393050248e-12,9.08695962046944e-12,-2.00427799540437e-10)
(3.53342843684542e-12,1.77525813789571e-11,-1.99452882412125e-10)
(3.3711312830446e-12,2.85840290404374e-11,-1.9729500131488e-10)
(2.62816999305011e-12,4.66297041233584e-11,-1.93573347807048e-10)
(-5.67703284356173e-14,7.95794064209772e-11,-1.87416844367313e-10)
(-5.34214776782031e-12,1.46735596907948e-10,-1.78827022589511e-10)
(-1.49225587475135e-11,2.8371477693295e-10,-1.66906983917392e-10)
(-2.32941512908567e-11,4.97979615970518e-10,-1.38605894398077e-10)
(-2.97017261585077e-11,8.65335529140442e-10,-9.87394282361847e-11)
(-3.34798372625653e-11,1.70556718438457e-09,-5.16994578992445e-11)
(0,0,0)
(0,0,0)
(0,0,0)
(0,0,0)
(0,0,0)
(0,0,0)
(1.08436180788763e-12,6.86025363739142e-12,-3.10004608304816e-10)
(2.35345582869514e-12,1.36437245473587e-11,-3.09417537936733e-10)
(6.13720671359399e-13,2.15490281670758e-11,-3.08473318866577e-10)
(-1.80627223278889e-12,3.56947731601235e-11,-3.07127489802761e-10)
(-6.38708276705002e-12,6.36613601789793e-11,-3.04215126453589e-10)
(-1.40266328402558e-11,1.23850054743643e-10,-2.97327728195639e-10)
(-1.85523631164727e-11,2.583776967327e-10,-2.75023260156016e-10)
(-2.43450476283481e-11,4.63431265842454e-10,-2.40375836971565e-10)
(-2.96920659910264e-11,8.21531686415413e-10,-1.76933093526992e-10)
(-3.21685892006825e-11,1.65532342546876e-09,-9.52758771953481e-11)
(0,0,0)
(0,0,0)
(0,0,0)
(0,0,0)
(0,0,0)
(0,0,0)
(7.31661939819534e-13,4.50786347124332e-12,-4.99096901805378e-10)
(5.90173458810853e-13,9.82417853674386e-12,-4.99043758984692e-10)
(-1.91474959622203e-12,1.60829180051909e-11,-4.98487136821246e-10)
(-4.918475719005e-12,2.80103564725193e-11,-4.97943066232932e-10)
(-9.09082344543266e-12,5.39838912122397e-11,-4.95684043103763e-10)
(-1.52910434369042e-11,1.10054168725645e-10,-4.87139096619235e-10)
(-2.08054616729392e-11,2.23790272506372e-10,-4.62054275766873e-10)
(-2.54111546930997e-11,4.01758098946461e-10,-4.05454521812912e-10)
(-2.95970993315593e-11,7.40977039025715e-10,-3.11687312235589e-10)
(-3.09221419107077e-11,1.55997799614552e-09,-1.7703382393233e-10)
(0,0,0)
(0,0,0)
(0,0,0)
(0,0,0)
(0,0,0)
(0,0,0)
(-3.95439472074871e-13,2.79789524018639e-12,-8.63935919628698e-10)
(-2.20636802613898e-12,6.57773922597792e-12,-8.64656238423153e-10)
(-5.03409284825941e-12,1.1431540763686e-11,-8.64416171135394e-10)
(-8.47405790355374e-12,2.05746079684556e-11,-8.63101353946274e-10)
(-1.23553873746792e-11,4.10930659402438e-11,-8.58717621544136e-10)
(-1.80606098814914e-11,8.45049431219669e-11,-8.44623836362294e-10)
(-2.33203502920268e-11,1.66318157253616e-10,-8.09359672700753e-10)
(-2.67909659091445e-11,3.07681850526084e-10,-7.3542160319688e-10)
(-2.98560360212654e-11,6.05882095189604e-10,-6.04042268881244e-10)
(-3.11977855031856e-11,1.38238045066282e-09,-3.77116282671639e-10)
(0,0,0)
(0,0,0)
(0,0,0)
(0,0,0)
(0,0,0)
(0,0,0)
(-1.54972488948307e-12,1.52695276524958e-12,-1.70696353336152e-09)
(-4.49508055405735e-12,3.40506981192574e-12,-1.70770519405305e-09)
(-6.95211724184323e-12,5.79264627239621e-12,-1.70758914907643e-09)
(-9.88400524488102e-12,1.0807964021307e-11,-1.70618636744943e-09)
(-1.35982776093157e-11,2.2341013275226e-11,-1.70024827462669e-09)
(-1.92833004419532e-11,4.61033709066798e-11,-1.68241840600051e-09)
(-2.42588033880253e-11,9.02385438010192e-11,-1.640076431183e-09)
(-2.74833090648854e-11,1.74896629214502e-10,-1.55228641810661e-09)
(-2.99582709803079e-11,3.77814254401507e-10,-1.37897069536699e-09)
(-3.1302116604961e-11,1.0042903132029e-09,-1.00266483765654e-09)
(0,0,0)
(0,0,0)
(0,0,0)
(0,0,0)
(0,0,0)
(0,0,0)
(0,0,0)
(0,0,0)
(0,0,0)
(0,0,0)
(0,0,0)
(0,0,0)
(0,0,0)
(0,0,0)
(0,0,0)
(0,0,0)
(0,0,0)
(0,0,0)
(0,0,0)
(0,0,0)
(0,0,0)
(0,0,0)
(0,0,0)
(0,0,0)
(0,0,0)
(0,0,0)
(0,0,0)
(0,0,0)
(0,0,0)
(0,0,0)
(0,0,0)
(0,0,0)
(0,0,0)
(0,0,0)
(0,0,0)
(0,0,0)
(0,0,0)
(0,0,0)
(0,0,0)
(0,0,0)
(0,0,0)
(0,0,0)
(0,0,0)
(0,0,0)
(0,0,0)
(0,0,0)
(0,0,0)
(0,0,0)
(0,0,0)
(0,0,0)
(0,0,0)
(0,0,0)
(0,0,0)
(0,0,0)
(0,0,0)
(0,0,0)
(0,0,0)
(0,0,0)
(0,0,0)
(0,0,0)
(0,0,0)
(0,0,0)
(0,0,0)
(0,0,0)
(0,0,0)
(0,0,0)
(0,0,0)
(0,0,0)
(0,0,0)
(0,0,0)
(0,0,0)
(0,0,0)
(0,0,0)
(0,0,0)
(0,0,0)
(0,0,0)
(0,0,0)
(0,0,0)
(0,0,0)
(0,0,0)
(0,0,0)
(0,0,0)
(0,0,0)
(0,0,0)
(0,0,0)
(0,0,0)
(0,0,0)
(0,0,0)
(0,0,0)
(0,0,0)
(0,0,0)
(0,0,0)
(0,0,0)
(0,0,0)
(0,0,0)
(0,0,0)
(0,0,0)
(0,0,0)
(0,0,0)
(0,0,0)
(0,0,0)
(0,0,0)
(-4.46087734827798e-13,2.24067578404742e-11,-2.09449890055552e-11)
(-4.16530756102743e-13,4.70237879490524e-11,-1.99061322907361e-11)
(-4.2169630975608e-13,7.79906198196736e-11,-1.80599908041983e-11)
(-2.46459213410627e-13,1.18992173900648e-10,-1.50922594527217e-11)
(-1.16025161855256e-12,1.77363143165731e-10,-1.00147727900619e-11)
(-2.78660023732736e-12,2.6276652994006e-10,-3.62778514400061e-12)
(-4.33074999892914e-12,3.88836662398488e-10,1.70260153075617e-12)
(-6.82872053031805e-12,5.6807081838749e-10,4.04344931469016e-12)
(-8.07799699287173e-12,8.2082835403199e-10,3.32119330124935e-12)
(-8.24518673148177e-12,1.12757522285682e-09,1.67768488356283e-12)
(0,0,0)
(0,0,0)
(0,0,0)
(0,0,0)
(0,0,0)
(0,0,0)
(-1.02868961079013e-12,2.11898253637491e-11,-4.56008064340033e-11)
(-6.72060811011318e-13,4.46650558803077e-11,-4.4117547294626e-11)
(-3.02970508964499e-13,7.45566720369748e-11,-4.03858039043681e-11)
(2.11066734104736e-13,1.14084230862569e-10,-3.35714240202182e-11)
(-1.13461703972465e-12,1.71157944529591e-10,-2.26965267266287e-11)
(-3.73387471924074e-12,2.5742626657018e-10,-8.92869650210388e-12)
(-7.43588901461646e-12,3.86899528167687e-10,3.94095658152526e-12)
(-1.29771856669029e-11,5.69161499060308e-10,7.83903767723889e-12)
(-1.64883809665154e-11,8.22788648400946e-10,5.84630422672173e-12)
(-1.7582013504299e-11,1.12980164773026e-09,2.78970694987047e-12)
(0,0,0)
(0,0,0)
(0,0,0)
(0,0,0)
(0,0,0)
(0,0,0)
(-1.07767580500572e-12,1.90772517639561e-11,-7.55213999877484e-11)
(3.14082733101879e-14,4.00764762128685e-11,-7.35932400789737e-11)
(8.94413611891178e-13,6.71305782186089e-11,-6.86336144065998e-11)
(1.4823330282698e-12,1.03459379298009e-10,-5.88169795408264e-11)
(2.09688593779359e-13,1.57953687540497e-10,-4.27906806345257e-11)
(-2.42364898651463e-12,2.45464073732712e-10,-2.0188571608538e-11)
(-7.14649885556282e-12,3.84491179377037e-10,5.0546224732378e-12)
(-1.77771239635428e-11,5.7363345234575e-10,8.36085361393331e-12)
(-2.44462089810542e-11,8.27934038054678e-10,4.07788393464781e-12)
(-2.66430969795385e-11,1.1344835732039e-09,1.00130234934729e-12)
(0,0,0)
(0,0,0)
(0,0,0)
(0,0,0)
(0,0,0)
(0,0,0)
(4.79011816576343e-13,1.60872247603705e-11,-1.15008864809004e-10)
(2.52845298134686e-12,3.38941033597829e-11,-1.13057207676324e-10)
(3.57740427006794e-12,5.65001427029908e-11,-1.07705317052192e-10)
(4.08363371824632e-12,8.72105632593457e-11,-9.69514470479917e-11)
(3.96404666477166e-12,1.35228593481475e-10,-7.88175228792385e-11)
(3.19173895756677e-12,2.20346317782464e-10,-5.04223056886018e-11)
(-1.84045544856302e-12,3.78626902562477e-10,-1.12435530813247e-11)
(-2.15410928570091e-11,5.82959311958599e-10,-1.02438649758928e-11)
(-3.04267052351194e-11,8.35221396924283e-10,-1.25547719744781e-11)
(-3.37891356224075e-11,1.13859379889049e-09,-8.56840531621912e-12)
(0,0,0)
(0,0,0)
(0,0,0)
(0,0,0)
(0,0,0)
(0,0,0)
(2.02235039833543e-12,1.27670538668226e-11,-1.70931851748826e-10)
(4.66925505932067e-12,2.68446856318784e-11,-1.6901790445253e-10)
(6.37798472880376e-12,4.39174342784622e-11,-1.64329512986418e-10)
(7.62585936701916e-12,6.71550732281643e-11,-1.55493995239338e-10)
(8.9284057753407e-12,1.03395686842119e-10,-1.40838485324138e-10)
(8.92511540871283e-12,1.71865127442387e-10,-1.23383321875301e-10)
(-2.02134305604479e-11,3.33164689270205e-10,-1.32566825048927e-10)
(-2.93025835022097e-11,5.92118879498964e-10,-8.61492340502536e-11)
(-3.40725878572357e-11,8.37631248323221e-10,-5.8038060714831e-11)
(-3.65969199195705e-11,1.13399346192974e-09,-3.01685181841853e-11)
(0,0,0)
(0,0,0)
(0,0,0)
(0,0,0)
(0,0,0)
(0,0,0)
(2.54249278585187e-12,9.58659436746996e-12,-2.49915006523129e-10)
(5.48440417072591e-12,2.00918671257353e-11,-2.48919727936269e-10)
(6.68447864821024e-12,3.201616245416e-11,-2.46037973880304e-10)
(7.40659751768537e-12,4.77159476020278e-11,-2.40400147943415e-10)
(7.27145413491359e-12,7.35617652877216e-11,-2.31524975507749e-10)
(5.62335572469072e-12,1.36214826176862e-10,-2.20922011038116e-10)
(-1.78865680666124e-11,3.37306016680986e-10,-2.24678537667991e-10)
(-2.86122673251376e-11,5.82854643595549e-10,-1.78882482830436e-10)
(-3.29378537702284e-11,8.17908387989891e-10,-1.23473797356092e-10)
(-3.49355362463349e-11,1.10771783429807e-09,-6.34730037517777e-11)
(0,0,0)
(0,0,0)
(0,0,0)
(0,0,0)
(0,0,0)
(0,0,0)
(2.84968160646873e-12,6.95093518711103e-12,-3.65879864232735e-10)
(5.22878276880396e-12,1.43196176276093e-11,-3.65697011211277e-10)
(4.73400176910772e-12,2.18975686421338e-11,-3.64986428023561e-10)
(2.96578110590742e-12,3.10508355151384e-11,-3.64231426026435e-10)
(-3.5970120578942e-12,4.51313474304436e-11,-3.66140504590267e-10)
(-2.25352148620734e-11,8.36464710227983e-11,-3.7305585644694e-10)
(-1.86123620745333e-11,3.06609640569639e-10,-3.29513639780389e-10)
(-2.61146241771734e-11,5.43414984570441e-10,-3.15786957881937e-10)
(-3.07946349325625e-11,7.65037950473412e-10,-2.18360727918272e-10)
(-3.20990370729512e-11,1.04746881667878e-09,-1.12231062055112e-10)
(0,0,0)
(0,0,0)
(0,0,0)
(0,0,0)
(0,0,0)
(0,0,0)
(2.38848735055482e-12,4.77640560040232e-12,-5.36632516640099e-10)
(3.27999060589177e-12,9.92136756752091e-12,-5.36682098594025e-10)
(2.19255705631431e-12,1.54686481577003e-11,-5.37220016751434e-10)
(2.58249657073309e-13,2.44520993078576e-11,-5.38730683845905e-10)
(-4.74494465842488e-12,4.54017137257653e-11,-5.42359218747283e-10)
(-1.48266386855681e-11,1.0533271982515e-10,-5.47822911240125e-10)
(-1.99331003735948e-11,2.79263643554013e-10,-5.37194813395771e-10)
(-2.51021158510832e-11,4.49419203769047e-10,-4.5724493633196e-10)
(-2.91556437985681e-11,6.61511567095599e-10,-3.3241029091782e-10)
(-3.03584203600347e-11,9.36555939255492e-10,-1.78970908947422e-10)
(0,0,0)
(0,0,0)
(0,0,0)
(0,0,0)
(0,0,0)
(0,0,0)
(1.59582179666093e-12,2.78230893263612e-12,-7.8385380496879e-10)
(7.26234100228148e-13,6.45418757012259e-12,-7.84123218899025e-10)
(-7.1001554620732e-13,1.10069448001816e-11,-7.84703077991498e-10)
(-3.09114635827956e-12,1.98219525803777e-11,-7.85187166925094e-10)
(-7.69711989092645e-12,4.11341924979705e-11,-7.84092165673068e-10)
(-1.49232013278333e-11,9.18992109390796e-11,-7.75589367114206e-10)
(-2.11788063436573e-11,1.9699300944609e-10,-7.43116187289854e-10)
(-2.53850789138092e-11,3.24956466956291e-10,-6.5304864387062e-10)
(-2.87141814419816e-11,5.07822282922594e-10,-5.05305058386375e-10)
(-3.02239307151577e-11,7.56990217778961e-10,-2.89864923392827e-10)
(0,0,0)
(0,0,0)
(0,0,0)
(0,0,0)
(0,0,0)
(0,0,0)
(7.18888566845843e-13,1.26718833976492e-12,-1.08804227727381e-09)
(-1.20605571931444e-12,3.19122615024662e-12,-1.08825251431718e-09)
(-2.56225259597443e-12,5.66767092281735e-12,-1.08862016274074e-09)
(-5.01413404686164e-12,1.11754821827147e-11,-1.08846553631501e-09)
(-9.08713295968384e-12,2.43603297599486e-11,-1.0842403958801e-09)
(-1.55219043531745e-11,5.21418928287296e-11,-1.06699379352602e-09)