/*--------------------------------*- C++ -*----------------------------------*\
| =========                 |                                                 |
| \\      /  F ield         | foam-extend: Open Source CFD                    |
|  \\    /   O peration     | Version:     4.0                                |
|   \\  /    A nd           | Web:         http://www.foam-extend.org         |
|    \\/     M anipulation  |                                                 |
\*---------------------------------------------------------------------------*/
FoamFile
{
    version 2.0;
    format ascii;
    class volVectorField;
    location "3671";
    object      H;
}
// * * * * * * * * * * * * * * * * * * * * * * * * * * * * * * * * * * * * * //

dimensions      [0 1 -1 0 0 0 0];

internalField   nonuniform List<vector>
4096
(
(0,0,0)
(0,0,0)
(0,0,0)
(0,0,0)
(0,0,0)
(0,0,0)
(0,0,0)
(0,0,0)
(0,0,0)
(0,0,0)
(0,0,0)
(0,0,0)
(0,0,0)
(0,0,0)
(0,0,0)
(0,0,0)
(0,0,0)
(0,0,0)
(0,0,0)
(0,0,0)
(0,0,0)
(0,0,0)
(0,0,0)
(0,0,0)
(0,0,0)
(0,0,0)
(0,0,0)
(0,0,0)
(0,0,0)
(0,0,0)
(0,0,0)
(0,0,0)
(0,0,0)
(0,0,0)
(0,0,0)
(0,0,0)
(0,0,0)
(0,0,0)
(0,0,0)
(0,0,0)
(0,0,0)
(0,0,0)
(0,0,0)
(0,0,0)
(0,0,0)
(0,0,0)
(0,0,0)
(0,0,0)
(0,0,0)
(0,0,0)
(0,0,0)
(0,0,0)
(0,0,0)
(0,0,0)
(0,0,0)
(0,0,0)
(0,0,0)
(0,0,0)
(0,0,0)
(0,0,0)
(0,0,0)
(0,0,0)
(0,0,0)
(0,0,0)
(0,0,0)
(0,0,0)
(0,0,0)
(0,0,0)
(0,0,0)
(0,0,0)
(0,0,0)
(0,0,0)
(0,0,0)
(0,0,0)
(0,0,0)
(0,0,0)
(0,0,0)
(0,0,0)
(0,0,0)
(0,0,0)
(0,0,0)
(0,0,0)
(0,0,0)
(0,0,0)
(0,0,0)
(0,0,0)
(0,0,0)
(0,0,0)
(0,0,0)
(0,0,0)
(0,0,0)
(0,0,0)
(0,0,0)
(0,0,0)
(0,0,0)
(0,0,0)
(0,0,0)
(0,0,0)
(0,0,0)
(0,0,0)
(0,0,0)
(0,0,0)
(0,0,0)
(0,0,0)
(0,0,0)
(0,0,0)
(0,0,0)
(0,0,0)
(0,0,0)
(0,0,0)
(0,0,0)
(0,0,0)
(0,0,0)
(0,0,0)
(0,0,0)
(0,0,0)
(0,0,0)
(0,0,0)
(0,0,0)
(0,0,0)
(0,0,0)
(0,0,0)
(0,0,0)
(0,0,0)
(0,0,0)
(0,0,0)
(0,0,0)
(0,0,0)
(0,0,0)
(0,0,0)
(0,0,0)
(0,0,0)
(0,0,0)
(0,0,0)
(0,0,0)
(0,0,0)
(0,0,0)
(0,0,0)
(0,0,0)
(0,0,0)
(0,0,0)
(0,0,0)
(0,0,0)
(0,0,0)
(0,0,0)
(0,0,0)
(0,0,0)
(0,0,0)
(0,0,0)
(0,0,0)
(0,0,0)
(0,0,0)
(0,0,0)
(0,0,0)
(0,0,0)
(0,0,0)
(0,0,0)
(0,0,0)
(0,0,0)
(0,0,0)
(0,0,0)
(0,0,0)
(0,0,0)
(0,0,0)
(0,0,0)
(0,0,0)
(0,0,0)
(0,0,0)
(0,0,0)
(0,0,0)
(0,0,0)
(0,0,0)
(0,0,0)
(0,0,0)
(0,0,0)
(0,0,0)
(0,0,0)
(0,0,0)
(0,0,0)
(0,0,0)
(0,0,0)
(0,0,0)
(0,0,0)
(0,0,0)
(0,0,0)
(0,0,0)
(0,0,0)
(0,0,0)
(0,0,0)
(0,0,0)
(0,0,0)
(0,0,0)
(0,0,0)
(0,0,0)
(0,0,0)
(0,0,0)
(0,0,0)
(0,0,0)
(0,0,0)
(0,0,0)
(0,0,0)
(0,0,0)
(0,0,0)
(0,0,0)
(0,0,0)
(0,0,0)
(0,0,0)
(0,0,0)
(0,0,0)
(0,0,0)
(0,0,0)
(0,0,0)
(0,0,0)
(0,0,0)
(0,0,0)
(0,0,0)
(0,0,0)
(0,0,0)
(0,0,0)
(0,0,0)
(0,0,0)
(0,0,0)
(0,0,0)
(0,0,0)
(0,0,0)
(0,0,0)
(0,0,0)
(0,0,0)
(0,0,0)
(0,0,0)
(0,0,0)
(0,0,0)
(0,0,0)
(0,0,0)
(0,0,0)
(0,0,0)
(0,0,0)
(0,0,0)
(0,0,0)
(0,0,0)
(0,0,0)
(0,0,0)
(0,0,0)
(0,0,0)
(0,0,0)
(0,0,0)
(0,0,0)
(0,0,0)
(0,0,0)
(0,0,0)
(0,0,0)
(0,0,0)
(0,0,0)
(0,0,0)
(0,0,0)
(0,0,0)
(0,0,0)
(0,0,0)
(0,0,0)
(0,0,0)
(0,0,0)
(0,0,0)
(0,0,0)
(0,0,0)
(0,0,0)
(0,0,0)
(0,0,0)
(0,0,0)
(0,0,0)
(0,0,0)
(0,0,0)
(0,0,0)
(0,0,0)
(0,0,0)
(0,0,0)
(0,0,0)
(0,0,0)
(0,0,0)
(0,0,0)
(0,0,0)
(0,0,0)
(0,0,0)
(0,0,0)
(0,0,0)
(0,0,0)
(0,0,0)
(0,0,0)
(0,0,0)
(0,0,0)
(0,0,0)
(0,0,0)
(0,0,0)
(0,0,0)
(0,0,0)
(0,0,0)
(0,0,0)
(0,0,0)
(0,0,0)
(0,0,0)
(0,0,0)
(0,0,0)
(0,0,0)
(0,0,0)
(0,0,0)
(0,0,0)
(0,0,0)
(0,0,0)
(0,0,0)
(0,0,0)
(0,0,0)
(0,0,0)
(0,0,0)
(0,0,0)
(0,0,0)
(0,0,0)
(0,0,0)
(0,0,0)
(0,0,0)
(0,0,0)
(0,0,0)
(0,0,0)
(0,0,0)
(0,0,0)
(0,0,0)
(0,0,0)
(0,0,0)
(0,0,0)
(0,0,0)
(0,0,0)
(0,0,0)
(0,0,0)
(0,0,0)
(0,0,0)
(0,0,0)
(0,0,0)
(0,0,0)
(0,0,0)
(0,0,0)
(0,0,0)
(0,0,0)
(0,0,0)
(0,0,0)
(0,0,0)
(0,0,0)
(0,0,0)
(0,0,0)
(0,0,0)
(0,0,0)
(0,0,0)
(0,0,0)
(0,0,0)
(0,0,0)
(0,0,0)
(0,0,0)
(0,0,0)
(0,0,0)
(0,0,0)
(0,0,0)
(0,0,0)
(0,0,0)
(0,0,0)
(0,0,0)
(0,0,0)
(0,0,0)
(0,0,0)
(0,0,0)
(0,0,0)
(0,0,0)
(0,0,0)
(0,0,0)
(0,0,0)
(0,0,0)
(0,0,0)
(0,0,0)
(0,0,0)
(0,0,0)
(0,0,0)
(0,0,0)
(0,0,0)
(0,0,0)
(0,0,0)
(0,0,0)
(0,0,0)
(0,0,0)
(0,0,0)
(0,0,0)
(0,0,0)
(0,0,0)
(0,0,0)
(0,0,0)
(0,0,0)
(0,0,0)
(0,0,0)
(0,0,0)
(0,0,0)
(0,0,0)
(0,0,0)
(0,0,0)
(0,0,0)
(0,0,0)
(0,0,0)
(0,0,0)
(0,0,0)
(0,0,0)
(0,0,0)
(0,0,0)
(0,0,0)
(0,0,0)
(0,0,0)
(0,0,0)
(0,0,0)
(0,0,0)
(0,0,0)
(0,0,0)
(0,0,0)
(0,0,0)
(0,0,0)
(0,0,0)
(0,0,0)
(0,0,0)
(0,0,0)
(0,0,0)
(0,0,0)
(0,0,0)
(0,0,0)
(0,0,0)
(0,0,0)
(0,0,0)
(0,0,0)
(0,0,0)
(0,0,0)
(0,0,0)
(0,0,0)
(0,0,0)
(0,0,0)
(0,0,0)
(0,0,0)
(0,0,0)
(0,0,0)
(0,0,0)
(0,0,0)
(0,0,0)
(0,0,0)
(0,0,0)
(0,0,0)
(0,0,0)
(0,0,0)
(0,0,0)
(0,0,0)
(0,0,0)
(0,0,0)
(0,0,0)
(0,0,0)
(0,0,0)
(0,0,0)
(0,0,0)
(0,0,0)
(0,0,0)
(0,0,0)
(0,0,0)
(0,0,0)
(0,0,0)
(0,0,0)
(0,0,0)
(0,0,0)
(0,0,0)
(0,0,0)
(0,0,0)
(0,0,0)
(0,0,0)
(0,0,0)
(0,0,0)
(0,0,0)
(0,0,0)
(0,0,0)
(0,0,0)
(0,0,0)
(0,0,0)
(0,0,0)
(0,0,0)
(0,0,0)
(0,0,0)
(0,0,0)
(0,0,0)
(0,0,0)
(0,0,0)
(0,0,0)
(0,0,0)
(0,0,0)
(0,0,0)
(0,0,0)
(0,0,0)
(0,0,0)
(0,0,0)
(0,0,0)
(0,0,0)
(0,0,0)
(0,0,0)
(0,0,0)
(0,0,0)
(0,0,0)
(0,0,0)
(0,0,0)
(0,0,0)
(0,0,0)
(0,0,0)
(0,0,0)
(0,0,0)
(0,0,0)
(0,0,0)
(0,0,0)
(0,0,0)
(0,0,0)
(0,0,0)
(0,0,0)
(0,0,0)
(0,0,0)
(0,0,0)
(0,0,0)
(0,0,0)
(0,0,0)
(0,0,0)
(0,0,0)
(0,0,0)
(0,0,0)
(0,0,0)
(0,0,0)
(0,0,0)
(0,0,0)
(0,0,0)
(0,0,0)
(0,0,0)
(0,0,0)
(0,0,0)
(0,0,0)
(0,0,0)
(0,0,0)
(0,0,0)
(0,0,0)
(0,0,0)
(0,0,0)
(0,0,0)
(0,0,0)
(0,0,0)
(0,0,0)
(0,0,0)
(0,0,0)
(0,0,0)
(0,0,0)
(0,0,0)
(0,0,0)
(0,0,0)
(0,0,0)
(0,0,0)
(0,0,0)
(0,0,0)
(0,0,0)
(0,0,0)
(0,0,0)
(0,0,0)
(0,0,0)
(0,0,0)
(0,0,0)
(0,0,0)
(0,0,0)
(0,0,0)
(0,0,0)
(0,0,0)
(0,0,0)
(0,0,0)
(0,0,0)
(0,0,0)
(0,0,0)
(0,0,0)
(0,0,0)
(0,0,0)
(0,0,0)
(0,0,0)
(0,0,0)
(0,0,0)
(0,0,0)
(0,0,0)
(0,0,0)
(0,0,0)
(0,0,0)
(0,0,0)
(0,0,0)
(0,0,0)
(0,0,0)
(0,0,0)
(0,0,0)
(0,0,0)
(0,0,0)
(0,0,0)
(0,0,0)
(0,0,0)
(0,0,0)
(0,0,0)
(0,0,0)
(0,0,0)
(0,0,0)
(0,0,0)
(0,0,0)
(0,0,0)
(0,0,0)
(0,0,0)
(0,0,0)
(0,0,0)
(0,0,0)
(0,0,0)
(0,0,0)
(0,0,0)
(0,0,0)
(0,0,0)
(0,0,0)
(0,0,0)
(0,0,0)
(0,0,0)
(0,0,0)
(0,0,0)
(0,0,0)
(0,0,0)
(0,0,0)
(0,0,0)
(0,0,0)
(0,0,0)
(0,0,0)
(0,0,0)
(0,0,0)
(0,0,0)
(0,0,0)
(0,0,0)
(0,0,0)
(0,0,0)
(0,0,0)
(0,0,0)
(0,0,0)
(0,0,0)
(0,0,0)
(0,0,0)
(0,0,0)
(0,0,0)
(0,0,0)
(0,0,0)
(0,0,0)
(0,0,0)
(0,0,0)
(0,0,0)
(0,0,0)
(0,0,0)
(0,0,0)
(0,0,0)
(0,0,0)
(0,0,0)
(0,0,0)
(0,0,0)
(0,0,0)
(0,0,0)
(0,0,0)
(0,0,0)
(0,0,0)
(0,0,0)
(0,0,0)
(0,0,0)
(0,0,0)
(0,0,0)
(0,0,0)
(0,0,0)
(0,0,0)
(0,0,0)
(0,0,0)
(0,0,0)
(0,0,0)
(0,0,0)
(0,0,0)
(0,0,0)
(0,0,0)
(0,0,0)
(0,0,0)
(0,0,0)
(0,0,0)
(0,0,0)
(0,0,0)
(0,0,0)
(0,0,0)
(0,0,0)
(0,0,0)
(0,0,0)
(0,0,0)
(0,0,0)
(0,0,0)
(0,0,0)
(0,0,0)
(0,0,0)
(0,0,0)
(0,0,0)
(0,0,0)
(0,0,0)
(0,0,0)
(0,0,0)
(0,0,0)
(0,0,0)
(0,0,0)
(0,0,0)
(0,0,0)
(0,0,0)
(0,0,0)
(0,0,0)
(0,0,0)
(0,0,0)
(0,0,0)
(0,0,0)
(0,0,0)
(0,0,0)
(0,0,0)
(0,0,0)
(0,0,0)
(0,0,0)
(0,0,0)
(0,0,0)
(0,0,0)
(0,0,0)
(0,0,0)
(0,0,0)
(0,0,0)
(0,0,0)
(0,0,0)
(0,0,0)
(0,0,0)
(0,0,0)
(0,0,0)
(0,0,0)
(0,0,0)
(0,0,0)
(0,0,0)
(0,0,0)
(0,0,0)
(0,0,0)
(0,0,0)
(0,0,0)
(0,0,0)
(0,0,0)
(0,0,0)
(0,0,0)
(0,0,0)
(0,0,0)
(0,0,0)
(0,0,0)
(0,0,0)
(0,0,0)
(0,0,0)
(0,0,0)
(0,0,0)
(0,0,0)
(0,0,0)
(0,0,0)
(0,0,0)
(0,0,0)
(0,0,0)
(0,0,0)
(0,0,0)
(0,0,0)
(0,0,0)
(0,0,0)
(0,0,0)
(0,0,0)
(0,0,0)
(0,0,0)
(0,0,0)
(0,0,0)
(0,0,0)
(0,0,0)
(0,0,0)
(0,0,0)
(0,0,0)
(0,0,0)
(0,0,0)
(0,0,0)
(0,0,0)
(0,0,0)
(0,0,0)
(0,0,0)
(0,0,0)
(0,0,0)
(0,0,0)
(0,0,0)
(0,0,0)
(0,0,0)
(0,0,0)
(0,0,0)
(0,0,0)
(0,0,0)
(0,0,0)
(0,0,0)
(0,0,0)
(0,0,0)
(0,0,0)
(0,0,0)
(0,0,0)
(0,0,0)
(0,0,0)
(0,0,0)
(0,0,0)
(0,0,0)
(0,0,0)
(0,0,0)
(0,0,0)
(0,0,0)
(0,0,0)
(0,0,0)
(0,0,0)
(0,0,0)
(0,0,0)
(0,0,0)
(0,0,0)
(0,0,0)
(0,0,0)
(0,0,0)
(0,0,0)
(9.81882500507114e-13,-2.76653224021678e-12,2.3690695986797e-12)
(1.56418589215432e-12,-6.03681312182444e-12,2.51728788871937e-12)
(1.01697374733368e-12,-1.0113354576347e-11,3.08410848903492e-12)
(-6.61334184881008e-14,-1.64520853600615e-11,3.32510768327274e-12)
(4.49229653081541e-13,-2.48402182077485e-11,2.28564808503256e-12)
(6.32173702357898e-14,-3.98244461199248e-11,1.71890895802139e-12)
(-1.61963724898086e-12,-6.31021212172237e-11,8.6206516728505e-13)
(-3.03327858483013e-12,-1.01807951879277e-10,-2.67111289129523e-14)
(-4.813596927895e-12,-1.67698130184308e-10,2.21470875521147e-13)
(-6.34060213427944e-12,-2.60487623777578e-10,4.76766427645329e-13)
(0,0,0)
(0,0,0)
(0,0,0)
(0,0,0)
(0,0,0)
(0,0,0)
(1.12197683168365e-12,-2.83969181991422e-12,6.33693389581037e-12)
(1.79344549628335e-12,-6.10241547539437e-12,6.52923083894092e-12)
(1.0850657172266e-12,-1.01286776772536e-11,7.15254931826853e-12)
(3.22021720720718e-13,-1.61828195058364e-11,7.04889825104633e-12)
(9.15980937721819e-13,-2.4685575702788e-11,5.35209342572767e-12)
(3.95175701903695e-13,-3.91780145898286e-11,3.85490594119875e-12)
(-2.60984029735569e-12,-6.26008602737296e-11,2.41021299318462e-12)
(-6.14448200683636e-12,-1.02396588800914e-10,1.09346351106042e-12)
(-8.85003235872277e-12,-1.68209659681129e-10,5.90169345013163e-13)
(-1.17625683466393e-11,-2.60311348639117e-10,3.77592368499261e-13)
(0,0,0)
(0,0,0)
(0,0,0)
(0,0,0)
(0,0,0)
(0,0,0)
(5.15062000090177e-14,-2.66708012741032e-12,1.27193603554458e-11)
(-3.31014390321033e-13,-5.7535142303684e-12,1.23454183384178e-11)
(-1.57545038649664e-12,-9.39910762642201e-12,1.22076959263809e-11)
(-1.67835361349773e-12,-1.47217691910146e-11,1.10708117778271e-11)
(-1.46606111690716e-12,-2.30676797811847e-11,8.91500077395515e-12)
(-1.88467851049925e-12,-3.75239391289126e-11,6.64258373983965e-12)
(-4.65950251423177e-12,-6.1565506645749e-11,4.48005886159614e-12)
(-8.39101671636917e-12,-1.02449158131408e-10,2.89020405616834e-12)
(-1.10291679696545e-11,-1.685821326236e-10,1.70910632476213e-12)
(-1.49141063238012e-11,-2.60609401109632e-10,9.06868691506276e-13)
(0,0,0)
(0,0,0)
(0,0,0)
(0,0,0)
(0,0,0)
(0,0,0)
(-1.20754835739963e-12,-2.1890737396844e-12,2.02743552346588e-11)
(-3.16637387755556e-12,-5.09079465282733e-12,1.98443521428393e-11)
(-5.15814433162203e-12,-7.98440601187317e-12,1.90489618112805e-11)
(-5.23905492805951e-12,-1.24432690828662e-11,1.71602662270788e-11)
(-4.71277240142496e-12,-2.0493613809218e-11,1.4610250451197e-11)
(-4.3384775005105e-12,-3.52084094678048e-11,1.18949576101792e-11)
(-6.78147167426102e-12,-6.04260351905428e-11,9.0842074680927e-12)
(-1.06201218211186e-11,-1.01882936561149e-10,7.04408190631237e-12)
(-1.32520168677725e-11,-1.68108076065719e-10,4.75907200860756e-12)
(-1.61643309681121e-11,-2.60431489512046e-10,2.55395034034681e-12)
(0,0,0)
(0,0,0)
(0,0,0)
(0,0,0)
(0,0,0)
(0,0,0)
(-1.69511376134384e-12,-1.85724268524241e-12,3.01166633985145e-11)
(-3.39797107627092e-12,-4.41861217778057e-12,2.95614272583734e-11)
(-6.13711674505862e-12,-6.54583860116992e-12,2.84532126381872e-11)
(-7.72458312524333e-12,-1.03505148117284e-11,2.6513913095569e-11)
(-7.82496599813872e-12,-1.79227265633226e-11,2.38163030703727e-11)
(-7.9298753748546e-12,-3.24853553667509e-11,2.08556746723518e-11)
(-9.05523507020064e-12,-5.87169439573485e-11,1.74287736391959e-11)
(-1.16774892090476e-11,-1.00377384238597e-10,1.4134860665247e-11)
(-1.43467695454516e-11,-1.66175232360324e-10,1.00300412030759e-11)
(-1.63782592990541e-11,-2.58375562667357e-10,5.29938631322028e-12)
(0,0,0)
(0,0,0)
(0,0,0)
(0,0,0)
(0,0,0)
(0,0,0)
(-1.90748167302375e-12,-1.15005108677109e-12,4.50419270252033e-11)
(-3.5278703928889e-12,-3.3130673277237e-12,4.44380735146072e-11)
(-5.64032588043736e-12,-5.36647475915565e-12,4.32906440204298e-11)
(-7.48194226593155e-12,-8.81818912198629e-12,4.11365871910812e-11)
(-7.9388778807007e-12,-1.57494387319837e-11,3.82953556118877e-11)
(-9.08728326200311e-12,-2.98646166091536e-11,3.4972955150566e-11)
(-1.0542503813213e-11,-5.61244052790035e-11,3.03044424579729e-11)
(-1.20456189599898e-11,-9.6702867318162e-11,2.52695553420573e-11)
(-1.49211817669107e-11,-1.61441004402688e-10,1.86598348749126e-11)
(-1.75139385628283e-11,-2.53188026149641e-10,1.00754606741591e-11)
(0,0,0)
(0,0,0)
(0,0,0)
(0,0,0)
(0,0,0)
(0,0,0)
(-8.75202201887643e-13,-6.80352405258991e-13,6.74149085552684e-11)
(-1.88634423731341e-12,-2.46415129155028e-12,6.72830513585492e-11)
(-3.46563703843532e-12,-4.09151315310682e-12,6.65142729405422e-11)
(-4.96038049797965e-12,-7.3348380487372e-12,6.46593050130549e-11)
(-5.6499256591759e-12,-1.36556180175654e-11,6.19864423677392e-11)
(-7.95548065490166e-12,-2.6530951663007e-11,5.85500697145883e-11)
(-1.06166143466868e-11,-5.12361285478588e-11,5.28236632651675e-11)
(-1.29367395456539e-11,-8.97313833528491e-11,4.51347057471253e-11)
(-1.5258492788752e-11,-1.52537952027408e-10,3.3992385333112e-11)
(-1.66424441825856e-11,-2.43138235155273e-10,1.87315616927472e-11)
(0,0,0)
(0,0,0)
(0,0,0)
(0,0,0)
(0,0,0)
(0,0,0)
(-4.34841529766852e-13,-5.42938943455665e-13,1.05829710972277e-10)
(-7.01065243122795e-13,-2.03255292245663e-12,1.06076406003882e-10)
(-2.18478855130537e-12,-2.98111497239523e-12,1.05338133900331e-10)
(-3.38417788094086e-12,-5.62286165331292e-12,1.03856872509504e-10)
(-4.7068840405336e-12,-1.15823324757924e-11,1.01707320006792e-10)
(-7.70454494799568e-12,-2.29592703095478e-11,9.77013287939192e-11)
(-1.08560819968628e-11,-4.37796712518095e-11,9.09057549042308e-11)
(-1.36834153163766e-11,-7.8089522102068e-11,7.92305401405739e-11)
(-1.49517328284777e-11,-1.36705732760802e-10,6.13050848036989e-11)
(-1.48570910621714e-11,-2.23958674187761e-10,3.48788289195438e-11)
(0,0,0)
(0,0,0)
(0,0,0)
(0,0,0)
(0,0,0)
(0,0,0)
(-8.44177530200338e-13,-6.58103436927035e-13,1.71793938405093e-10)
(-1.9152173549466e-13,-1.56419649156679e-12,1.71629071786251e-10)
(-1.46596262697799e-12,-2.38367458912079e-12,1.70891301324523e-10)
(-2.54403068246789e-12,-4.43940289148008e-12,1.69284830420969e-10)
(-4.657716318924e-12,-8.82480570210703e-12,1.66886135359757e-10)
(-8.13087442771147e-12,-1.75441413182345e-11,1.61878106331366e-10)
(-1.24717772434383e-11,-3.26571488279114e-11,1.53044027262979e-10)
(-1.56230986142404e-11,-6.01393952702093e-11,1.37216834062497e-10)
(-1.60600876014707e-11,-1.09963867754905e-10,1.10667268750645e-10)
(-1.49805552258054e-11,-1.88901083811051e-10,6.65356449921952e-11)
(0,0,0)
(0,0,0)
(0,0,0)
(0,0,0)
(0,0,0)
(0,0,0)
(-2.24195272127416e-12,-3.40133556469995e-13,2.64095393558655e-10)
(-2.32285935109565e-13,-5.80468635279484e-13,2.63474191768502e-10)
(-1.12764605027852e-12,-1.30455967297872e-12,2.63133844358732e-10)
(-2.00563588808286e-12,-2.78937886443067e-12,2.6140404311615e-10)
(-4.71245068960967e-12,-4.90610358820753e-12,2.58432145447884e-10)
(-7.99804856914261e-12,-9.76443954651271e-12,2.53017381319574e-10)
(-1.25670583019989e-11,-1.79802789730581e-11,2.42829283099405e-10)
(-1.60497915186127e-11,-3.43036413565592e-11,2.23900136154666e-10)
(-1.54298325762681e-11,-6.62102544903718e-11,1.88828954911311e-10)
(-1.31519138648087e-11,-1.22640455336492e-10,1.22232409246569e-10)
(0,0,0)
(0,0,0)
(0,0,0)
(0,0,0)
(0,0,0)
(0,0,0)
(0,0,0)
(0,0,0)
(0,0,0)
(0,0,0)
(0,0,0)
(0,0,0)
(0,0,0)
(0,0,0)
(0,0,0)
(0,0,0)
(0,0,0)
(0,0,0)
(0,0,0)
(0,0,0)
(0,0,0)
(0,0,0)
(0,0,0)
(0,0,0)
(0,0,0)
(0,0,0)
(0,0,0)
(0,0,0)
(0,0,0)
(0,0,0)
(0,0,0)
(0,0,0)
(0,0,0)
(0,0,0)
(0,0,0)
(0,0,0)
(0,0,0)
(0,0,0)
(0,0,0)
(0,0,0)
(0,0,0)
(0,0,0)
(0,0,0)
(0,0,0)
(0,0,0)
(0,0,0)
(0,0,0)
(0,0,0)
(0,0,0)
(0,0,0)
(0,0,0)
(0,0,0)
(0,0,0)
(0,0,0)
(0,0,0)
(0,0,0)
(0,0,0)
(0,0,0)
(0,0,0)
(0,0,0)
(0,0,0)
(0,0,0)
(0,0,0)
(0,0,0)
(0,0,0)
(0,0,0)
(0,0,0)
(0,0,0)
(0,0,0)
(0,0,0)
(0,0,0)
(0,0,0)
(0,0,0)
(0,0,0)
(0,0,0)
(0,0,0)
(0,0,0)
(0,0,0)
(0,0,0)
(0,0,0)
(0,0,0)
(0,0,0)
(0,0,0)
(0,0,0)
(0,0,0)
(0,0,0)
(0,0,0)
(0,0,0)
(0,0,0)
(0,0,0)
(0,0,0)
(0,0,0)
(0,0,0)
(0,0,0)
(0,0,0)
(0,0,0)
(0,0,0)
(0,0,0)
(0,0,0)
(0,0,0)
(0,0,0)
(0,0,0)
(9.06823790161628e-13,-5.88651139624545e-12,5.65478980034512e-12)
(1.06296764540809e-12,-1.17094214016228e-11,5.74779817561909e-12)
(7.91297653991108e-13,-1.98697552164882e-11,6.05509999795128e-12)
(7.04060325510424e-13,-3.09657611990638e-11,5.79160616472454e-12)
(8.61326275075835e-13,-4.64157415555195e-11,4.25283438621209e-12)
(2.73629630950532e-13,-7.15374522008562e-11,2.98293312155506e-12)
(-1.23212189614922e-12,-1.11012322683214e-10,1.25242721787857e-12)
(-2.69282366778601e-12,-1.78500978263314e-10,2.56464746409967e-14)
(-4.55736298364377e-12,-3.10036251686313e-10,6.042954141841e-14)
(-6.04011084537736e-12,-6.14196006843405e-10,2.39032042156421e-13)
(0,0,0)
(0,0,0)
(0,0,0)
(0,0,0)
(0,0,0)
(0,0,0)
(7.57068196048316e-13,-5.56083466348957e-12,1.31005932192409e-11)
(8.21225771941749e-13,-1.13493681376838e-11,1.32769080398271e-11)
(4.59146733600102e-13,-1.92644296345059e-11,1.34933393419824e-11)
(5.57776231234891e-13,-2.96743682854085e-11,1.2460977553484e-11)
(7.95272500640937e-13,-4.51030050896216e-11,9.74419513049973e-12)
(1.85793188979068e-13,-7.00330930326574e-11,6.64759064590841e-12)
(-2.32844444334224e-12,-1.10285976568866e-10,3.33159073961043e-12)
(-5.5886185098876e-12,-1.79279283245535e-10,1.09456620526617e-12)
(-8.26498243933855e-12,-3.11162922894604e-10,2.87464148113693e-13)
(-1.10869235076907e-11,-6.14835807762752e-10,8.35276021741832e-14)
(0,0,0)
(0,0,0)
(0,0,0)
(0,0,0)
(0,0,0)
(0,0,0)
(-5.25581706873122e-14,-5.17395478607034e-12,2.40160567504272e-11)
(-8.56011555820914e-13,-1.05241932196197e-11,2.32946887267009e-11)
(-1.85326785245715e-12,-1.76839898068601e-11,2.24644579033324e-11)
(-1.8010427177849e-12,-2.71306771574416e-11,1.98399596606007e-11)
(-1.76771005481329e-12,-4.20043946842509e-11,1.55647032098133e-11)
(-2.03768329338563e-12,-6.70641477829952e-11,1.03374150825424e-11)
(-4.20911916387956e-12,-1.08803276844541e-10,5.2839390327222e-12)
(-7.776140555412e-12,-1.79485020770333e-10,2.81334183347168e-12)
(-1.07009868943316e-11,-3.12116536666846e-10,1.77210843592811e-12)
(-1.41851492302163e-11,-6.16015935739167e-10,1.08859349748921e-12)
(0,0,0)
(0,0,0)
(0,0,0)
(0,0,0)
(0,0,0)
(0,0,0)
(-1.10937632002189e-12,-4.24153087466764e-12,3.80341546198833e-11)
(-3.04316602104517e-12,-8.89032455949361e-12,3.66158368966526e-11)
(-4.7080161581351e-12,-1.47681278637112e-11,3.46633621281959e-11)
(-4.78179342331592e-12,-2.31165426551412e-11,3.1162657652887e-11)
(-4.56836680631188e-12,-3.71554465467221e-11,2.56659351181803e-11)
(-4.25078145947716e-12,-6.25267964445015e-11,1.88567696429679e-11)
(-6.45043734573821e-12,-1.06903702427861e-10,1.21643710490203e-11)
(-9.8406642459044e-12,-1.79344316000383e-10,9.10867066961824e-12)
(-1.29797389042781e-11,-3.12094681406754e-10,6.74865219296929e-12)
(-1.56663074710819e-11,-6.16297629346771e-10,3.83532499128406e-12)
(0,0,0)
(0,0,0)
(0,0,0)
(0,0,0)
(0,0,0)
(0,0,0)
(-1.84706921967511e-12,-3.01385475951397e-12,5.44001270475374e-11)
(-3.39530130614428e-12,-6.90843631383139e-12,5.30061739686983e-11)
(-5.37718104445686e-12,-1.1734426514685e-11,5.08786871104986e-11)
(-6.55929878979102e-12,-1.86828672050749e-11,4.75536047790491e-11)
(-7.0376254314372e-12,-3.10915059237419e-11,4.20352063191526e-11)
(-7.12371309936067e-12,-5.54488099263759e-11,3.54912567897533e-11)
(-8.35386077448184e-12,-1.02147520559823e-10,2.95010461131849e-11)
(-1.12471866671874e-11,-1.77533558165622e-10,2.32577763902434e-11)
(-1.43503426136253e-11,-3.09785206596746e-10,1.69414846232737e-11)
(-1.62664095040686e-11,-6.13620623463827e-10,9.18167359428227e-12)
(0,0,0)
(0,0,0)
(0,0,0)
(0,0,0)
(0,0,0)
(0,0,0)
(-1.7733268439383e-12,-1.91022639592785e-12,7.91491824258948e-11)
(-3.22935693489e-12,-5.01966000540266e-12,7.80117033187257e-11)
(-4.76123065714817e-12,-9.36699297993476e-12,7.60945021275687e-11)
(-6.12406175998392e-12,-1.49680313383732e-11,7.24319726040745e-11)
(-6.71029813378844e-12,-2.56073152868337e-11,6.7305276841118e-11)
(-7.75243551559168e-12,-4.89024321536385e-11,6.11396763869622e-11)
(-1.03958934284766e-11,-9.74323133433447e-11,5.34297371402216e-11)
(-1.24073824582474e-11,-1.72078634520588e-10,4.52450999186382e-11)
(-1.52398599415387e-11,-3.02629996372161e-10,3.3534144359274e-11)
(-1.74882688827042e-11,-6.05242257474325e-10,1.80163222174845e-11)
(0,0,0)
(0,0,0)
(0,0,0)
(0,0,0)
(0,0,0)
(0,0,0)
(-8.80758466973192e-13,-1.28739096614559e-12,1.1820505221696e-10)
(-1.54916418839721e-12,-3.60771661296701e-12,1.1742592510377e-10)
(-2.72106729165247e-12,-6.96824223612357e-12,1.16091152299718e-10)
(-3.99949424809623e-12,-1.19702236865877e-11,1.12942954689105e-10)
(-4.28683854776302e-12,-2.11195104227813e-11,1.08856858283567e-10)
(-5.80075555893701e-12,-4.166602316126e-11,1.03657967859502e-10)
(-1.03841141246628e-11,-8.87936106331689e-11,9.27792669479942e-11)
(-1.34362803825825e-11,-1.60317716793205e-10,8.13468381343587e-11)
(-1.58298884148346e-11,-2.87445837961992e-10,6.07118232014863e-11)
(-1.70904434564406e-11,-5.87795190781705e-10,3.30182589352806e-11)
(0,0,0)
(0,0,0)
(0,0,0)
(0,0,0)
(0,0,0)
(0,0,0)
(-5.66372067900006e-13,-8.88880055517522e-13,1.85681250564381e-10)
(-4.31149570459422e-13,-2.628760206795e-12,1.85007515994124e-10)
(-1.30096754374987e-12,-4.83033329967169e-12,1.83769475282393e-10)
(-2.41808414006647e-12,-9.46387107303369e-12,1.81391401163615e-10)
(-3.45841960137113e-12,-1.86964549344334e-11,1.77935669436493e-10)
(-6.32410004956649e-12,-3.77812938062377e-11,1.72116726607655e-10)
(-1.03033896570298e-11,-7.73822925797923e-11,1.60957274057604e-10)
(-1.37080868116333e-11,-1.39392219207652e-10,1.40701959578156e-10)
(-1.52673419500379e-11,-2.59543468089929e-10,1.08516938815147e-10)
(-1.50358525202681e-11,-5.54366037257051e-10,6.17969005592832e-11)
(0,0,0)
(0,0,0)
(0,0,0)
(0,0,0)
(0,0,0)
(0,0,0)
(-9.9728079181573e-13,-6.07145620812036e-13,3.16870381464415e-10)
(-4.37479130053717e-13,-1.70523761066493e-12,3.15881751379955e-10)
(-9.38606639560228e-13,-3.37346648076418e-12,3.14543679185984e-10)
(-1.79535964829581e-12,-7.06438849035816e-12,3.12075896014469e-10)
(-3.56838940441987e-12,-1.44766539595482e-11,3.08241909066693e-10)
(-7.07649713107162e-12,-2.92641887794507e-11,3.00518247425981e-10)
(-1.13214538977945e-11,-5.73419005972686e-11,2.8603573083037e-10)
(-1.49092872160124e-11,-1.06956615446798e-10,2.59087218199645e-10)
(-1.56820771075981e-11,-2.12481566523323e-10,2.12665716736366e-10)
(-1.47055387082741e-11,-4.92085406016989e-10,1.32963278795512e-10)
(0,0,0)
(0,0,0)
(0,0,0)
(0,0,0)
(0,0,0)
(0,0,0)
(-1.96088448759009e-12,-2.19249431895075e-13,6.20867455408925e-10)
(-4.72407160619708e-13,-6.90154893249271e-13,6.20000051100042e-10)
(-7.02404480679433e-13,-1.75401986272139e-12,6.19017734024042e-10)
(-1.82311708424763e-12,-4.02743478344199e-12,6.16087201924087e-10)
(-4.20379014951652e-12,-7.90190582223019e-12,6.11227486693361e-10)
(-7.57438989549653e-12,-1.60786921644688e-11,6.02358761126947e-10)
(-1.16181903303425e-11,-3.11366780379537e-11,5.85389143730611e-10)
(-1.52822516317887e-11,-6.10159115968684e-11,5.53321328223546e-10)
(-1.50435414019e-11,-1.33089363588978e-10,4.91474735981122e-10)
(-1.35599599545931e-11,-3.59124863431634e-10,3.58281536680197e-10)
(0,0,0)
(0,0,0)
(0,0,0)
(0,0,0)
(0,0,0)
(0,0,0)
(0,0,0)
(0,0,0)
(0,0,0)
(0,0,0)
(0,0,0)
(0,0,0)
(0,0,0)
(0,0,0)
(0,0,0)
(0,0,0)
(0,0,0)
(0,0,0)
(0,0,0)
(0,0,0)
(0,0,0)
(0,0,0)
(0,0,0)
(0,0,0)
(0,0,0)
(0,0,0)
(0,0,0)
(0,0,0)
(0,0,0)
(0,0,0)
(0,0,0)
(0,0,0)
(0,0,0)
(0,0,0)
(0,0,0)
(0,0,0)
(0,0,0)
(0,0,0)
(0,0,0)
(0,0,0)
(0,0,0)
(0,0,0)
(0,0,0)
(0,0,0)
(0,0,0)
(0,0,0)
(0,0,0)
(0,0,0)
(0,0,0)
(0,0,0)
(0,0,0)
(0,0,0)
(0,0,0)
(0,0,0)
(0,0,0)
(0,0,0)
(0,0,0)
(0,0,0)
(0,0,0)
(0,0,0)
(0,0,0)
(0,0,0)
(0,0,0)
(0,0,0)
(0,0,0)
(0,0,0)
(0,0,0)
(0,0,0)
(0,0,0)
(0,0,0)
(0,0,0)
(0,0,0)
(0,0,0)
(0,0,0)
(0,0,0)
(0,0,0)
(0,0,0)
(0,0,0)
(0,0,0)
(0,0,0)
(0,0,0)
(0,0,0)
(0,0,0)
(0,0,0)
(0,0,0)
(0,0,0)
(0,0,0)
(0,0,0)
(0,0,0)
(0,0,0)
(0,0,0)
(0,0,0)
(0,0,0)
(0,0,0)
(0,0,0)
(0,0,0)
(0,0,0)
(0,0,0)
(0,0,0)
(0,0,0)
(0,0,0)
(0,0,0)
(4.88138682096052e-13,-7.97186902275044e-12,9.19881820681421e-12)
(3.95612559321316e-13,-1.69213054131292e-11,9.0099209248631e-12)
(4.49465905832772e-13,-2.82457952247059e-11,8.63228329532591e-12)
(9.51439190213265e-13,-4.20960166180083e-11,7.58341807344326e-12)
(8.18491073410639e-13,-6.11474853815037e-11,5.68199432617821e-12)
(4.99776367011714e-13,-8.96377934507352e-11,3.37786853025934e-12)
(-7.3168726776318e-13,-1.32297086929421e-10,7.17150692766529e-13)
(-1.9493017529092e-12,-1.94281543644133e-10,-6.37683788388122e-13)
(-3.60929427554244e-12,-2.8289866866298e-10,-9.84667770912409e-13)
(-5.16127788497653e-12,-3.91507657450884e-10,-6.1806040236005e-13)
(0,0,0)
(0,0,0)
(0,0,0)
(0,0,0)
(0,0,0)
(0,0,0)
(1.93873498018489e-13,-7.90770624139097e-12,1.98594497275684e-11)
(-2.20380448736262e-13,-1.67122679924251e-11,1.94093740435034e-11)
(-8.8931306483062e-14,-2.73107205341022e-11,1.84067534639603e-11)
(7.30867526413971e-13,-4.00506610362982e-11,1.5916697142545e-11)
(7.93266580362609e-13,-5.85365542598748e-11,1.17982579107786e-11)
(5.32847845038672e-13,-8.72990268548365e-11,6.38423668481485e-12)
(-1.57411963398492e-12,-1.31655546380572e-10,7.77509310704641e-13)
(-4.57577892727751e-12,-1.95066373337978e-10,-1.2137333513031e-12)
(-7.10743212036661e-12,-2.84274803276627e-10,-1.36764968945026e-12)
(-9.82326792887662e-12,-3.92767934044253e-10,-8.46072251822648e-13)
(0,0,0)
(0,0,0)
(0,0,0)
(0,0,0)
(0,0,0)
(0,0,0)
(-2.63614060169634e-13,-7.73505217706718e-12,3.40563886766875e-11)
(-1.65964939152264e-12,-1.58986360141439e-11,3.27415534989107e-11)
(-2.14463155227676e-12,-2.53086675382427e-11,3.04939253336057e-11)
(-1.53992076972049e-12,-3.6569726081025e-11,2.59427485264157e-11)
(-1.38937006518287e-12,-5.35517828157136e-11,1.87838268318632e-11)
(-1.52155858225055e-12,-8.26321942677598e-11,9.08119465368051e-12)
(-3.63809638109968e-12,-1.30795701231238e-10,-1.25591645252477e-12)
(-6.87561192788779e-12,-1.96605597946331e-10,-2.19977718665341e-12)
(-1.00393272153469e-11,-2.86081349719682e-10,-5.38181378607642e-13)
(-1.28148621252115e-11,-3.94636137046184e-10,1.81974931826759e-13)
(0,0,0)
(0,0,0)
(0,0,0)
(0,0,0)
(0,0,0)
(0,0,0)
(-9.18734713040958e-13,-6.44579796670299e-12,5.12967735612379e-11)
(-3.07257949698859e-12,-1.35088540048532e-11,4.93036501246426e-11)
(-4.24101303230115e-12,-2.1391220064295e-11,4.58003979216662e-11)
(-3.71874634007322e-12,-3.09081449490114e-11,3.99785525202981e-11)
(-3.82314195417141e-12,-4.57880546170606e-11,3.06297127613339e-11)
(-4.63636938263199e-12,-7.44653323318283e-11,1.72719112475055e-11)
(-8.15091883384049e-12,-1.30261492878033e-10,1.18037802618608e-13)
(-9.29140360453635e-12,-2.00335509653243e-10,1.59065780896932e-12)
(-1.23758865114176e-11,-2.88411855506473e-10,4.1009725049211e-12)
(-1.45079883644941e-11,-3.96016143054744e-10,3.11914782694557e-12)
(0,0,0)
(0,0,0)
(0,0,0)
(0,0,0)
(0,0,0)
(0,0,0)
(-1.5567445046663e-12,-4.60326671932749e-12,7.11266647531762e-11)
(-3.15659075600245e-12,-1.02078416281493e-11,6.93971732249798e-11)
(-4.41953224909153e-12,-1.66680944925453e-11,6.58189847403561e-11)
(-4.75573619643444e-12,-2.38282491185499e-11,6.0425592916021e-11)
(-5.97786653716236e-12,-3.48648481940155e-11,5.17803814285145e-11)
(-7.67988019623127e-12,-5.82370269417349e-11,4.0884560580365e-11)
(-6.82579826963689e-12,-1.18131676334309e-10,3.47012120969374e-11)
(-1.03858185458015e-11,-2.04458018285873e-10,2.3489123349444e-11)
(-1.37457418073905e-11,-2.89396173383767e-10,1.80077777761175e-11)
(-1.54631018994323e-11,-3.94641993158488e-10,1.02126626195953e-11)
(0,0,0)
(0,0,0)
(0,0,0)
(0,0,0)
(0,0,0)
(0,0,0)
(-1.25868316656845e-12,-3.45764551717769e-12,9.89968950671334e-11)
(-2.72409913618574e-12,-7.37525635055452e-12,9.79202992590421e-11)
(-3.49745187766802e-12,-1.2310128386664e-11,9.5032246935556e-11)
(-3.99517364856041e-12,-1.67948278292035e-11,9.01382317407761e-11)
(-5.03250254384517e-12,-2.44691968628544e-11,8.31775759637701e-11)
(-7.27890526146355e-12,-4.57002426473328e-11,7.38906026341221e-11)
(-1.08499589159765e-11,-1.17373526322929e-10,6.33365728380041e-11)
(-1.24573446274419e-11,-2.0060823389818e-10,5.4254564318975e-11)
(-1.49061962085132e-11,-2.82780858766564e-10,4.00148490338147e-11)
(-1.69190133586122e-11,-3.85774667840285e-10,2.13896840103898e-11)
(0,0,0)
(0,0,0)
(0,0,0)
(0,0,0)
(0,0,0)
(0,0,0)
(-5.00142262849317e-13,-2.91379146424851e-12,1.40456893913032e-10)
(-1.19334779277208e-12,-5.41583370593373e-12,1.39304995837913e-10)
(-1.7107786169327e-12,-8.44152360521274e-12,1.36915972113979e-10)
(-2.41975045625922e-12,-1.09202437735037e-11,1.33298703809723e-10)
(-1.51100361157556e-12,-1.47067285476948e-11,1.3003779923352e-10)
(1.19321599781461e-12,-2.70983744224196e-11,1.27630140355626e-10)
(-1.03630033650167e-11,-1.03729730988907e-10,1.03455036382296e-10)
(-1.37267630360891e-11,-1.86371989755148e-10,1.03219182578041e-10)
(-1.60386940197787e-11,-2.64568191350797e-10,7.3037499902742e-11)
(-1.75013380461689e-11,-3.65336585675114e-10,3.80117574777261e-11)
(0,0,0)
(0,0,0)
(0,0,0)
(0,0,0)
(0,0,0)
(0,0,0)
(-1.74371931157552e-13,-2.01112242892792e-12,2.01819679918509e-10)
(-1.16631454796686e-13,-3.86334576897109e-12,2.0052916898046e-10)
(-3.79760244352811e-13,-5.95529239208403e-12,1.98654689479764e-10)
(-1.36183499540934e-12,-8.89721390328746e-12,1.96015454124001e-10)
(-1.85927774733834e-12,-1.55751873092089e-11,1.93284119331866e-10)
(-3.68175252634949e-12,-3.56703502125376e-11,1.90873795552148e-10)
(-1.00884671604025e-11,-9.72817176813681e-11,1.82456406514572e-10)
(-1.3958669810085e-11,-1.55574058006936e-10,1.55487712243399e-10)
(-1.56092052613208e-11,-2.29325290892223e-10,1.13647042653139e-10)
(-1.55195831998407e-11,-3.27144286117031e-10,6.13438444068966e-11)
(0,0,0)
(0,0,0)
(0,0,0)
(0,0,0)
(0,0,0)
(0,0,0)
(-3.96546896975195e-13,-9.74685343827197e-13,2.90286783966166e-10)
(-1.14489654305442e-13,-2.61419724302579e-12,2.88834842273464e-10)
(-9.02700848598392e-14,-4.30542374425038e-12,2.86955731167007e-10)
(-9.98326408024253e-13,-7.1098161420626e-12,2.84187912001476e-10)
(-2.41947590015271e-12,-1.40874993984331e-11,2.80194574212766e-10)
(-5.77947715081268e-12,-3.11748901610445e-11,2.73766928189823e-10)
(-1.05781638252774e-11,-6.8462043331177e-11,2.59508767651358e-10)
(-1.44284896052456e-11,-1.12964774124372e-10,2.27019755538118e-10)
(-1.53718420993606e-11,-1.7638854071625e-10,1.75290918392828e-10)
(-1.47028024985056e-11,-2.64814122577599e-10,1.00539159726191e-10)
(0,0,0)
(0,0,0)
(0,0,0)
(0,0,0)
(0,0,0)
(0,0,0)
(-1.312729611662e-12,-1.15476589353626e-13,3.99013184394492e-10)
(-1.80244978009683e-13,-1.35529799020093e-12,3.97954060181938e-10)
(4.741077567378e-13,-2.39855178349231e-12,3.95808467607457e-10)
(-9.90836637445128e-13,-4.07260093390213e-12,3.92340004691731e-10)
(-3.23697040479346e-12,-8.18587059384651e-12,3.86901233637611e-10)