/*--------------------------------*- C++ -*----------------------------------*\
| =========                 |                                                 |
| \\      /  F ield         | foam-extend: Open Source CFD                    |
|  \\    /   O peration     | Version:     4.0                                |
|   \\  /    A nd           | Web:         http://www.foam-extend.org         |
|    \\/     M anipulation  |                                                 |
\*---------------------------------------------------------------------------*/
FoamFile
{
    version 2.0;
    format ascii;
    class volVectorField;
    location "2378";
    object      E;
}
// * * * * * * * * * * * * * * * * * * * * * * * * * * * * * * * * * * * * * //

dimensions      [0 1 -1 0 0 0 0];

internalField   nonuniform List<vector>
4096
(
(0,0,0)
(0,0,0)
(0,0,0)
(0,0,0)
(0,0,0)
(0,0,0)
(0,0,0)
(0,0,0)
(0,0,0)
(0,0,0)
(0,0,0)
(0,0,0)
(0,0,0)
(0,0,0)
(0,0,0)
(0,0,0)
(0,0,0)
(0,0,0)
(0,0,0)
(0,0,0)
(0,0,0)
(0,0,0)
(0,0,0)
(0,0,0)
(0,0,0)
(0,0,0)
(0,0,0)
(0,0,0)
(0,0,0)
(0,0,0)
(0,0,0)
(0,0,0)
(0,0,0)
(0,0,0)
(0,0,0)
(0,0,0)
(0,0,0)
(0,0,0)
(0,0,0)
(0,0,0)
(0,0,0)
(0,0,0)
(0,0,0)
(0,0,0)
(0,0,0)
(0,0,0)
(0,0,0)
(0,0,0)
(0,0,0)
(0,0,0)
(0,0,0)
(0,0,0)
(0,0,0)
(0,0,0)
(0,0,0)
(0,0,0)
(0,0,0)
(0,0,0)
(0,0,0)
(0,0,0)
(0,0,0)
(0,0,0)
(0,0,0)
(0,0,0)
(0,0,0)
(0,0,0)
(0,0,0)
(0,0,0)
(0,0,0)
(0,0,0)
(0,0,0)
(0,0,0)
(0,0,0)
(0,0,0)
(0,0,0)
(0,0,0)
(0,0,0)
(0,0,0)
(0,0,0)
(0,0,0)
(0,0,0)
(0,0,0)
(0,0,0)
(0,0,0)
(0,0,0)
(0,0,0)
(0,0,0)
(0,0,0)
(0,0,0)
(0,0,0)
(0,0,0)
(0,0,0)
(0,0,0)
(0,0,0)
(0,0,0)
(0,0,0)
(0,0,0)
(0,0,0)
(0,0,0)
(0,0,0)
(0,0,0)
(0,0,0)
(0,0,0)
(0,0,0)
(0,0,0)
(0,0,0)
(0,0,0)
(0,0,0)
(0,0,0)
(0,0,0)
(0,0,0)
(0,0,0)
(0,0,0)
(0,0,0)
(0,0,0)
(0,0,0)
(0,0,0)
(0,0,0)
(0,0,0)
(0,0,0)
(0,0,0)
(0,0,0)
(0,0,0)
(0,0,0)
(0,0,0)
(0,0,0)
(0,0,0)
(0,0,0)
(0,0,0)
(0,0,0)
(0,0,0)
(0,0,0)
(0,0,0)
(0,0,0)
(0,0,0)
(0,0,0)
(0,0,0)
(0,0,0)
(0,0,0)
(0,0,0)
(0,0,0)
(0,0,0)
(0,0,0)
(0,0,0)
(0,0,0)
(0,0,0)
(0,0,0)
(0,0,0)
(0,0,0)
(0,0,0)
(0,0,0)
(0,0,0)
(0,0,0)
(0,0,0)
(0,0,0)
(0,0,0)
(0,0,0)
(0,0,0)
(0,0,0)
(0,0,0)
(0,0,0)
(0,0,0)
(0,0,0)
(0,0,0)
(0,0,0)
(0,0,0)
(0,0,0)
(0,0,0)
(0,0,0)
(0,0,0)
(0,0,0)
(0,0,0)
(0,0,0)
(0,0,0)
(0,0,0)
(0,0,0)
(0,0,0)
(0,0,0)
(0,0,0)
(0,0,0)
(0,0,0)
(0,0,0)
(0,0,0)
(0,0,0)
(0,0,0)
(0,0,0)
(0,0,0)
(0,0,0)
(0,0,0)
(0,0,0)
(0,0,0)
(0,0,0)
(0,0,0)
(0,0,0)
(0,0,0)
(0,0,0)
(0,0,0)
(0,0,0)
(0,0,0)
(0,0,0)
(0,0,0)
(0,0,0)
(0,0,0)
(0,0,0)
(0,0,0)
(0,0,0)
(0,0,0)
(0,0,0)
(0,0,0)
(0,0,0)
(0,0,0)
(0,0,0)
(0,0,0)
(0,0,0)
(0,0,0)
(0,0,0)
(0,0,0)
(0,0,0)
(0,0,0)
(0,0,0)
(0,0,0)
(0,0,0)
(0,0,0)
(0,0,0)
(0,0,0)
(0,0,0)
(0,0,0)
(0,0,0)
(0,0,0)
(0,0,0)
(0,0,0)
(0,0,0)
(0,0,0)
(0,0,0)
(0,0,0)
(0,0,0)
(0,0,0)
(0,0,0)
(0,0,0)
(0,0,0)
(0,0,0)
(0,0,0)
(0,0,0)
(0,0,0)
(0,0,0)
(0,0,0)
(0,0,0)
(0,0,0)
(0,0,0)
(0,0,0)
(0,0,0)
(0,0,0)
(0,0,0)
(0,0,0)
(0,0,0)
(0,0,0)
(0,0,0)
(0,0,0)
(0,0,0)
(0,0,0)
(0,0,0)
(0,0,0)
(0,0,0)
(0,0,0)
(0,0,0)
(0,0,0)
(0,0,0)
(0,0,0)
(0,0,0)
(0,0,0)
(0,0,0)
(0,0,0)
(0,0,0)
(0,0,0)
(0,0,0)
(0,0,0)
(0,0,0)
(0,0,0)
(0,0,0)
(0,0,0)
(0,0,0)
(0,0,0)
(0,0,0)
(0,0,0)
(0,0,0)
(0,0,0)
(0,0,0)
(0,0,0)
(0,0,0)
(0,0,0)
(0,0,0)
(0,0,0)
(0,0,0)
(0,0,0)
(0,0,0)
(0,0,0)
(0,0,0)
(0,0,0)
(0,0,0)
(0,0,0)
(0,0,0)
(0,0,0)
(0,0,0)
(0,0,0)
(0,0,0)
(0,0,0)
(0,0,0)
(0,0,0)
(0,0,0)
(0,0,0)
(0,0,0)
(0,0,0)
(0,0,0)
(0,0,0)
(0,0,0)
(0,0,0)
(0,0,0)
(0,0,0)
(0,0,0)
(0,0,0)
(0,0,0)
(0,0,0)
(0,0,0)
(0,0,0)
(0,0,0)
(0,0,0)
(0,0,0)
(0,0,0)
(0,0,0)
(0,0,0)
(0,0,0)
(0,0,0)
(0,0,0)
(0,0,0)
(0,0,0)
(0,0,0)
(0,0,0)
(0,0,0)
(0,0,0)
(0,0,0)
(0,0,0)
(0,0,0)
(0,0,0)
(0,0,0)
(0,0,0)
(0,0,0)
(0,0,0)
(0,0,0)
(0,0,0)
(0,0,0)
(0,0,0)
(0,0,0)
(0,0,0)
(0,0,0)
(0,0,0)
(0,0,0)
(0,0,0)
(0,0,0)
(0,0,0)
(0,0,0)
(0,0,0)
(0,0,0)
(0,0,0)
(0,0,0)
(0,0,0)
(0,0,0)
(0,0,0)
(0,0,0)
(0,0,0)
(0,0,0)
(0,0,0)
(0,0,0)
(0,0,0)
(0,0,0)
(0,0,0)
(0,0,0)
(0,0,0)
(0,0,0)
(0,0,0)
(0,0,0)
(0,0,0)
(0,0,0)
(0,0,0)
(0,0,0)
(0,0,0)
(0,0,0)
(0,0,0)
(0,0,0)
(0,0,0)
(0,0,0)
(0,0,0)
(0,0,0)
(0,0,0)
(0,0,0)
(0,0,0)
(0,0,0)
(0,0,0)
(0,0,0)
(0,0,0)
(0,0,0)
(0,0,0)
(0,0,0)
(0,0,0)
(0,0,0)
(0,0,0)
(0,0,0)
(0,0,0)
(0,0,0)
(0,0,0)
(0,0,0)
(0,0,0)
(0,0,0)
(0,0,0)
(0,0,0)
(0,0,0)
(0,0,0)
(0,0,0)
(0,0,0)
(0,0,0)
(0,0,0)
(0,0,0)
(0,0,0)
(0,0,0)
(0,0,0)
(0,0,0)
(0,0,0)
(0,0,0)
(0,0,0)
(0,0,0)
(0,0,0)
(0,0,0)
(0,0,0)
(0,0,0)
(0,0,0)
(0,0,0)
(0,0,0)
(0,0,0)
(0,0,0)
(0,0,0)
(0,0,0)
(0,0,0)
(0,0,0)
(0,0,0)
(0,0,0)
(0,0,0)
(0,0,0)
(0,0,0)
(0,0,0)
(0,0,0)
(0,0,0)
(0,0,0)
(0,0,0)
(0,0,0)
(0,0,0)
(0,0,0)
(0,0,0)
(0,0,0)
(0,0,0)
(0,0,0)
(0,0,0)
(0,0,0)
(0,0,0)
(0,0,0)
(0,0,0)
(0,0,0)
(0,0,0)
(0,0,0)
(0,0,0)
(0,0,0)
(0,0,0)
(0,0,0)
(0,0,0)
(0,0,0)
(0,0,0)
(0,0,0)
(0,0,0)
(0,0,0)
(0,0,0)
(0,0,0)
(0,0,0)
(0,0,0)
(0,0,0)
(0,0,0)
(0,0,0)
(0,0,0)
(0,0,0)
(0,0,0)
(0,0,0)
(0,0,0)
(0,0,0)
(0,0,0)
(0,0,0)
(0,0,0)
(0,0,0)
(0,0,0)
(0,0,0)
(0,0,0)
(0,0,0)
(0,0,0)
(0,0,0)
(0,0,0)
(0,0,0)
(0,0,0)
(0,0,0)
(0,0,0)
(0,0,0)
(0,0,0)
(0,0,0)
(0,0,0)
(0,0,0)
(0,0,0)
(0,0,0)
(0,0,0)
(0,0,0)
(0,0,0)
(0,0,0)
(0,0,0)
(0,0,0)
(0,0,0)
(0,0,0)
(0,0,0)
(0,0,0)
(0,0,0)
(0,0,0)
(0,0,0)
(0,0,0)
(0,0,0)
(0,0,0)
(0,0,0)
(0,0,0)
(0,0,0)
(0,0,0)
(0,0,0)
(0,0,0)
(0,0,0)
(0,0,0)
(0,0,0)
(0,0,0)
(0,0,0)
(0,0,0)
(0,0,0)
(0,0,0)
(0,0,0)
(0,0,0)
(0,0,0)
(0,0,0)
(0,0,0)
(0,0,0)
(0,0,0)
(0,0,0)
(0,0,0)
(0,0,0)
(0,0,0)
(0,0,0)
(0,0,0)
(0,0,0)
(0,0,0)
(0,0,0)
(0,0,0)
(0,0,0)
(0,0,0)
(0,0,0)
(0,0,0)
(0,0,0)
(0,0,0)
(0,0,0)
(0,0,0)
(0,0,0)
(0,0,0)
(0,0,0)
(0,0,0)
(0,0,0)
(0,0,0)
(0,0,0)
(0,0,0)
(0,0,0)
(0,0,0)
(0,0,0)
(0,0,0)
(0,0,0)
(0,0,0)
(0,0,0)
(0,0,0)
(0,0,0)
(0,0,0)
(0,0,0)
(0,0,0)
(0,0,0)
(0,0,0)
(0,0,0)
(0,0,0)
(0,0,0)
(0,0,0)
(0,0,0)
(0,0,0)
(0,0,0)
(0,0,0)
(0,0,0)
(0,0,0)
(0,0,0)
(0,0,0)
(0,0,0)
(0,0,0)
(0,0,0)
(0,0,0)
(0,0,0)
(0,0,0)
(0,0,0)
(0,0,0)
(0,0,0)
(0,0,0)
(0,0,0)
(0,0,0)
(0,0,0)
(0,0,0)
(0,0,0)
(0,0,0)
(0,0,0)
(0,0,0)
(0,0,0)
(0,0,0)
(0,0,0)
(0,0,0)
(0,0,0)
(0,0,0)
(0,0,0)
(0,0,0)
(0,0,0)
(0,0,0)
(0,0,0)
(0,0,0)
(0,0,0)
(0,0,0)
(0,0,0)
(0,0,0)
(0,0,0)
(0,0,0)
(0,0,0)
(0,0,0)
(0,0,0)
(0,0,0)
(0,0,0)
(0,0,0)
(0,0,0)
(0,0,0)
(0,0,0)
(0,0,0)
(0,0,0)
(0,0,0)
(0,0,0)
(0,0,0)
(0,0,0)
(0,0,0)
(0,0,0)
(0,0,0)
(0,0,0)
(0,0,0)
(0,0,0)
(0,0,0)
(0,0,0)
(0,0,0)
(0,0,0)
(0,0,0)
(0,0,0)
(0,0,0)
(0,0,0)
(0,0,0)
(0,0,0)
(0,0,0)
(0,0,0)
(0,0,0)
(0,0,0)
(0,0,0)
(0,0,0)
(0,0,0)
(0,0,0)
(0,0,0)
(0,0,0)
(0,0,0)
(0,0,0)
(0,0,0)
(0,0,0)
(0,0,0)
(0,0,0)
(0,0,0)
(0,0,0)
(0,0,0)
(0,0,0)
(0,0,0)
(0,0,0)
(0,0,0)
(0,0,0)
(0,0,0)
(0,0,0)
(0,0,0)
(0,0,0)
(0,0,0)
(0,0,0)
(0,0,0)
(0,0,0)
(0,0,0)
(0,0,0)
(0,0,0)
(0,0,0)
(0,0,0)
(0,0,0)
(0,0,0)
(0,0,0)
(0,0,0)
(0,0,0)
(0,0,0)
(0,0,0)
(0,0,0)
(0,0,0)
(0,0,0)
(0,0,0)
(0,0,0)
(0,0,0)
(0,0,0)
(0,0,0)
(0,0,0)
(0,0,0)
(0,0,0)
(0,0,0)
(0,0,0)
(0,0,0)
(0,0,0)
(0,0,0)
(0,0,0)
(0,0,0)
(0,0,0)
(0,0,0)
(0,0,0)
(0,0,0)
(0,0,0)
(0,0,0)
(0,0,0)
(0,0,0)
(0,0,0)
(0,0,0)
(0,0,0)
(0,0,0)
(0,0,0)
(0,0,0)
(0,0,0)
(0,0,0)
(0,0,0)
(0,0,0)
(0,0,0)
(0,0,0)
(0,0,0)
(0,0,0)
(0,0,0)
(0,0,0)
(0,0,0)
(0,0,0)
(0,0,0)
(0,0,0)
(0,0,0)
(0,0,0)
(0,0,0)
(0,0,0)
(0,0,0)
(0,0,0)
(0,0,0)
(0,0,0)
(0,0,0)
(0,0,0)
(0,0,0)
(0,0,0)
(0,0,0)
(0,0,0)
(0,0,0)
(0,0,0)
(0,0,0)
(0,0,0)
(0,0,0)
(0,0,0)
(0,0,0)
(0,0,0)
(0,0,0)
(0,0,0)
(0,0,0)
(0,0,0)
(0,0,0)
(0,0,0)
(0,0,0)
(0,0,0)
(0,0,0)
(0,0,0)
(0,0,0)
(0,0,0)
(0,0,0)
(0,0,0)
(0,0,0)
(0,0,0)
(0,0,0)
(0,0,0)
(0,0,0)
(0,0,0)
(0,0,0)
(0,0,0)
(0,0,0)
(0,0,0)
(0,0,0)
(0,0,0)
(0,0,0)
(0,0,0)
(0,0,0)
(0,0,0)
(0,0,0)
(0,0,0)
(0,0,0)
(0,0,0)
(0,0,0)
(0,0,0)
(0,0,0)
(0,0,0)
(0,0,0)
(-138061.750985313,73378.6915985784,64683.059386733)
(-145972.282848062,70370.3185389784,140285.023695817)
(-164373.515508603,64111.1925760665,240547.346628354)
(-199121.106980096,54250.1612489164,385418.292359541)
(-261845.600506921,40913.3976791098,606350.495187359)
(-374461.555244966,25557.4947843137,955254.555648005)
(-578328.743750034,11531.7716547366,1522051.52774333)
(-946790.532478553,2938.17128555319,2465903.88893636)
(-1561675.52049553,74.0639413285765,4027505.34549053)
(-2176038.30329457,-183.112788013867,6203726.76157315)
(0,0,0)
(0,0,0)
(0,0,0)
(0,0,0)
(0,0,0)
(0,0,0)
(-146015.326830259,157717.991987436,61676.0264413997)
(-154034.425728919,152079.4174193,134001.353290003)
(-172743.82656293,140165.293135136,230691.079293859)
(-208297.780652841,121098.142346991,372140.878848631)
(-272727.527326908,94712.0746616768,591069.729192961)
(-388027.925054187,63277.8765818817,941377.27244958)
(-594164.289155449,33459.2967516628,1513614.0365081)
(-961232.917415668,14587.5580164849,2463197.56719276)
(-1571297.58979304,7147.56214920618,4027421.65877797)
(-2180513.53683498,3640.13597438285,6204111.94685048)
(0,0,0)
(0,0,0)
(0,0,0)
(0,0,0)
(0,0,0)
(0,0,0)
(-164221.643740631,265966.815933402,55972.8197946648)
(-172383.127317583,258404.650653512,122030.713878039)
(-191673.053675295,242227.075263927,211641.985424548)
(-229003.905129824,215878.544612578,345865.488288787)
(-297539.666320827,178281.353941226,559835.875330053)
(-419966.343049259,131235.397173887,911844.697787305)
(-633198.552286821,83520.4604161936,1494982.08640961)
(-997195.377449287,50763.9972361481,2456001.02463921)
(-1594469.29154767,33432.4630848237,4024185.41525129)
(-2191012.93228808,18080.2367882913,6200758.24672551)
(0,0,0)
(0,0,0)
(0,0,0)
(0,0,0)
(0,0,0)
(0,0,0)
(-198116.430309857,415807.691565732,48275.554677528)
(-206438.008729234,407347.307420492,105770.906639784)
(-226479.26980763,389188.126216945,185289.125494388)
(-266382.261150729,359226.703669107,308323.227588581)
(-341716.024933721,315351.158400954,512969.448062582)
(-477857.951882369,257633.888563007,864428.908555834)
(-707985.811563489,193451.211371409,1462483.9691641)
(-1066772.5696275,141070.382955613,2438950.15307207)
(-1636923.17492593,100172.004532926,4009133.78654986)
(-2209540.17237819,53843.4280856631,6182910.76763083)
(0,0,0)
(0,0,0)
(0,0,0)
(0,0,0)
(0,0,0)
(0,0,0)
(-258923.813984634,635010.425309983,39721.0802403795)
(-267224.62865113,626744.177843712,87548.8384682869)
(-287673.840420725,609095.10580914,155315.699296817)
(-329752.537857846,579879.276145193,264415.664678576)
(-412111.112807949,536600.790862955,455277.145024526)
(-565252.354637836,477754.724945073,800408.663280272)
(-821967.520874141,405551.476659589,1410275.91886623)
(-1172747.860844,325771.0656175,2398323.09704835)
(-1698653.42307716,234130.124111184,3963018.40054733)
(-2236349.80793684,124065.680260221,6129145.95630959)
(0,0,0)
(0,0,0)
(0,0,0)
(0,0,0)
(0,0,0)
(0,0,0)
(-368744.899641528,972331.453260777,31423.8716907373)
(-376635.22999015,964959.489802002,69843.7897225921)
(-396427.67628443,949253.388822497,126113.182993666)
(-438108.323591467,922967.907422775,221132.875307549)
(-521333.461350908,882658.707962927,396408.419558489)
(-677395.138335043,823307.392832723,728250.890005902)
(-934913.610133089,738235.440682366,1330480.53611622)
(-1269773.99509957,619280.067033197,2306745.52980009)
(-1765556.10762898,453439.666031655,3852992.09550867)
(-2270067.89144414,242049.898911895,6005075.76830097)
(0,0,0)
(0,0,0)
(0,0,0)
(0,0,0)
(0,0,0)
(0,0,0)
(-570335.617227357,1518628.27977115,24038.7907169766)
(-577323.086097715,1512268.00038049,54053.3662362106)
(-595090.902358065,1498602.90416652,99794.7532502578)
(-633190.23134668,1475172.8105206,180780.081499114)
(-710514.741859494,1437012.27423395,336941.257087582)
(-857155.213599745,1374310.727235,643093.13628505)
(-1098847.52965696,1268762.73604202,1211413.37058237)
(-1403334.01873557,1093127.65172823,2140899.80462291)
(-1865223.19493738,817884.020407481,3641678.64518441)
(-2325035.00095814,445622.07045888,5763141.47459569)
(0,0,0)
(0,0,0)
(0,0,0)
(0,0,0)
(0,0,0)
(0,0,0)
(-939037.308671932,2440003.00336907,17662.5850740222)
(-944620.512512097,2434245.72749715,40305.3704694655)
(-958935.455748045,2421571.73865998,76271.9917240684)
(-989928.326071547,2398825.36938296,142547.75893325)
(-1053485.03176611,2358926.96423113,274118.100702178)
(-1175383.02391644,2286317.06929217,537494.78256142)
(-1377792.23766227,2148247.71420883,1035802.04205686)
(-1624303.84255355,1887486.34475881,1865747.19157985)
(-2046107.845601,1460209.17076804,3269529.88682029)
(-2430122.53803485,827665.033315467,5317609.46199849)
(0,0,0)
(0,0,0)
(0,0,0)
(0,0,0)
(0,0,0)
(0,0,0)
(-1556476.60771549,3984585.68537453,11893.9257099825)
(-1560263.98178751,3978862.69175006,27540.9432445952)
(-1569983.8362464,3965693.89257968,53402.6255712418)
(-1590820.96321565,3940497.91438309,102551.04378674)
(-1632802.8513122,3892813.09189672,201467.767433352)
(-1711678.83149401,3800000.97545289,399462.692766649)
(-1844180.49142539,3616778.34320477,775112.5551961)
(-2041082.14074938,3265133.69709202,1438547.34361228)
(-2379729.97206467,2641458.37397857,2637028.11246634)
(-2613430.3263581,1588206.69504477,4489916.77709514)
(0,0,0)
(0,0,0)
(0,0,0)
(0,0,0)
(0,0,0)
(0,0,0)
(-2173667.31086343,6152206.16416775,6046.83207024401)
(-2175562.06648019,6146259.79135003,14211.798950475)
(-2180404.25817467,6132266.28374187,28043.6659629922)
(-2190636.7758942,6104463.79021396,54714.5660263792)
(-2210959.92904823,6049871.1293817,108616.457589662)
(-2248947.22044873,5941232.44406571,216332.209425545)
(-2315255.25262446,5724697.93501952,423667.870235255)
(-2427008.89354958,5300760.02868615,815050.432190661)
(-2612832.53161184,4485547.43741495,1583793.90036608)
(-2631399.14681931,2901715.90331966,2901683.83891054)
(0,0,0)
(0,0,0)
(0,0,0)
(0,0,0)
(0,0,0)
(0,0,0)
(0,0,0)
(0,0,0)
(0,0,0)
(0,0,0)
(0,0,0)
(0,0,0)
(0,0,0)
(0,0,0)
(0,0,0)
(0,0,0)
(0,0,0)
(0,0,0)
(0,0,0)
(0,0,0)
(0,0,0)
(0,0,0)
(0,0,0)
(0,0,0)
(0,0,0)
(0,0,0)
(0,0,0)
(0,0,0)
(0,0,0)
(0,0,0)
(0,0,0)
(0,0,0)
(0,0,0)
(0,0,0)
(0,0,0)
(0,0,0)
(0,0,0)
(0,0,0)
(0,0,0)
(0,0,0)
(0,0,0)
(0,0,0)
(0,0,0)
(0,0,0)
(0,0,0)
(0,0,0)
(0,0,0)
(0,0,0)
(0,0,0)
(0,0,0)
(0,0,0)
(0,0,0)
(0,0,0)
(0,0,0)
(0,0,0)
(0,0,0)
(0,0,0)
(0,0,0)
(0,0,0)
(0,0,0)
(0,0,0)
(0,0,0)
(0,0,0)
(0,0,0)
(0,0,0)
(0,0,0)
(0,0,0)
(0,0,0)
(0,0,0)
(0,0,0)
(0,0,0)
(0,0,0)
(0,0,0)
(0,0,0)
(0,0,0)
(0,0,0)
(0,0,0)
(0,0,0)
(0,0,0)
(0,0,0)
(0,0,0)
(0,0,0)
(0,0,0)
(0,0,0)
(0,0,0)
(0,0,0)
(0,0,0)
(0,0,0)
(0,0,0)
(0,0,0)
(0,0,0)
(0,0,0)
(0,0,0)
(0,0,0)
(0,0,0)
(0,0,0)
(0,0,0)
(0,0,0)
(0,0,0)
(0,0,0)
(0,0,0)
(0,0,0)
(20408492.5598772,65436.655160807,56722.5908097989)
(20395223.9825082,62353.8086140131,121886.073672725)
(20364643.3984011,55788.7351805701,205793.981415471)
(20307534.6046454,45098.8436250964,322752.982998027)
(20205762.2328144,30006.0546660133,493852.651843834)
(20024683.0253267,11937.3795000623,751484.248605108)
(19692485.8171246,-4304.92511686848,1153688.16968038)
(19035926.9316579,-11473.4038084286,1851157.66618552)
(17554363.1767411,-9542.71141289364,3413375.23719498)
(13530722.3470365,-4687.27311788972,8380015.41681498)
(0,0,0)
(0,0,0)
(0,0,0)
(0,0,0)
(0,0,0)
(0,0,0)
(20394942.4614867,139550.468308748,53641.9553682847)
(20381611.3694793,133759.009938024,115304.515669195)
(20350719.4797618,121234.494199728,195109.007158365)
(20292539.3033535,100368.761219765,307715.562390477)
(20188028.2616894,69829.2361130032,475850.148760374)
(20001882.4542282,31242.9040629136,735347.80174837)
(19664581.5118164,-5612.46026627201,1146623.0927591)
(19010761.0488223,-21357.2748209961,1853226.55436691)
(17538739.118106,-16012.805148289,3418373.4970362)
(13523914.7784887,-6852.80230596482,8384824.26773368)
(0,0,0)
(0,0,0)
(0,0,0)
(0,0,0)
(0,0,0)
(0,0,0)
(20364177.067569,232031.203053652,47834.1107785186)
(20350812.216755,224326.320737503,102785.012739593)
(20319330.8860134,207416.413898639,174312.710185157)
(20258596.7980765,178470.82527123,277323.499760559)
(20146853.0882695,134033.813486091,437439.724630287)
(19945474.427149,73268.3092336453,698687.106094509)
(19588866.2264009,8682.30979216629,1131041.11418155)
(18941233.9019052,-18811.2926921942,1858779.40953155)
(17498287.9128508,-9021.09824979696,3427744.05506765)
(13507133.9248547,-426.802814123625,8391884.75526627)
(0,0,0)
(0,0,0)
(0,0,0)
(0,0,0)
(0,0,0)
(0,0,0)
(20307658.4695833,354966.980462221,40002.8795313676)
(20294289.2649578,346527.169094107,85788.314320925)
(20262051.5755617,327992.020491004,145395.41919234)
(20197343.9562071,295863.335863515,232990.248075383)
(20072245.3614114,244943.673076889,376832.558972723)
(19836395.1816301,170235.490726723,634325.800800336)
(19420527.8134867,79476.4457588723,1103731.59661658)
(18782945.7224912,35114.9339364945,1868800.63470237)
(17416549.0317832,38475.8228144044,3436545.06376207)
(13475725.4704355,27089.5197488009,8392476.65521877)
(0,0,0)
(0,0,0)
(0,0,0)
(0,0,0)
(0,0,0)
(0,0,0)
(20208075.6664887,525216.35523485,31464.7015871738)
(20194992.2438873,517327.872305341,67160.6826706641)
(20162580.9498503,500338.548048701,113272.921675143)
(20094471.239946,471535.489849792,182090.546718111)
(19954100.3850126,427371.022587081,302165.256220607)
(19666549.7994361,365605.443868223,543706.705838312)
(19117757.455906,292648.692429385,1059523.03922085)
(18489400.1220714,228776.926181465,1872426.62089371)
(17288373.2491438,167246.092915454,3425343.23540472)
(13428970.8242814,90368.0384135255,8365457.64135493)
(0,0,0)
(0,0,0)
(0,0,0)
(0,0,0)
(0,0,0)
(0,0,0)
(20030837.4669925,770741.488704623,23606.0567292861)
(20018617.0886875,764252.056226815,50143.1109633892)
(19987722.3951377,750557.354005654,84487.7904174835)
(19920832.5871877,727868.210755799,137927.71556556)
(19778842.6609711,693458.05578498,240378.116878842)
(19483040.0185747,643498.463520465,470763.497149999)
(18927251.1854606,574307.673166353,995653.277652534)
(18326626.4410996,485728.342642859,1811014.98182502)
(17179143.5621333,353744.572817726,3348530.3889936)
(13375386.2358511,187059.363844297,8275098.49310068)
(0,0,0)
(0,0,0)
(0,0,0)
(0,0,0)
(0,0,0)
(0,0,0)
(19702052.4866099,1149957.40984268,17109.5318578163)
(19691393.2414095,1144993.22118097,36365.596229591)
(19664002.0052886,1134772.78213005,61770.8172917465)
(19603253.6059034,1118414.56034286,103494.187287794)
(19470839.0164701,1093982.82498847,190329.216587907)
(19187963.5647926,1055989.25322954,401433.205319613)
(18648871.6465352,989775.348730689,906959.910396219)
(18106823.2903525,872158.577928004,1679085.92285625)
(17017425.4069307,636973.082171938,3181922.36846689)
(13283999.159024,340509.913811705,8088151.21535062)
(0,0,0)
(0,0,0)
(0,0,0)
(0,0,0)
(0,0,0)
(0,0,0)
(19044865.334675,1822665.78263242,12102.5406965357)
(19036468.764433,1818687.88907725,26032.1526883338)
(19014639.8864474,1810598.99836039,45344.1510956857)
(18965544.2985179,1797948.06457819,79051.5791040925)
(18856425.439516,1779570.31364462,152267.175998898)
(18616475.3823635,1749978.33468354,335133.245098202)
(18144620.2103625,1681865.26075056,789344.441886703)
(17791143.224603,1470750.52441188,1444018.98507931)
(16691432.3201256,1126597.19070733,2885568.26765044)
(13072569.464153,644360.108450455,7747739.62765703)
(0,0,0)
(0,0,0)
(0,0,0)
(0,0,0)
(0,0,0)
(0,0,0)
(17559438.9341741,3367394.4921063,8069.30546977217)
(17553814.7245475,3363577.49570325,17814.5493419819)
(17539244.9633873,3355304.4316984,32593.873203487)
(17507131.50565,3340689.11283443,60613.9129147408)
(17438830.2763163,3314644.02475996,122620.631004008)
(17299893.4958229,3262740.28011886,266999.915084963)
(17049375.8365515,3145754.73836503,578267.666326825)
(16697419.6206357,2879279.78416467,1099950.20202219)
(15703745.4708893,2408404.49810732,2403381.00850139)
(12429382.0511142,1570257.3280934,7103384.96821924)
(0,0,0)
(0,0,0)
(0,0,0)
(0,0,0)
(0,0,0)
(0,0,0)
(13532523.6104605,8325800.41874589,4116.70886953819)
(13529741.0972757,8321748.32991499,9356.26773495782)
(13522590.6089772,8312572.2745349,17807.1145798043)
(13507174.0868378,8294994.57602894,34404.3454866012)
(13475426.7407601,8260737.00244815,70638.2548233104)
(13412990.99785,8190119.22921017,150034.644266527)
(13297364.4154111,8039953.41680314,311929.854626031)
(13075883.7974908,7727798.24465826,629232.259925326)
(12429875.5276044,7098393.74796112,1565248.50768849)
(10106611.4909735,5533107.14477792,5533101.61004419)
(0,0,0)
(0,0,0)
(0,0,0)
(0,0,0)
(0,0,0)
(0,0,0)
(0,0,0)
(0,0,0)
(0,0,0)
(0,0,0)
(0,0,0)
(0,0,0)
(0,0,0)
(0,0,0)
(0,0,0)
(0,0,0)
(0,0,0)
(0,0,0)
(0,0,0)
(0,0,0)
(0,0,0)
(0,0,0)
(0,0,0)
(0,0,0)
(0,0,0)
(0,0,0)
(0,0,0)
(0,0,0)
(0,0,0)
(0,0,0)
(0,0,0)
(0,0,0)
(0,0,0)
(0,0,0)
(0,0,0)
(0,0,0)
(0,0,0)
(0,0,0)
(0,0,0)
(0,0,0)
(0,0,0)
(0,0,0)
(0,0,0)
(0,0,0)
(0,0,0)
(0,0,0)
(0,0,0)
(0,0,0)
(0,0,0)
(0,0,0)
(0,0,0)
(0,0,0)
(0,0,0)
(0,0,0)
(0,0,0)
(0,0,0)
(0,0,0)
(0,0,0)
(0,0,0)
(0,0,0)
(0,0,0)
(0,0,0)
(0,0,0)
(0,0,0)
(0,0,0)
(0,0,0)
(0,0,0)
(0,0,0)
(0,0,0)
(0,0,0)
(0,0,0)
(0,0,0)
(0,0,0)
(0,0,0)
(0,0,0)
(0,0,0)
(0,0,0)
(0,0,0)
(0,0,0)
(0,0,0)
(0,0,0)
(0,0,0)
(0,0,0)
(0,0,0)
(0,0,0)
(0,0,0)
(0,0,0)
(0,0,0)
(0,0,0)
(0,0,0)
(0,0,0)
(0,0,0)
(0,0,0)
(0,0,0)
(0,0,0)
(0,0,0)
(0,0,0)
(0,0,0)
(0,0,0)
(0,0,0)
(0,0,0)
(0,0,0)
(-355521.043508515,51881.3728651214,43418.673687475)
(-370138.039876939,48757.8425253996,91309.2967140075)
(-403304.096573661,41905.5909243903,148637.64393136)
(-463677.744428971,30131.2738116466,221005.162360936)
(-567052.864278302,12241.1255139537,312865.577106548)
(-739619.099577078,-10914.4944780738,419368.639655386)
(-1021874.96718102,-32230.8366629123,497246.703790847)
(-1468642.9876665,-36665.7644043233,369768.830686409)
(-2109330.60456785,-25210.8920862551,-610040.0527516)
(-2585910.94671489,-11549.9856185881,-5150570.33021467)
(0,0,0)
(0,0,0)
(0,0,0)
(0,0,0)
(0,0,0)
(0,0,0)
(-370989.699298098,108787.004257155,40312.9725595781)
(-385411.684307583,102924.383089657,84455.9289490616)
(-418276.418041087,89773.7701677518,136870.090675528)
(-478695.034299649,66361.3475208293,203160.797786372)
(-583610.24788683,28565.6092964333,289761.266746934)
(-760857.996468104,-25260.898208109,398134.564340043)
(-1049737.79317865,-81379.5246132304,492889.000452253)
(-1492186.30757779,-90886.1169821248,381343.152596919)
(-2121120.16110755,-56466.0900213134,-596255.927087441)
(-2590045.67687773,-23638.6742266911,-5138920.339946)
(0,0,0)
(0,0,0)
(0,0,0)
(0,0,0)
(0,0,0)
(0,0,0)
(-405636.146390826,175422.743071524,34463.9183124054)
(-419578.957094852,167722.704925758,71343.2134930172)
(-451836.409516553,150034.587116467,113536.13524108)
(-512834.13200423,117099.393938848,165515.462070606)
(-623175.660166496,59312.814016513,236083.448953372)
(-818671.913794513,-35895.3947776507,342150.729633211)
(-1142869.30795423,-159691.806138222,483484.988680136)
(-1573735.99227866,-177078.052133798,415933.261182358)
(-2156920.22406932,-90744.3546479538,-563293.894103909)
(-2601521.71569713,-31807.9075789097,-5115182.57703306)
(0,0,0)
(0,0,0)
(0,0,0)
(0,0,0)
(0,0,0)
(0,0,0)
(-467583.4807954,255289.22077151,26661.9158456189)
(-480800.278963021,247161.188495107,53599.4193638993)
(-512133.052457887,228456.679149662,80648.3985171825)
(-574389.531893779,192928.77853095,107838.9451928)
(-697049.291296294,126743.279762066,140989.575321688)
(-946089.989094438,370.606214940119,218495.188220489)
(-1432354.98578559,-223247.69712548,466220.321646896)
(-1840690.54111538,-258376.884668606,502441.860955141)
(-2246593.02438842,-89611.8709773193,-504262.123376961)
(-2626154.08822808,-19583.4903804537,-5083320.53874512)
(0,0,0)
(0,0,0)
(0,0,0)
(0,0,0)
(0,0,0)
(0,0,0)
(-571680.078302544,347891.275359115,18440.1333704944)
(-583831.062971824,340898.188813406,34812.8830781613)
(-613444.975392192,325437.088051573,45144.842585537)
(-675743.498254006,297888.173439906,41686.6290434949)
(-812944.723145397,252127.316376638,14634.143753689)
(-1164266.77368103,182151.351356055,-5043.58510343562)
(-2312774.27212515,102292.677391782,431234.211577243)
(-2744000.58515157,66108.2096987513,671436.267599678)
(-2422555.71663102,58113.1841254983,-434073.378561378)
(-2666565.48083588,36835.4249358716,-5063669.54559345)
(0,0,0)
(0,0,0)
(0,0,0)
(0,0,0)
(0,0,0)
(0,0,0)
(-743340.132720094,441873.288284199,11482.0299544283)
(-754026.875917348,436965.570792142,19345.0557473214)
(-780606.791749875,426780.531223599,17617.2426296913)
(-838577.118437416,410302.026676132,-4100.461814667)
(-971980.379324606,385541.996125216,-55405.6581007231)
(-1322503.02191099,348541.018003422,-84965.8410955363)
(-2415376.78521513,296132.210667421,395109.039471356)
(-2810533.19519589,266061.146983366,663602.181649134)
(-2504698.51214476,192094.320359547,-455250.437140023)
(-2706968.54397563,95691.8972642485,-5100465.68647471)
(0,0,0)
(0,0,0)
(0,0,0)
(0,0,0)
(0,0,0)
(0,0,0)
(-1024055.36806592,492726.943896376,6540.64223049508)
(-1032892.48510724,490007.373177639,9071.00952859874)
(-1055282.27578141,485351.758353251,1070.50663571031)
(-1105831.01730887,480688.752003194,-28945.1523122693)
(-1228339.81680334,479601.85745933,-92539.7372061204)
(-1571697.60812668,484540.229987352,-137591.333103887)
(-2711928.72380504,485611.115907712,365016.575162977)
(-3077152.07955334,556540.724630058,589798.8105889)
(-2628857.24091113,310989.165745376,-551526.94378803)
(-2773601.5572903,129074.650361233,-5196022.53740401)
(0,0,0)
(0,0,0)
(0,0,0)
(0,0,0)
(0,0,0)
(0,0,0)
(-1472147.64800542,337258.08567633,3768.28406726193)
(-1478802.39045851,336034.753396836,4298.50190640007)
(-1495924.60404286,335185.465446422,-3684.27152963308)
(-1535591.35350284,339493.897727541,-30067.3220664203)
(-1637008.24994622,361941.662345399,-87686.994323341)
(-1952087.31243402,433379.202703539,-136676.829075226)
(-3197742.38052489,586652.942337332,435930.37854941)
(-2606583.20213361,377087.100205427,344396.872877557)
(-2727548.34272437,138947.409019681,-733294.264379848)
(-2876598.94463336,1194.732290231,-5324959.49435561)
(0,0,0)
(0,0,0)
(0,0,0)
(0,0,0)
(0,0,0)
(0,0,0)
(-2114901.14273397,-659557.490040426,2442.09579157925)
(-2119204.01971461,-660495.499763963,3277.53638127264)
(-2130179.27258007,-661339.726901879,513.407863742744)
(-2154582.95205428,-659296.710415253,-7695.08312233783)
(-2210466.49999841,-648813.896398143,-16356.3048971897)
(-2344096.12212232,-624191.105671931,16490.0645902886)
(-2636311.6763949,-606235.291510762,226352.25455158)
(-2732002.97076662,-742183.032901939,106331.422228015)
(-2983349.97704672,-865380.626064113,-870958.651585319)
(-3030529.26559494,-752472.206155924,-5326093.95326317)
(0,0,0)
(0,0,0)
(0,0,0)
(0,0,0)
(0,0,0)
(0,0,0)
(-2590153.86605134,-5206912.32586895,1318.75550725471)
(-2592236.00604987,-5208128.18920463,2214.99144033142)
(-2597484.56238108,-5210157.5647838,2394.44384734292)
(-2608752.37363947,-5212342.60559421,2653.24267023564)
(-2632755.6193972,-5214873.7696212,8181.91921744201)
(-2683085.23892863,-5223043.83235533,34397.325846226)
(-2776112.38649863,-5257533.29110389,90458.5705159658)
(-2879625.21343373,-5348169.60549049,-16759.402804257)
(-3031430.42900153,-5331534.70655453,-758012.922541148)
(-2925441.75212701,-4573554.97101225,-4573590.47141742)
(0,0,0)
(0,0,0)
(0,0,0)
(0,0,0)
(0,0,0)
(0,0,0)
(0,0,0)
(0,0,0)
(0,0,0)
(0,0,0)
(0,0,0)
(0,0,0)
(0,0,0)
(0,0,0)
(0,0,0)
(0,0,0)
(0,0,0)
(0,0,0)
(0,0,0)
(0,0,0)
(0,0,0)
(0,0,0)
(0,0,0)
(0,0,0)
(0,0,0)
(0,0,0)
(0,0,0)
(0,0,0)
(0,0,0)
(0,0,0)
(0,0,0)
(0,0,0)
(0,0,0)
(0,0,0)
(0,0,0)
(0,0,0)
(0,0,0)
(0,0,0)
(0,0,0)
(0,0,0)
(0,0,0)
(0,0,0)
(0,0,0)
(0,0,0)
(0,0,0)
(0,0,0)
(0,0,0)
(0,0,0)
(0,0,0)
(0,0,0)
(0,0,0)
(0,0,0)
(0,0,0)
(0,0,0)
(0,0,0)
(0,0,0)
(0,0,0)
(0,0,0)
(0,0,0)
(0,0,0)
(0,0,0)
(0,0,0)
(0,0,0)
(0,0,0)
(0,0,0)
(0,0,0)
(0,0,0)
(0,0,0)
(0,0,0)
(0,0,0)
(0,0,0)
(0,0,0)
(0,0,0)
(0,0,0)
(0,0,0)
(0,0,0)
(0,0,0)
(0,0,0)
(0,0,0)
(0,0,0)
(0,0,0)
(0,0,0)
(0,0,0)
(0,0,0)
(0,0,0)
(0,0,0)
(0,0,0)
(0,0,0)
(0,0,0)
(0,0,0)
(0,0,0)
(0,0,0)
(0,0,0)
(0,0,0)
(0,0,0)
(0,0,0)
(0,0,0)
(0,0,0)
(0,0,0)
(0,0,0)
(0,0,0)
(0,0,0)
(-420583.426681111,36348.0752780445,28714.3078945531)
(-432969.80648903,33458.1564232753,58087.9180833742)
(-460350.327978013,26937.8733726015,88196.2761151261)
(-508163.116321197,15096.8082274351,117584.839779914)
(-585401.003181346,-4356.13712154266,140289.115804502)
(-704251.399501156,-32173.9090498524,137095.324778435)
(-875173.934322044,-60087.8114387916,50482.1033582541)
(-1087140.23446627,-60210.1068439749,-270810.542998014)
(-1256700.21279106,-37017.0540270991,-1086423.88074768)
(-1092106.05151545,-15715.6172432032,-2564513.15870389)
(0,0,0)
(0,0,0)
(0,0,0)
(0,0,0)
(0,0,0)
(0,0,0)
(-434635.208377443,74120.9277914003,25872.6565659871)
(-446370.194118297,68696.8994434805,51592.4233564966)
(-472238.623921951,56110.203079782,76382.2995301836)
(-517506.255944942,32115.7787993826,98174.5506035246)
(-591226.489016267,-11087.5081117088,112522.16272313)
(-706657.454504961,-83129.216565437,109276.928275578)
(-876453.756404978,-174539.803810659,50444.8838737804)
(-1081989.30043828,-172440.611465318,-247521.618644381)
(-1248367.06458376,-92263.015096189,-1065028.75409908)
(-1086971.01531433,-35116.1403809882,-2548702.89252475)
(0,0,0)
(0,0,0)
(0,0,0)
(0,0,0)
(0,0,0)
(0,0,0)
(-465502.26583445,113472.894257285,20514.1529777444)
(-475895.156080144,106441.725634548,39085.5257719651)
(-498735.937259879,89616.142691961,52479.1139031115)
(-538779.490554001,55439.543634187,55100.7076180815)
(-605145.205087674,-14610.1164416566,40592.8608692041)
(-715843.168202075,-163349.601856063,17984.50056738)
(-902877.427142061,-449202.338758275,52655.1547028307)
(-1082273.66722051,-444050.408235077,-167197.373585572)
(-1228142.15203041,-180424.022161277,-1007814.43855938)
(-1074469.8522712,-56421.9850824068,-2513560.4572839)
(0,0,0)
(0,0,0)
(0,0,0)
(0,0,0)
(0,0,0)
(0,0,0)
(-518758.610489108,151170.765492491,13477.2584585098)
(-527257.284116279,144085.838766041,22290.1504802782)
(-545680.919188476,127087.521109571,18366.6387932597)
(-577270.658691195,91547.0159008496,-14859.7066759886)
(-629281.411180709,10836.5407799714,-108074.244013198)
(-731948.985811861,-217802.186699122,-267762.662452716)
(-1103651.79531575,-1103619.01588061,57950.824199777)
(-1161724.2694264,-1161665.65775916,96599.8020348872)
(-1181123.19311862,-265521.876683185,-883772.174713004)
(-1049262.47295498,-59937.3872127833,-2457148.38785575)
(0,0,0)
(0,0,0)
(0,0,0)
(0,0,0)
(0,0,0)
(0,0,0)
(-603053.212890741,176183.615110526,6360.28497015885)
(-609337.809847551,170690.406046045,5262.46456588207)
(-622258.041868274,158299.298752753,-17136.2466012153)
(-640894.78246372,135103.779924748,-95541.7264153974)
(-654055.526717096,93142.3496770527,-336736.731740783)
(-589264.983405885,24035.8531488149,-1153576.56186387)
(-8.44626424732774e-05,-2.34729018722544e-05,5.59930060900763e-05)