/*--------------------------------*- C++ -*----------------------------------*\
| =========                 |                                                 |
| \\      /  F ield         | foam-extend: Open Source Cstd::filesystem::create_directory();FD                    |
|  \\    /   O peration     | Version:     4.0                                |
|   \\  /    A nd           | Web:         http://www.foam-extend.org         |
|    \\/     M anipulation  |                                                 |
\*---------------------------------------------------------------------------*/
FoamFile
{
    version 2.0;
    format ascii;
    class volVectorField;
    location "Data/181";
    object      H;
}
// * * * * * * * * * * * * * * * * * * * * * * * * * * * * * * * * * * * * * //

dimensions      [0 1 -1 0 0 0 0];

internalField   nonuniform List<vector>
4096
(
(0,0,0)
(0,0,0)
(0,0,0)
(0,0,0)
(0,0,0)
(0,0,0)
(0,0,0)
(0,0,0)
(0,0,0)
(0,0,0)
(0,0,0)
(0,0,0)
(0,0,0)
(0,0,0)
(0,0,0)
(0,0,0)
(0,0,0)
(0,0,0)
(0,0,0)
(0,0,0)
(0,0,0)
(0,0,0)
(0,0,0)
(0,0,0)
(0,0,0)
(0,0,0)
(0,0,0)
(0,0,0)
(0,0,0)
(0,0,0)
(0,0,0)
(0,0,0)
(0,0,0)
(0,0,0)
(0,0,0)
(0,0,0)
(0,0,0)
(0,0,0)
(0,0,0)
(0,0,0)
(0,0,0)
(0,0,0)
(0,0,0)
(0,0,0)
(0,0,0)
(0,0,0)
(0,0,0)
(0,0,0)
(0,0,0)
(0,0,0)
(0,0,0)
(0,0,0)
(0,0,0)
(0,0,0)
(0,0,0)
(0,0,0)
(0,0,0)
(0,0,0)
(0,0,0)
(0,0,0)
(0,0,0)
(0,0,0)
(0,0,0)
(0,0,0)
(0,0,0)
(0,0,0)
(0,0,0)
(0,0,0)
(0,0,0)
(0,0,0)
(0,0,0)
(0,0,0)
(0,0,0)
(0,0,0)
(0,0,0)
(0,0,0)
(0,0,0)
(0,0,0)
(0,0,0)
(0,0,0)
(0,0,0)
(0,0,0)
(0,0,0)
(0,0,0)
(0,0,0)
(0,0,0)
(0,0,0)
(0,0,0)
(0,0,0)
(0,0,0)
(0,0,0)
(0,0,0)
(0,0,0)
(0,0,0)
(0,0,0)
(0,0,0)
(0,0,0)
(0,0,0)
(0,0,0)
(0,0,0)
(0,0,0)
(0,0,0)
(0,0,0)
(0,0,0)
(0,0,0)
(0,0,0)
(0,0,0)
(0,0,0)
(0,0,0)
(0,0,0)
(0,0,0)
(0,0,0)
(0,0,0)
(0,0,0)
(0,0,0)
(0,0,0)
(0,0,0)
(0,0,0)
(0,0,0)
(0,0,0)
(0,0,0)
(0,0,0)
(0,0,0)
(0,0,0)
(0,0,0)
(0,0,0)
(0,0,0)
(0,0,0)
(0,0,0)
(0,0,0)
(0,0,0)
(0,0,0)
(0,0,0)
(0,0,0)
(0,0,0)
(0,0,0)
(0,0,0)
(0,0,0)
(0,0,0)
(0,0,0)
(0,0,0)
(0,0,0)
(0,0,0)
(0,0,0)
(0,0,0)
(0,0,0)
(0,0,0)
(0,0,0)
(0,0,0)
(0,0,0)
(0,0,0)
(0,0,0)
(0,0,0)
(0,0,0)
(0,0,0)
(0,0,0)
(0,0,0)
(0,0,0)
(0,0,0)
(0,0,0)
(0,0,0)
(0,0,0)
(0,0,0)
(0,0,0)
(0,0,0)
(0,0,0)
(0,0,0)
(0,0,0)
(0,0,0)
(0,0,0)
(0,0,0)
(0,0,0)
(0,0,0)
(0,0,0)
(0,0,0)
(0,0,0)
(0,0,0)
(0,0,0)
(0,0,0)
(0,0,0)
(0,0,0)
(0,0,0)
(0,0,0)
(0,0,0)
(0,0,0)
(0,0,0)
(0,0,0)
(0,0,0)
(0,0,0)
(0,0,0)
(0,0,0)
(0,0,0)
(0,0,0)
(0,0,0)
(0,0,0)
(0,0,0)
(0,0,0)
(0,0,0)
(0,0,0)
(0,0,0)
(0,0,0)
(0,0,0)
(0,0,0)
(0,0,0)
(0,0,0)
(0,0,0)
(0,0,0)
(0,0,0)
(0,0,0)
(0,0,0)
(0,0,0)
(0,0,0)
(0,0,0)
(0,0,0)
(0,0,0)
(0,0,0)
(0,0,0)
(0,0,0)
(0,0,0)
(0,0,0)
(0,0,0)
(0,0,0)
(0,0,0)
(0,0,0)
(0,0,0)
(0,0,0)
(0,0,0)
(0,0,0)
(0,0,0)
(0,0,0)
(0,0,0)
(0,0,0)
(0,0,0)
(0,0,0)
(0,0,0)
(0,0,0)
(0,0,0)
(0,0,0)
(0,0,0)
(0,0,0)
(0,0,0)
(0,0,0)
(0,0,0)
(0,0,0)
(0,0,0)
(0,0,0)
(0,0,0)
(0,0,0)
(0,0,0)
(0,0,0)
(0,0,0)
(0,0,0)
(0,0,0)
(0,0,0)
(0,0,0)
(0,0,0)
(0,0,0)
(0,0,0)
(0,0,0)
(0,0,0)
(0,0,0)
(0,0,0)
(0,0,0)
(0,0,0)
(0,0,0)
(0,0,0)
(0,0,0)
(0,0,0)
(0,0,0)
(0,0,0)
(0,0,0)
(0,0,0)
(0,0,0)
(0,0,0)
(0,0,0)
(0,0,0)
(0,0,0)
(0,0,0)
(0,0,0)
(0,0,0)
(0,0,0)
(0,0,0)
(0,0,0)
(0,0,0)
(0,0,0)
(0,0,0)
(0,0,0)
(0,0,0)
(0,0,0)
(0,0,0)
(0,0,0)
(0,0,0)
(0,0,0)
(0,0,0)
(0,0,0)
(0,0,0)
(0,0,0)
(0,0,0)
(0,0,0)
(0,0,0)
(0,0,0)
(0,0,0)
(0,0,0)
(0,0,0)
(0,0,0)
(0,0,0)
(0,0,0)
(0,0,0)
(0,0,0)
(0,0,0)
(0,0,0)
(0,0,0)
(0,0,0)
(0,0,0)
(0,0,0)
(0,0,0)
(0,0,0)
(0,0,0)
(0,0,0)
(0,0,0)
(0,0,0)
(0,0,0)
(0,0,0)
(0,0,0)
(0,0,0)
(0,0,0)
(0,0,0)
(0,0,0)
(0,0,0)
(0,0,0)
(0,0,0)
(0,0,0)
(0,0,0)
(0,0,0)
(0,0,0)
(0,0,0)
(0,0,0)
(0,0,0)
(0,0,0)
(0,0,0)
(0,0,0)
(0,0,0)
(0,0,0)
(0,0,0)
(0,0,0)
(0,0,0)
(0,0,0)
(0,0,0)
(0,0,0)
(0,0,0)
(0,0,0)
(0,0,0)
(0,0,0)
(0,0,0)
(0,0,0)
(0,0,0)
(0,0,0)
(0,0,0)
(0,0,0)
(0,0,0)
(0,0,0)
(0,0,0)
(0,0,0)
(0,0,0)
(0,0,0)
(0,0,0)
(0,0,0)
(0,0,0)
(0,0,0)
(0,0,0)
(0,0,0)
(0,0,0)
(0,0,0)
(0,0,0)
(0,0,0)
(0,0,0)
(0,0,0)
(0,0,0)
(0,0,0)
(0,0,0)
(0,0,0)
(0,0,0)
(0,0,0)
(0,0,0)
(0,0,0)
(0,0,0)
(0,0,0)
(0,0,0)
(0,0,0)
(0,0,0)
(0,0,0)
(0,0,0)
(0,0,0)
(0,0,0)
(0,0,0)
(0,0,0)
(0,0,0)
(0,0,0)
(0,0,0)
(0,0,0)
(0,0,0)
(0,0,0)
(0,0,0)
(0,0,0)
(0,0,0)
(0,0,0)
(0,0,0)
(0,0,0)
(0,0,0)
(0,0,0)
(0,0,0)
(0,0,0)
(0,0,0)
(0,0,0)
(0,0,0)
(0,0,0)
(0,0,0)
(0,0,0)
(0,0,0)
(0,0,0)
(0,0,0)
(0,0,0)
(0,0,0)
(0,0,0)
(0,0,0)
(0,0,0)
(0,0,0)
(0,0,0)
(0,0,0)
(0,0,0)
(0,0,0)
(0,0,0)
(0,0,0)
(0,0,0)
(0,0,0)
(0,0,0)
(0,0,0)
(0,0,0)
(0,0,0)
(0,0,0)
(0,0,0)
(0,0,0)
(0,0,0)
(0,0,0)
(0,0,0)
(0,0,0)
(0,0,0)
(0,0,0)
(0,0,0)
(0,0,0)
(0,0,0)
(0,0,0)
(0,0,0)
(0,0,0)
(0,0,0)
(0,0,0)
(0,0,0)
(0,0,0)
(0,0,0)
(0,0,0)
(0,0,0)
(0,0,0)
(0,0,0)
(0,0,0)
(0,0,0)
(0,0,0)
(0,0,0)
(0,0,0)
(0,0,0)
(0,0,0)
(0,0,0)
(0,0,0)
(0,0,0)
(0,0,0)
(0,0,0)
(0,0,0)
(0,0,0)
(0,0,0)
(0,0,0)
(0,0,0)
(0,0,0)
(0,0,0)
(0,0,0)
(0,0,0)
(0,0,0)
(0,0,0)
(0,0,0)
(0,0,0)
(0,0,0)
(0,0,0)
(0,0,0)
(0,0,0)
(0,0,0)
(0,0,0)
(0,0,0)
(0,0,0)
(0,0,0)
(0,0,0)
(0,0,0)
(0,0,0)
(0,0,0)
(0,0,0)
(0,0,0)
(0,0,0)
(0,0,0)
(0,0,0)
(0,0,0)
(0,0,0)
(0,0,0)
(0,0,0)
(0,0,0)
(0,0,0)
(0,0,0)
(0,0,0)
(0,0,0)
(0,0,0)
(0,0,0)
(0,0,0)
(0,0,0)
(0,0,0)
(0,0,0)
(0,0,0)
(0,0,0)
(0,0,0)
(0,0,0)
(0,0,0)
(0,0,0)
(0,0,0)
(0,0,0)
(0,0,0)
(0,0,0)
(0,0,0)
(0,0,0)
(0,0,0)
(0,0,0)
(0,0,0)
(0,0,0)
(0,0,0)
(0,0,0)
(0,0,0)
(0,0,0)
(0,0,0)
(0,0,0)
(0,0,0)
(0,0,0)
(0,0,0)
(0,0,0)
(0,0,0)
(0,0,0)
(0,0,0)
(0,0,0)
(0,0,0)
(0,0,0)
(0,0,0)
(0,0,0)
(0,0,0)
(0,0,0)
(0,0,0)
(0,0,0)
(0,0,0)
(0,0,0)
(0,0,0)
(0,0,0)
(0,0,0)
(0,0,0)
(0,0,0)
(0,0,0)
(0,0,0)
(0,0,0)
(0,0,0)
(0,0,0)
(0,0,0)
(0,0,0)
(0,0,0)
(0,0,0)
(0,0,0)
(0,0,0)
(0,0,0)
(0,0,0)
(0,0,0)
(0,0,0)
(0,0,0)
(0,0,0)
(0,0,0)
(0,0,0)
(0,0,0)
(0,0,0)
(0,0,0)
(0,0,0)
(0,0,0)
(0,0,0)
(0,0,0)
(0,0,0)
(0,0,0)
(0,0,0)
(0,0,0)
(0,0,0)
(0,0,0)
(0,0,0)
(0,0,0)
(0,0,0)
(0,0,0)
(0,0,0)
(0,0,0)
(0,0,0)
(0,0,0)
(0,0,0)
(0,0,0)
(0,0,0)
(0,0,0)
(0,0,0)
(0,0,0)
(0,0,0)
(0,0,0)
(0,0,0)
(0,0,0)
(0,0,0)
(0,0,0)
(0,0,0)
(0,0,0)
(0,0,0)
(0,0,0)
(0,0,0)
(0,0,0)
(0,0,0)
(0,0,0)
(0,0,0)
(0,0,0)
(0,0,0)
(0,0,0)
(0,0,0)
(0,0,0)
(0,0,0)
(0,0,0)
(0,0,0)
(0,0,0)
(0,0,0)
(0,0,0)
(0,0,0)
(0,0,0)
(0,0,0)
(0,0,0)
(0,0,0)
(0,0,0)
(0,0,0)
(0,0,0)
(0,0,0)
(0,0,0)
(0,0,0)
(0,0,0)
(0,0,0)
(0,0,0)
(0,0,0)
(0,0,0)
(0,0,0)
(0,0,0)
(0,0,0)
(0,0,0)
(0,0,0)
(0,0,0)
(0,0,0)
(0,0,0)
(0,0,0)
(0,0,0)
(0,0,0)
(0,0,0)
(0,0,0)
(0,0,0)
(0,0,0)
(0,0,0)
(0,0,0)
(0,0,0)
(0,0,0)
(0,0,0)
(0,0,0)
(0,0,0)
(0,0,0)
(0,0,0)
(0,0,0)
(0,0,0)
(0,0,0)
(0,0,0)
(0,0,0)
(0,0,0)
(0,0,0)
(0,0,0)
(0,0,0)
(0,0,0)
(0,0,0)
(0,0,0)
(0,0,0)
(0,0,0)
(0,0,0)
(0,0,0)
(0,0,0)
(0,0,0)
(0,0,0)
(0,0,0)
(0,0,0)
(0,0,0)
(0,0,0)
(0,0,0)
(0,0,0)
(0,0,0)
(0,0,0)
(0,0,0)
(0,0,0)
(0,0,0)
(0,0,0)
(0,0,0)
(0,0,0)
(0,0,0)
(0,0,0)
(0,0,0)
(0,0,0)
(0,0,0)
(0,0,0)
(0,0,0)
(0,0,0)
(0,0,0)
(0,0,0)
(0,0,0)
(0,0,0)
(0,0,0)
(0,0,0)
(0,0,0)
(0,0,0)
(0,0,0)
(0,0,0)
(0,0,0)
(0,0,0)
(0,0,0)
(0,0,0)
(0,0,0)
(0,0,0)
(0,0,0)
(0,0,0)
(0,0,0)
(0,0,0)
(0,0,0)
(0,0,0)
(0,0,0)
(0,0,0)
(0,0,0)
(0,0,0)
(0,0,0)
(0,0,0)
(0,0,0)
(0,0,0)
(0,0,0)
(0,0,0)
(0,0,0)
(0,0,0)
(0,0,0)
(0,0,0)
(0,0,0)
(0,0,0)
(0,0,0)
(0,0,0)
(0,0,0)
(0,0,0)
(0,0,0)
(0,0,0)
(0,0,0)
(0,0,0)
(0,0,0)
(0,0,0)
(0,0,0)
(0,0,0)
(0,0,0)
(0,0,0)
(0,0,0)
(0,0,0)
(0,0,0)
(0,0,0)
(0,0,0)
(0,0,0)
(0,0,0)
(0,0,0)
(0,0,0)
(0,0,0)
(0,0,0)
(0,0,0)
(0,0,0)
(0,0,0)
(0,0,0)
(0,0,0)
(0,0,0)
(0,0,0)
(0,0,0)
(0,0,0)
(0,0,0)
(0,0,0)
(0,0,0)
(0,0,0)
(0,0,0)
(0,0,0)
(0,0,0)
(0,0,0)
(0,0,0)
(0,0,0)
(0,0,0)
(0,0,0)
(0,0,0)
(0,0,0)
(0,0,0)
(0,0,0)
(0,0,0)
(0,0,0)
(0,0,0)
(0,0,0)
(0,0,0)
(0,0,0)
(0,0,0)
(0,0,0)
(0,0,0)
(0,0,0)
(0,0,0)
(0,0,0)
(3.20812479013861e-13,1.25222551467898e-11,-1.18764634806421e-11)
(4.545618354543e-13,2.47677372847754e-11,-1.09859247065434e-11)
(9.09484236746227e-13,4.09022154089559e-11,-1.00635699766518e-11)
(8.99217887479856e-13,6.47527765430938e-11,-8.8094644681281e-12)
(1.53176036152438e-12,1.02749392363326e-10,-7.28811999740948e-12)
(1.31273440132751e-12,1.63740810599842e-10,-5.13840692894266e-12)
(1.23464358622205e-12,2.62505286986464e-10,-3.40712572471416e-12)
(1.76598246608993e-12,4.27270127202039e-10,-2.39495715612443e-12)
(3.35077481353704e-12,7.00807055311638e-10,-1.55861211285215e-12)
(4.54893503788204e-12,1.08226647474789e-09,-9.01642168352958e-13)
(0,0,0)
(0,0,0)
(0,0,0)
(0,0,0)
(0,0,0)
(0,0,0)
(3.98304337419937e-13,1.1361307686593e-11,-2.49937737603142e-11)
(5.39015458610941e-13,2.32248772796832e-11,-2.37958301560015e-11)
(1.12038116942399e-12,3.92190112922148e-11,-2.22022179148092e-11)
(1.92388729196379e-12,6.30688744203741e-11,-1.97307172839382e-11)
(3.06227171193371e-12,1.01102381471677e-10,-1.62517994445981e-11)
(3.60676333078577e-12,1.62458100432303e-10,-1.17953533659509e-11)
(3.34923205158933e-12,2.61850456638989e-10,-7.91589277148333e-12)
(3.86620731464276e-12,4.27204664104066e-10,-5.82390271365338e-12)
(5.49339107741263e-12,7.0115556941665e-10,-4.31279693785805e-12)
(6.70244131890534e-12,1.08235257503645e-09,-2.30522250644232e-12)
(0,0,0)
(0,0,0)
(0,0,0)
(0,0,0)
(0,0,0)
(0,0,0)
(6.46087834739052e-13,9.86454968707801e-12,-4.18690268142078e-11)
(1.31257580353148e-12,2.09640558118474e-11,-4.08935591000955e-11)
(2.38622063145987e-12,3.61138402673841e-11,-3.87387378688546e-11)
(3.52925905629842e-12,5.8966078179372e-11,-3.48789371265366e-11)
(4.2726438057791e-12,9.6492106857411e-11,-2.97281274873799e-11)
(4.75836324319171e-12,1.58415351841184e-10,-2.33681236319583e-11)
(4.06999524623577e-12,2.5952538833929e-10,-1.71501829416142e-11)
(5.00242933992702e-12,4.26446154373793e-10,-1.31234666488004e-11)
(6.6276553210862e-12,7.00673417285372e-10,-9.66095176198862e-12)
(7.73601710623593e-12,1.08172105214003e-09,-4.95179913652379e-12)
(0,0,0)
(0,0,0)
(0,0,0)
(0,0,0)
(0,0,0)
(0,0,0)
(1.38703931496023e-12,8.19367654962783e-12,-6.59476997097427e-11)
(2.51607179872718e-12,1.79405828801406e-11,-6.50668883350743e-11)
(4.1819233507867e-12,3.15730342929738e-11,-6.30364623137413e-11)
(5.20381914960322e-12,5.29198770431519e-11,-5.90232059038631e-11)
(5.62788579030576e-12,8.9144703566164e-11,-5.33341486804956e-11)
(6.19699776573924e-12,1.50816224115627e-10,-4.56659810628175e-11)
(4.89616530309325e-12,2.5398163902314e-10,-3.68920421756831e-11)
(4.93942578142728e-12,4.23626158190728e-10,-2.91845760312655e-11)
(5.93324710443069e-12,6.98141886767094e-10,-2.10335458346553e-11)
(6.73945875534033e-12,1.07944796722225e-09,-1.11034005917974e-11)
(0,0,0)
(0,0,0)
(0,0,0)
(0,0,0)
(0,0,0)
(0,0,0)
(1.45219083018136e-12,6.41890899218113e-12,-1.03652241560641e-10)
(2.90606032983399e-12,1.47721713992724e-11,-1.03011604636147e-10)
(5.24734435600484e-12,2.67131300494245e-11,-1.01192390148724e-10)
(6.54959527173795e-12,4.59127668119723e-11,-9.73782582193527e-11)
(6.74673045451374e-12,7.92625945972898e-11,-9.18392588536666e-11)
(6.97186392259705e-12,1.39120642014575e-10,-8.43303009364388e-11)
(4.4880407877765e-12,2.43787680837347e-10,-7.46641903748762e-11)
(3.29486054426954e-12,4.16408925379601e-10,-6.0592038512259e-11)
(3.77809095038987e-12,6.90660284608417e-10,-4.34298387764236e-11)
(4.48924734992321e-12,1.07110008331807e-09,-2.29546887099673e-11)
(0,0,0)
(0,0,0)
(0,0,0)
(0,0,0)
(0,0,0)
(0,0,0)
(1.23983281289485e-12,4.68861522382911e-12,-1.62984896379081e-10)
(3.1612443256638e-12,1.16809888468469e-11,-1.6252404955115e-10)
(5.2117853021859e-12,2.18374606528384e-11,-1.60774409983011e-10)
(6.2730442039793e-12,3.84469179625115e-11,-1.57379385483868e-10)
(6.2442342631376e-12,6.83814391000503e-11,-1.52079537631844e-10)
(5.46462288457778e-12,1.26008408222168e-10,-1.4422613133335e-10)
(2.9023718655917e-12,2.31015365034958e-10,-1.31448967710777e-10)
(1.51964281106343e-12,4.01799225039668e-10,-1.10294368752578e-10)
(1.64450071864563e-12,6.72603765891254e-10,-8.04788818759803e-11)
(2.03147606496904e-12,1.0503143180991e-09,-4.2798468440685e-11)
(0,0,0)
(0,0,0)
(0,0,0)
(0,0,0)
(0,0,0)
(0,0,0)
(1.94278711144961e-12,3.2877409268657e-12,-2.59604139960145e-10)
(3.30325999098038e-12,8.89123787106081e-12,-2.58861549070577e-10)
(4.19109446698076e-12,1.74034511662391e-11,-2.57263182721954e-10)
(4.45575148489406e-12,3.13239798244998e-11,-2.54613339673311e-10)
(3.89584605187796e-12,5.75700343567629e-11,-2.4979463941206e-10)
(1.88374486890166e-12,1.10516349240125e-10,-2.40640260332215e-10)
(4.0272758593395e-14,2.11024895521622e-10,-2.22111056743905e-10)
(-9.6900967420037e-13,3.74121261341792e-10,-1.91557847663073e-10)
(-5.31772086361647e-13,6.3666796458964e-10,-1.43301664161066e-10)
(-1.07191662010697e-13,1.00885547927747e-09,-7.80334041650198e-11)
(0,0,0)
(0,0,0)
(0,0,0)
(0,0,0)
(0,0,0)
(0,0,0)
(2.27779699614602e-12,2.27657150740637e-12,-4.22140421457358e-10)
(3.10248252923416e-12,6.65689453878485e-12,-4.2159104143689e-10)
(3.52489089659327e-12,1.38000361535717e-11,-4.2004337438138e-10)
(3.15185388683839e-12,2.53987160836797e-11,-4.16649117719654e-10)
(2.63855641692527e-12,4.79778777651888e-11,-4.10482583356268e-10)
(5.2599537777151e-13,9.40583468841082e-11,-3.98581834957514e-10)
(-1.36391903443666e-12,1.81024444416967e-10,-3.74588238007061e-10)
(-2.32651832788116e-12,3.26372709492982e-10,-3.29654419752445e-10)
(-2.29464848871822e-12,5.71835703513006e-10,-2.55154334741963e-10)
(-2.03191738408117e-12,9.31204550188204e-10,-1.44765706768086e-10)
(0,0,0)
(0,0,0)
(0,0,0)
(0,0,0)
(0,0,0)
(0,0,0)
(2.27738610865853e-12,1.73568578458258e-12,-6.9438191272225e-10)
(2.97442457602533e-12,4.60707061824994e-12,-6.938155570979e-10)
(3.0506103983894e-12,9.61551753172528e-12,-6.91805619285525e-10)
(2.19584228588622e-12,1.85166771729989e-11,-6.87406769936299e-10)
(1.47188803332719e-12,3.58769061565706e-11,-6.79093435974164e-10)
(-7.45185582119643e-13,7.06584428171482e-11,-6.6287243216329e-10)
(-2.77905068005241e-12,1.35897588841814e-10,-6.31124289435922e-10)
(-3.97319057499009e-12,2.51779129278463e-10,-5.70525015371511e-10)
(-4.27075249292628e-12,4.61356818223089e-10,-4.61832733068453e-10)
(-4.1800509913259e-12,7.86404060823794e-10,-2.77779420991105e-10)
(0,0,0)
(0,0,0)
(0,0,0)
(0,0,0)
(0,0,0)
(0,0,0)
(2.1966699823106e-12,1.11602814551773e-12,-1.07600568193733e-09)
(2.76854110052426e-12,2.32171024893363e-12,-1.07509534145057e-09)
(2.96993320248172e-12,4.73064120362132e-12,-1.07273038901731e-09)
(1.97125550633199e-12,9.74095974398573e-12,-1.06783751771302e-09)
(5.9954889774837e-13,1.94289538101511e-11,-1.05785293540494e-09)
(-2.18282614719984e-12,3.86410409898362e-11,-1.03848215612534e-09)
(-4.25686130748034e-12,7.46770071651108e-11,-1.00054788295019e-09)
(-5.19455204536051e-12,1.42837118368638e-10,-9.26934316786095e-10)
(-5.26536138213623e-12,2.77136724982216e-10,-7.84617538168914e-10)
(-5.50900134595572e-12,5.08220192119939e-10,-5.07600010985871e-10)
(0,0,0)
(0,0,0)
(0,0,0)
(0,0,0)
(0,0,0)
(0,0,0)
(0,0,0)
(0,0,0)
(0,0,0)
(0,0,0)
(0,0,0)
(0,0,0)
(0,0,0)
(0,0,0)
(0,0,0)
(0,0,0)
(0,0,0)
(0,0,0)
(0,0,0)
(0,0,0)
(0,0,0)
(0,0,0)
(0,0,0)
(0,0,0)
(0,0,0)
(0,0,0)
(0,0,0)
(0,0,0)
(0,0,0)
(0,0,0)
(0,0,0)
(0,0,0)
(0,0,0)
(0,0,0)
(0,0,0)
(0,0,0)
(0,0,0)
(0,0,0)
(0,0,0)
(0,0,0)
(0,0,0)
(0,0,0)
(0,0,0)
(0,0,0)
(0,0,0)
(0,0,0)
(0,0,0)
(0,0,0)
(0,0,0)
(0,0,0)
(0,0,0)
(0,0,0)
(0,0,0)
(0,0,0)
(0,0,0)
(0,0,0)
(0,0,0)
(0,0,0)
(0,0,0)
(0,0,0)
(0,0,0)
(0,0,0)
(0,0,0)
(0,0,0)
(0,0,0)
(0,0,0)
(0,0,0)
(0,0,0)
(0,0,0)
(0,0,0)
(0,0,0)
(0,0,0)
(0,0,0)
(0,0,0)
(0,0,0)
(0,0,0)
(0,0,0)
(0,0,0)
(0,0,0)
(0,0,0)
(0,0,0)
(0,0,0)
(0,0,0)
(0,0,0)
(0,0,0)
(0,0,0)
(0,0,0)
(0,0,0)
(0,0,0)
(0,0,0)
(0,0,0)
(0,0,0)
(0,0,0)
(0,0,0)
(0,0,0)
(0,0,0)
(0,0,0)
(0,0,0)
(0,0,0)
(0,0,0)
(0,0,0)
(0,0,0)
(5.91221165112038e-13,2.40278918391618e-11,-2.36738420919453e-11)
(1.07506711065545e-12,4.82920956967308e-11,-2.1851363041162e-11)
(1.33858284496319e-12,7.76425695044784e-11,-1.93541966700026e-11)
(1.06177553948255e-12,1.202368609429e-10,-1.62637584736927e-11)
(1.02905818470904e-12,1.87687320952161e-10,-1.23240017998575e-11)
(8.64163364640154e-13,2.92954677786752e-10,-7.58065035908829e-12)
(8.7730536509982e-13,4.61588274814253e-10,-3.76220124618805e-12)
(9.95100520792453e-13,7.47897508562828e-10,-1.93722858086631e-12)
(2.34529076400907e-12,1.29435332501629e-09,-1.0890751011368e-12)
(3.56119258092422e-12,2.54527153074127e-09,-5.57616635706359e-13)
(0,0,0)
(0,0,0)
(0,0,0)
(0,0,0)
(0,0,0)
(0,0,0)
(6.97118732622303e-13,2.21589084694424e-11,-4.8732441274284e-11)
(1.20622468525483e-12,4.5367990859491e-11,-4.61706029624159e-11)
(1.75405156338269e-12,7.42108408638153e-11,-4.23620536915919e-11)
(2.54776569362469e-12,1.16261778177707e-10,-3.67403489840843e-11)
(3.21610024754869e-12,1.83290744662467e-10,-2.85418894783103e-11)
(3.77005132743041e-12,2.8918187525497e-10,-1.83024765987165e-11)
(3.58231029345824e-12,4.59790095411608e-10,-9.14492448648488e-12)
(3.11361126911558e-12,7.47949452869446e-10,-5.11993305739725e-12)
(3.96796877728362e-12,1.29563794594797e-09,-3.98292770280513e-12)
(5.02874170886936e-12,2.5468031183129e-09,-2.32589147136786e-12)
(0,0,0)
(0,0,0)
(0,0,0)
(0,0,0)
(0,0,0)
(0,0,0)
(1.34149325807671e-12,1.92489846127418e-11,-7.96474960426264e-11)
(2.18122750399729e-12,4.05709717201341e-11,-7.70303139867013e-11)
(3.06722586355211e-12,6.75479273918325e-11,-7.22749065884671e-11)
(4.42465055336157e-12,1.07452989413806e-10,-6.40983902215636e-11)
(5.26004324160635e-12,1.73008333316895e-10,-5.19689044983794e-11)
(6.13955027839876e-12,2.80059926157247e-10,-3.66413222151614e-11)
(5.58702826957947e-12,4.5592780611199e-10,-2.14516786406904e-11)
(4.35991063620391e-12,7.48904055819632e-10,-1.4566470924634e-11)
(4.45003321390163e-12,1.29728289683577e-09,-1.12319586589443e-11)
(5.05730288748455e-12,2.54791145864831e-09,-6.23583961771333e-12)
(0,0,0)
(0,0,0)
(0,0,0)
(0,0,0)
(0,0,0)
(0,0,0)
(2.28099549773859e-12,1.60506368550582e-11,-1.23143689639333e-10)
(3.65405725826236e-12,3.44338145395038e-11,-1.2045500557024e-10)
(5.02857118445811e-12,5.78120424955885e-11,-1.15366204391109e-10)
(6.52187215741573e-12,9.38593458811713e-11,-1.06411245558837e-10)
(7.8418271415037e-12,1.55898143486682e-10,-9.30005091574195e-11)
(9.11864097965907e-12,2.6254176024898e-10,-7.49144664250566e-11)
(7.38265734445974e-12,4.46291213871948e-10,-5.4443764605462e-11)
(4.00562839595336e-12,7.48235330853031e-10,-4.19105987224225e-11)
(3.48470402025761e-12,1.29684990376098e-09,-3.08467278190268e-11)
(3.98394206772978e-12,2.54609616630459e-09,-1.66815319189465e-11)
(0,0,0)
(0,0,0)
(0,0,0)
(0,0,0)
(0,0,0)
(0,0,0)
(2.54184767403959e-12,1.26670525266619e-11,-1.89739512407443e-10)
(4.17802839483572e-12,2.78646967293106e-11,-1.87582823418783e-10)
(6.30888182321988e-12,4.69156316072525e-11,-1.8288929616536e-10)
(8.47644475551226e-12,7.75849409697909e-11,-1.7468670094537e-10)
(1.01189280345274e-11,1.32785373231348e-10,-1.6293932586926e-10)
(1.04179871534399e-11,2.3406817645316e-10,-1.48274819016762e-10)
(3.18820472755701e-12,4.2303778756002e-10,-1.34042650161574e-10)
(7.42361148367808e-13,7.40127470136989e-10,-1.04895502723557e-10)
(1.3594596011108e-12,1.28803365098441e-09,-7.40648890286129e-11)
(2.32032385887224e-12,2.53410532847264e-09,-3.89031726668093e-11)
(0,0,0)
(0,0,0)
(0,0,0)
(0,0,0)
(0,0,0)
(0,0,0)
(2.17986028192656e-12,9.47040031181808e-12,-2.91750753965304e-10)
(4.20135573331176e-12,2.15585939112469e-11,-2.90160585675772e-10)
(6.25077028964109e-12,3.64319955273153e-11,-2.85884886136674e-10)
(8.0961344899672e-12,6.13851099555072e-11,-2.79213708634576e-10)
(9.20223270793169e-12,1.09167356802576e-10,-2.69756194082534e-10)
(8.17951824404929e-12,2.06136592383547e-10,-2.56501025396122e-10)
(1.738242420722e-12,4.03380270273872e-10,-2.3747233266048e-10)
(-6.17880367660416e-13,7.17747751929e-10,-1.97863388579559e-10)
(-1.00111415038849e-13,1.25871735523306e-09,-1.43067143996212e-10)
(6.91846445927212e-13,2.49924371533317e-09,-7.55777680825724e-11)
(0,0,0)
(0,0,0)
(0,0,0)
(0,0,0)
(0,0,0)
(0,0,0)
(2.21136564134126e-12,6.82590654398294e-12,-4.55225564800487e-10)
(3.93923697463307e-12,1.59439842063111e-11,-4.53528293383241e-10)
(5.14466643100537e-12,2.75032366712199e-11,-4.50064469512632e-10)
(5.56231496446218e-12,4.73272676587871e-11,-4.4563404860948e-10)
(4.33362356360575e-12,8.72143942941103e-11,-4.39364277693773e-10)
(-1.87456363389784e-13,1.74239111326174e-10,-4.27317228105637e-10)
(-5.12485217583882e-13,3.69150180441468e-10,-3.9338416235533e-10)
(-1.476641327393e-12,6.69142990779203e-10,-3.44444033843794e-10)
(-9.67771005771457e-13,1.19521750681384e-09,-2.55285649284797e-10)
(-4.89666737761139e-13,2.42614201492167e-09,-1.37899372048424e-10)
(0,0,0)
(0,0,0)
(0,0,0)
(0,0,0)
(0,0,0)
(0,0,0)
(2.26930269850145e-12,4.64879253483555e-12,-7.36973095221002e-10)
(3.60463939425982e-12,1.15483591469874e-11,-7.35595385098483e-10)
(4.31515285671309e-12,2.12936849085528e-11,-7.32664654614252e-10)
(3.86735843413399e-12,3.84496592771989e-11,-7.27918354071286e-10)
(2.83877962678902e-12,7.48402216651946e-11,-7.20433256608746e-10)
(-6.76975057223078e-14,1.55116956965871e-10,-7.05254933898109e-10)
(-1.1708817138958e-12,3.20178906098665e-10,-6.67832323959366e-10)
(-2.23302312384279e-12,5.80654203025684e-10,-5.87191809683623e-10)
(-2.20439117267445e-12,1.07876337869189e-09,-4.52690225039983e-10)
(-1.99713478776735e-12,2.28906910587646e-09,-2.57698511032919e-10)
(0,0,0)
(0,0,0)
(0,0,0)
(0,0,0)
(0,0,0)
(0,0,0)
(2.33068812337389e-12,3.17259735381813e-12,-1.2818457651083e-09)
(3.24984713296597e-12,8.06802098118352e-12,-1.28031890603747e-09)
(3.53663737726717e-12,1.55056866314397e-11,-1.27641304152453e-09)
(2.65822575276561e-12,2.91734720543527e-11,-1.26942267372541e-09)
(1.69883656887134e-12,5.8185827770033e-11,-1.25744397083019e-09)
(-4.7592648217469e-13,1.19674881874706e-10,-1.23330706928001e-09)
(-2.15774306776161e-12,2.38492171094939e-10,-1.18119576496477e-09)
(-3.72346196822396e-12,4.45445191807134e-10,-1.07443555933797e-09)
(-4.10397132940738e-12,8.83467225566093e-10,-8.83498459989944e-10)
(-3.77560327854311e-12,2.03125226834355e-09,-5.52710842864786e-10)
(0,0,0)
(0,0,0)
(0,0,0)
(0,0,0)
(0,0,0)
(0,0,0)
(2.40235764105984e-12,1.81685175230669e-12,-2.53374144353477e-09)
(2.72529891619655e-12,4.20081889031799e-12,-2.53137661968656e-09)
(2.80770310181672e-12,8.18377060812446e-12,-2.52645895713871e-09)
(1.72763294224094e-12,1.60299035347216e-11,-2.51789049818722e-09)
(6.577234282927e-13,3.23276450693207e-11,-2.50239028635566e-09)
(-1.47605833250871e-12,6.59153388289486e-11,-2.47142438897137e-09)
(-3.1934203064657e-12,1.29984457825632e-10,-2.40765523943364e-09)
(-4.67421229390419e-12,2.53380428628147e-10,-2.2794874151677e-09)
(-5.14616358296289e-12,5.51756237948369e-10,-2.02717239328716e-09)
(-4.88882021188079e-12,1.47749497162304e-09,-1.47624998132126e-09)
(0,0,0)
(0,0,0)
(0,0,0)
(0,0,0)
(0,0,0)
(0,0,0)
(0,0,0)
(0,0,0)
(0,0,0)
(0,0,0)
(0,0,0)
(0,0,0)
(0,0,0)
(0,0,0)
(0,0,0)
(0,0,0)
(0,0,0)
(0,0,0)
(0,0,0)
(0,0,0)
(0,0,0)
(0,0,0)
(0,0,0)
(0,0,0)
(0,0,0)
(0,0,0)
(0,0,0)
(0,0,0)
(0,0,0)
(0,0,0)
(0,0,0)
(0,0,0)
(0,0,0)
(0,0,0)
(0,0,0)
(0,0,0)
(0,0,0)
(0,0,0)
(0,0,0)
(0,0,0)
(0,0,0)
(0,0,0)
(0,0,0)
(0,0,0)
(0,0,0)
(0,0,0)
(0,0,0)
(0,0,0)
(0,0,0)
(0,0,0)
(0,0,0)
(0,0,0)
(0,0,0)
(0,0,0)
(0,0,0)
(0,0,0)
(0,0,0)
(0,0,0)
(0,0,0)
(0,0,0)
(0,0,0)
(0,0,0)
(0,0,0)
(0,0,0)
(0,0,0)
(0,0,0)
(0,0,0)
(0,0,0)
(0,0,0)
(0,0,0)
(0,0,0)
(0,0,0)
(0,0,0)
(0,0,0)
(0,0,0)
(0,0,0)
(0,0,0)
(0,0,0)
(0,0,0)
(0,0,0)
(0,0,0)
(0,0,0)
(0,0,0)
(0,0,0)
(0,0,0)
(0,0,0)
(0,0,0)
(0,0,0)
(0,0,0)
(0,0,0)
(0,0,0)
(0,0,0)
(0,0,0)
(0,0,0)
(0,0,0)
(0,0,0)
(0,0,0)
(0,0,0)
(0,0,0)
(0,0,0)
(0,0,0)
(0,0,0)
(6.37725484060325e-13,3.09780457867278e-11,-3.21413527358728e-11)
(1.50200557670278e-12,6.37460780942946e-11,-3.03703421853956e-11)
(1.67987328932002e-12,1.03413438321997e-10,-2.68969620911058e-11)
(1.09710163087781e-12,1.58678050592787e-10,-2.19417229870255e-11)
(6.82283033620947e-13,2.40931081813004e-10,-1.50781431760484e-11)
(8.18516783408043e-13,3.63165706797015e-10,-6.83719498961108e-12)
(8.5051210251208e-13,5.44123336230927e-10,-9.56732701158208e-15)
(9.50027344772585e-14,8.06346655421111e-10,2.24632234190958e-12)
(5.29211366913254e-13,1.18037670740661e-09,1.82603396831271e-12)
(1.47198837360089e-12,1.63492485117501e-09,9.76491041681401e-13)
(0,0,0)
(0,0,0)
(0,0,0)
(0,0,0)
(0,0,0)
(0,0,0)
(1.04520427738945e-12,2.95402798775435e-11,-6.70401437581773e-11)
(2.19469455380116e-12,6.08324470759039e-11,-6.41159959439819e-11)
(2.79526032782835e-12,9.91234055571748e-11,-5.81465172960724e-11)
(3.15809495174535e-12,1.52334855249641e-10,-4.85804822842578e-11)
(3.2590987135805e-12,2.33119674043887e-10,-3.44750383369718e-11)
(3.73444831288171e-12,3.56898399701062e-10,-1.61252753497815e-11)
(3.41960816400111e-12,5.43075727062421e-10,1.07366122470188e-12)
(1.02200296432323e-12,8.08758355150962e-10,5.28874023394647e-12)
(6.65981658055926e-13,1.18383450600378e-09,3.0039801914529e-12)
(1.59450990210209e-12,1.63854667586109e-09,1.09056808883213e-12)
(0,0,0)
(0,0,0)
(0,0,0)
(0,0,0)
(0,0,0)
(0,0,0)
(1.92265895982177e-12,2.65308455181121e-11,-1.09813034235305e-10)
(3.562977286429e-12,5.48413291296271e-11,-1.06032455770881e-10)
(4.62659439283419e-12,8.96317940525373e-11,-9.81743584069403e-11)
(5.88880836289118e-12,1.38525193043599e-10,-8.45144452239184e-11)
(7.04265078860307e-12,2.15563033601621e-10,-6.30233206404422e-11)
(8.46807261218108e-12,3.41327725072985e-10,-3.23759490506924e-11)
(8.33841279355883e-12,5.41484403737139e-10,1.54019904544613e-12)
(1.69412333710832e-12,8.16041611992003e-10,5.00931438096233e-12)
(-1.13092752579734e-13,1.19087015866882e-09,-4.94229748765999e-13)
(6.3675561350535e-13,1.64410072058547e-09,-2.09222082234338e-12)
(0,0,0)
(0,0,0)
(0,0,0)
(0,0,0)
(0,0,0)
(0,0,0)
(2.9758957570599e-12,2.2374523287363e-11,-1.67207655130645e-10)
(5.13437388929969e-12,4.64140616559841e-11,-1.62835669778006e-10)
(6.97002324048462e-12,7.53574406749499e-11,-1.53926669250788e-10)
(9.3855406674131e-12,1.16757737253727e-10,-1.38421414064478e-10)
(1.28685546645062e-11,1.85159020076086e-10,-1.13327232147203e-10)
(1.71215229559096e-11,3.079021220908e-10,-7.36858776783276e-11)
(1.81029177733032e-11,5.35305090710311e-10,-1.87949151585482e-11)
(1.04961820862478e-12,8.30246441795519e-10,-1.83621990482679e-11)
(-1.86423910326997e-12,1.20064095558586e-09,-2.16263225396018e-11)
(-7.06752019243687e-13,1.64827355580672e-09,-1.43834762596422e-11)
(0,0,0)
(0,0,0)
(0,0,0)
(0,0,0)
(0,0,0)
(0,0,0)
(3.58181090022548e-12,1.7729859379272e-11,-2.47402438035241e-10)
(5.79060395947139e-12,3.68185077689556e-11,-2.43380861777228e-10)
(8.58992268317207e-12,5.8690791859547e-11,-2.35262808015712e-10)
(1.29289006937266e-11,8.9725512934522e-11,-2.21666585788623e-10)
(1.90724376108153e-11,1.41788504002895e-10,-2.00957744946267e-10)
(2.4117402367803e-11,2.4125113313356e-10,-1.7555169654857e-10)
(-6.30142542432649e-12,4.73478435451273e-10,-1.83508072260236e-10)
(-7.70853433855285e-12,8.44924639643966e-10,-1.19535117345259e-10)
(-4.48596100931012e-12,1.20448690186698e-09,-8.27941810061597e-11)
(-1.72123566851872e-12,1.64164633389077e-09,-4.39568906347801e-11)
(0,0,0)
(0,0,0)
(0,0,0)
(0,0,0)
(0,0,0)
(0,0,0)
(3.23418576020911e-12,1.32543836163631e-11,-3.64078674143212e-10)
(5.54026589923659e-12,2.74808116288281e-11,-3.61187601868702e-10)
(8.50835164359757e-12,4.26944187161818e-11,-3.54847278030671e-10)
(1.26964622346935e-11,6.31724469276627e-11,-3.45308565304069e-10)
(1.79000265299306e-11,1.00357876095251e-10,-3.31899285945394e-10)
(2.10483065657787e-11,1.90915898643008e-10,-3.1449614162508e-10)
(-3.64061182781166e-12,4.7587047800144e-10,-3.14336180300758e-10)
(-6.80936380120519e-12,8.32461067734772e-10,-2.48187267972647e-10)
(-4.08963890938854e-12,1.1769108767612e-09,-1.74378758834366e-10)
(-1.78422122520609e-12,1.60458735375268e-09,-9.07867402042366e-11)
(0,0,0)
(0,0,0)
(0,0,0)
(0,0,0)
(0,0,0)
(0,0,0)
(2.69120823325697e-12,9.7654142710555e-12,-5.35919613370228e-10)
(4.87103816335565e-12,1.97074565381865e-11,-5.33899888765747e-10)
(6.92379729052959e-12,2.97336493080176e-11,-5.29974543153092e-10)
(8.17015243035519e-12,4.1221165651756e-11,-5.26037269092401e-10)
(4.66074660433114e-12,6.12476451924748e-11,-5.25960232123869e-10)
(-1.49983677533668e-11,1.18289037012159e-10,-5.31423919752349e-10)
(-4.81339386291316e-13,4.38450731760191e-10,-4.63467612884206e-10)
(-2.14623813291086e-12,7.77026560833426e-10,-4.43211019712278e-10)
(-1.89992012012671e-12,1.1010524025626e-09,-3.09653262293939e-10)
(-1.31612974099813e-12,1.51816740142588e-09,-1.60252971700229e-10)
(0,0,0)
(0,0,0)
(0,0,0)
(0,0,0)
(0,0,0)
(0,0,0)
(2.36778775699597e-12,7.25242486767505e-12,-7.89571631845304e-10)
(4.15424707590841e-12,1.4653555799417e-11,-7.88298578877581e-10)
(5.35685059081788e-12,2.27548708994947e-11,-7.85421180297802e-10)
(5.65844819446871e-12,3.42363956342939e-11,-7.82299789008176e-10)
(4.31485081128746e-12,6.27733781907984e-11,-7.82466731276953e-10)
(-2.0482323532789e-12,1.48754629176487e-10,-7.8541928793286e-10)
(-1.24660985938604e-13,3.98652346868028e-10,-7.65496968041343e-10)
(-1.5255965489252e-12,6.43714047018576e-10,-6.52866573246161e-10)
(-1.8999520539295e-12,9.53025629849766e-10,-4.77344460907912e-10)
(-1.87880828777564e-12,1.35920657857166e-09,-2.58062719991071e-10)
(0,0,0)
(0,0,0)
(0,0,0)
(0,0,0)
(0,0,0)
(0,0,0)
(2.15957465410378e-12,5.44126379299678e-12,-1.1596428639644e-09)
(3.21118471087192e-12,1.07799551337136e-11,-1.1579172533114e-09)
(3.86818560149537e-12,1.73288024037253e-11,-1.15385925949241e-09)
(3.82309137717431e-12,2.87958848752495e-11,-1.14778062657748e-09)
(3.42011771939539e-12,5.74310510551162e-11,-1.13991943613819e-09)
(1.17231224830259e-12,1.29332077488926e-10,-1.12312467886532e-09)
(-4.10235425246021e-13,2.80890638035704e-10,-1.07358142800072e-09)
(-2.59579813727435e-12,4.66391079902106e-10,-9.44126602705628e-10)
(-3.18060083681433e-12,7.33020276802752e-10,-7.32062264672862e-10)
(-2.72914942280619e-12,1.10065937160512e-09,-4.21072162418764e-10)
(0,0,0)
(0,0,0)
(0,0,0)
(0,0,0)
(0,0,0)
(0,0,0)
(1.85438554510555e-12,3.14013725080707e-12,-1.61530204516908e-09)
(2.00845525866598e-12,5.98173769030209e-12,-1.61245764189119e-09)
(2.42301475844137e-12,9.71463790142152e-12,-1.60689134846898e-09)
(2.25732464545481e-12,1.69725589003251e-11,-1.59827786219161e-09)
(2.01947111328504e-12,3.43189693298063e-11,-1.58427737912577e-09)
(6.70130958737278e-13,7.34758561148643e-11,-1.55435595493365e-09)
(-1.37678674680737e-12,1.46988381369721e-10,-1.48576062423576e-09)
(-3.60880554631162e-12,2.51668360874521e-10,-1.34257605251923e-09)