/*--------------------------------*- C++ -*----------------------------------*\
| =========                 |                                                 |
| \\      /  F ield         | foam-extend: Open Source CFD                    |
|  \\    /   O peration     | Version:     4.0                                |
|   \\  /    A nd           | Web:         http://www.foam-extend.org         |
|    \\/     M anipulation  |                                                 |
\*---------------------------------------------------------------------------*/
FoamFile
{
    version 2.0;
    format ascii;
    class volVectorField;
    location "295";
    object      E;
}
// * * * * * * * * * * * * * * * * * * * * * * * * * * * * * * * * * * * * * //

dimensions      [0 1 -1 0 0 0 0];

internalField   nonuniform List<vector>
4096
(
(0,0,0)
(0,0,0)
(0,0,0)
(0,0,0)
(0,0,0)
(0,0,0)
(0,0,0)
(0,0,0)
(0,0,0)
(0,0,0)
(0,0,0)
(0,0,0)
(0,0,0)
(0,0,0)
(0,0,0)
(0,0,0)
(0,0,0)
(0,0,0)
(0,0,0)
(0,0,0)
(0,0,0)
(0,0,0)
(0,0,0)
(0,0,0)
(0,0,0)
(0,0,0)
(0,0,0)
(0,0,0)
(0,0,0)
(0,0,0)
(0,0,0)
(0,0,0)
(0,0,0)
(0,0,0)
(0,0,0)
(0,0,0)
(0,0,0)
(0,0,0)
(0,0,0)
(0,0,0)
(0,0,0)
(0,0,0)
(0,0,0)
(0,0,0)
(0,0,0)
(0,0,0)
(0,0,0)
(0,0,0)
(0,0,0)
(0,0,0)
(0,0,0)
(0,0,0)
(0,0,0)
(0,0,0)
(0,0,0)
(0,0,0)
(0,0,0)
(0,0,0)
(0,0,0)
(0,0,0)
(0,0,0)
(0,0,0)
(0,0,0)
(0,0,0)
(0,0,0)
(0,0,0)
(0,0,0)
(0,0,0)
(0,0,0)
(0,0,0)
(0,0,0)
(0,0,0)
(0,0,0)
(0,0,0)
(0,0,0)
(0,0,0)
(0,0,0)
(0,0,0)
(0,0,0)
(0,0,0)
(0,0,0)
(0,0,0)
(0,0,0)
(0,0,0)
(0,0,0)
(0,0,0)
(0,0,0)
(0,0,0)
(0,0,0)
(0,0,0)
(0,0,0)
(0,0,0)
(0,0,0)
(0,0,0)
(0,0,0)
(0,0,0)
(0,0,0)
(0,0,0)
(0,0,0)
(0,0,0)
(0,0,0)
(0,0,0)
(0,0,0)
(0,0,0)
(0,0,0)
(0,0,0)
(0,0,0)
(0,0,0)
(0,0,0)
(0,0,0)
(0,0,0)
(0,0,0)
(0,0,0)
(0,0,0)
(0,0,0)
(0,0,0)
(0,0,0)
(0,0,0)
(0,0,0)
(0,0,0)
(0,0,0)
(0,0,0)
(0,0,0)
(0,0,0)
(0,0,0)
(0,0,0)
(0,0,0)
(0,0,0)
(0,0,0)
(0,0,0)
(0,0,0)
(0,0,0)
(0,0,0)
(0,0,0)
(0,0,0)
(0,0,0)
(0,0,0)
(0,0,0)
(0,0,0)
(0,0,0)
(0,0,0)
(0,0,0)
(0,0,0)
(0,0,0)
(0,0,0)
(0,0,0)
(0,0,0)
(0,0,0)
(0,0,0)
(0,0,0)
(0,0,0)
(0,0,0)
(0,0,0)
(0,0,0)
(0,0,0)
(0,0,0)
(0,0,0)
(0,0,0)
(0,0,0)
(0,0,0)
(0,0,0)
(0,0,0)
(0,0,0)
(0,0,0)
(0,0,0)
(0,0,0)
(0,0,0)
(0,0,0)
(0,0,0)
(0,0,0)
(0,0,0)
(0,0,0)
(0,0,0)
(0,0,0)
(0,0,0)
(0,0,0)
(0,0,0)
(0,0,0)
(0,0,0)
(0,0,0)
(0,0,0)
(0,0,0)
(0,0,0)
(0,0,0)
(0,0,0)
(0,0,0)
(0,0,0)
(0,0,0)
(0,0,0)
(0,0,0)
(0,0,0)
(0,0,0)
(0,0,0)
(0,0,0)
(0,0,0)
(0,0,0)
(0,0,0)
(0,0,0)
(0,0,0)
(0,0,0)
(0,0,0)
(0,0,0)
(0,0,0)
(0,0,0)
(0,0,0)
(0,0,0)
(0,0,0)
(0,0,0)
(0,0,0)
(0,0,0)
(0,0,0)
(0,0,0)
(0,0,0)
(0,0,0)
(0,0,0)
(0,0,0)
(0,0,0)
(0,0,0)
(0,0,0)
(0,0,0)
(0,0,0)
(0,0,0)
(0,0,0)
(0,0,0)
(0,0,0)
(0,0,0)
(0,0,0)
(0,0,0)
(0,0,0)
(0,0,0)
(0,0,0)
(0,0,0)
(0,0,0)
(0,0,0)
(0,0,0)
(0,0,0)
(0,0,0)
(0,0,0)
(0,0,0)
(0,0,0)
(0,0,0)
(0,0,0)
(0,0,0)
(0,0,0)
(0,0,0)
(0,0,0)
(0,0,0)
(0,0,0)
(0,0,0)
(0,0,0)
(0,0,0)
(0,0,0)
(0,0,0)
(0,0,0)
(0,0,0)
(0,0,0)
(0,0,0)
(0,0,0)
(0,0,0)
(0,0,0)
(0,0,0)
(0,0,0)
(0,0,0)
(0,0,0)
(0,0,0)
(0,0,0)
(0,0,0)
(0,0,0)
(0,0,0)
(0,0,0)
(0,0,0)
(0,0,0)
(0,0,0)
(0,0,0)
(0,0,0)
(0,0,0)
(0,0,0)
(0,0,0)
(0,0,0)
(0,0,0)
(0,0,0)
(0,0,0)
(0,0,0)
(0,0,0)
(0,0,0)
(0,0,0)
(0,0,0)
(0,0,0)
(0,0,0)
(0,0,0)
(0,0,0)
(0,0,0)
(0,0,0)
(0,0,0)
(0,0,0)
(0,0,0)
(0,0,0)
(0,0,0)
(0,0,0)
(0,0,0)
(0,0,0)
(0,0,0)
(0,0,0)
(0,0,0)
(0,0,0)
(0,0,0)
(0,0,0)
(0,0,0)
(0,0,0)
(0,0,0)
(0,0,0)
(0,0,0)
(0,0,0)
(0,0,0)
(0,0,0)
(0,0,0)
(0,0,0)
(0,0,0)
(0,0,0)
(0,0,0)
(0,0,0)
(0,0,0)
(0,0,0)
(0,0,0)
(0,0,0)
(0,0,0)
(0,0,0)
(0,0,0)
(0,0,0)
(0,0,0)
(0,0,0)
(0,0,0)
(0,0,0)
(0,0,0)
(0,0,0)
(0,0,0)
(0,0,0)
(0,0,0)
(0,0,0)
(0,0,0)
(0,0,0)
(0,0,0)
(0,0,0)
(0,0,0)
(0,0,0)
(0,0,0)
(0,0,0)
(0,0,0)
(0,0,0)
(0,0,0)
(0,0,0)
(0,0,0)
(0,0,0)
(0,0,0)
(0,0,0)
(0,0,0)
(0,0,0)
(0,0,0)
(0,0,0)
(0,0,0)
(0,0,0)
(0,0,0)
(0,0,0)
(0,0,0)
(0,0,0)
(0,0,0)
(0,0,0)
(0,0,0)
(0,0,0)
(0,0,0)
(0,0,0)
(0,0,0)
(0,0,0)
(0,0,0)
(0,0,0)
(0,0,0)
(0,0,0)
(0,0,0)
(0,0,0)
(0,0,0)
(0,0,0)
(0,0,0)
(0,0,0)
(0,0,0)
(0,0,0)
(0,0,0)
(0,0,0)
(0,0,0)
(0,0,0)
(0,0,0)
(0,0,0)
(0,0,0)
(0,0,0)
(0,0,0)
(0,0,0)
(0,0,0)
(0,0,0)
(0,0,0)
(0,0,0)
(0,0,0)
(0,0,0)
(0,0,0)
(0,0,0)
(0,0,0)
(0,0,0)
(0,0,0)
(0,0,0)
(0,0,0)
(0,0,0)
(0,0,0)
(0,0,0)
(0,0,0)
(0,0,0)
(0,0,0)
(0,0,0)
(0,0,0)
(0,0,0)
(0,0,0)
(0,0,0)
(0,0,0)
(0,0,0)
(0,0,0)
(0,0,0)
(0,0,0)
(0,0,0)
(0,0,0)
(0,0,0)
(0,0,0)
(0,0,0)
(0,0,0)
(0,0,0)
(0,0,0)
(0,0,0)
(0,0,0)
(0,0,0)
(0,0,0)
(0,0,0)
(0,0,0)
(0,0,0)
(0,0,0)
(0,0,0)
(0,0,0)
(0,0,0)
(0,0,0)
(0,0,0)
(0,0,0)
(0,0,0)
(0,0,0)
(0,0,0)
(0,0,0)
(0,0,0)
(0,0,0)
(0,0,0)
(0,0,0)
(0,0,0)
(0,0,0)
(0,0,0)
(0,0,0)
(0,0,0)
(0,0,0)
(0,0,0)
(0,0,0)
(0,0,0)
(0,0,0)
(0,0,0)
(0,0,0)
(0,0,0)
(0,0,0)
(0,0,0)
(0,0,0)
(0,0,0)
(0,0,0)
(0,0,0)
(0,0,0)
(0,0,0)
(0,0,0)
(0,0,0)
(0,0,0)
(0,0,0)
(0,0,0)
(0,0,0)
(0,0,0)
(0,0,0)
(0,0,0)
(0,0,0)
(0,0,0)
(0,0,0)
(0,0,0)
(0,0,0)
(0,0,0)
(0,0,0)
(0,0,0)
(0,0,0)
(0,0,0)
(0,0,0)
(0,0,0)
(0,0,0)
(0,0,0)
(0,0,0)
(0,0,0)
(0,0,0)
(0,0,0)
(0,0,0)
(0,0,0)
(0,0,0)
(0,0,0)
(0,0,0)
(0,0,0)
(0,0,0)
(0,0,0)
(0,0,0)
(0,0,0)
(0,0,0)
(0,0,0)
(0,0,0)
(0,0,0)
(0,0,0)
(0,0,0)
(0,0,0)
(0,0,0)
(0,0,0)
(0,0,0)
(0,0,0)
(0,0,0)
(0,0,0)
(0,0,0)
(0,0,0)
(0,0,0)
(0,0,0)
(0,0,0)
(0,0,0)
(0,0,0)
(0,0,0)
(0,0,0)
(0,0,0)
(0,0,0)
(0,0,0)
(0,0,0)
(0,0,0)
(0,0,0)
(0,0,0)
(0,0,0)
(0,0,0)
(0,0,0)
(0,0,0)
(0,0,0)
(0,0,0)
(0,0,0)
(0,0,0)
(0,0,0)
(0,0,0)
(0,0,0)
(0,0,0)
(0,0,0)
(0,0,0)
(0,0,0)
(0,0,0)
(0,0,0)
(0,0,0)
(0,0,0)
(0,0,0)
(0,0,0)
(0,0,0)
(0,0,0)
(0,0,0)
(0,0,0)
(0,0,0)
(0,0,0)
(0,0,0)
(0,0,0)
(0,0,0)
(0,0,0)
(0,0,0)
(0,0,0)
(0,0,0)
(0,0,0)
(0,0,0)
(0,0,0)
(0,0,0)
(0,0,0)
(0,0,0)
(0,0,0)
(0,0,0)
(0,0,0)
(0,0,0)
(0,0,0)
(0,0,0)
(0,0,0)
(0,0,0)
(0,0,0)
(0,0,0)
(0,0,0)
(0,0,0)
(0,0,0)
(0,0,0)
(0,0,0)
(0,0,0)
(0,0,0)
(0,0,0)
(0,0,0)
(0,0,0)
(0,0,0)
(0,0,0)
(0,0,0)
(0,0,0)
(0,0,0)
(0,0,0)
(0,0,0)
(0,0,0)
(0,0,0)
(0,0,0)
(0,0,0)
(0,0,0)
(0,0,0)
(0,0,0)
(0,0,0)
(0,0,0)
(0,0,0)
(0,0,0)
(0,0,0)
(0,0,0)
(0,0,0)
(0,0,0)
(0,0,0)
(0,0,0)
(0,0,0)
(0,0,0)
(0,0,0)
(0,0,0)
(0,0,0)
(0,0,0)
(0,0,0)
(0,0,0)
(0,0,0)
(0,0,0)
(0,0,0)
(0,0,0)
(0,0,0)
(0,0,0)
(0,0,0)
(0,0,0)
(0,0,0)
(0,0,0)
(0,0,0)
(0,0,0)
(0,0,0)
(0,0,0)
(0,0,0)
(0,0,0)
(0,0,0)
(0,0,0)
(0,0,0)
(0,0,0)
(0,0,0)
(0,0,0)
(0,0,0)
(0,0,0)
(0,0,0)
(0,0,0)
(0,0,0)
(0,0,0)
(0,0,0)
(0,0,0)
(0,0,0)
(0,0,0)
(0,0,0)
(0,0,0)
(0,0,0)
(0,0,0)
(0,0,0)
(0,0,0)
(0,0,0)
(0,0,0)
(0,0,0)
(0,0,0)
(0,0,0)
(0,0,0)
(0,0,0)
(0,0,0)
(0,0,0)
(0,0,0)
(0,0,0)
(0,0,0)
(0,0,0)
(0,0,0)
(0,0,0)
(0,0,0)
(0,0,0)
(0,0,0)
(0,0,0)
(0,0,0)
(0,0,0)
(0,0,0)
(0,0,0)
(0,0,0)
(0,0,0)
(0,0,0)
(0,0,0)
(0,0,0)
(0,0,0)
(0,0,0)
(0,0,0)
(0,0,0)
(0,0,0)
(0,0,0)
(0,0,0)
(0,0,0)
(0,0,0)
(0,0,0)
(0,0,0)
(0,0,0)
(0,0,0)
(0,0,0)
(0,0,0)
(0,0,0)
(0,0,0)
(0,0,0)
(0,0,0)
(0,0,0)
(0,0,0)
(0,0,0)
(0,0,0)
(0,0,0)
(0,0,0)
(0,0,0)
(0,0,0)
(0,0,0)
(0,0,0)
(0,0,0)
(0,0,0)
(0,0,0)
(0,0,0)
(0,0,0)
(0,0,0)
(0,0,0)
(0,0,0)
(0,0,0)
(0,0,0)
(0,0,0)
(0,0,0)
(0,0,0)
(0,0,0)
(0,0,0)
(0,0,0)
(0,0,0)
(0,0,0)
(0,0,0)
(0,0,0)
(0,0,0)
(0,0,0)
(0,0,0)
(0,0,0)
(0,0,0)
(0,0,0)
(0,0,0)
(0,0,0)
(0,0,0)
(0,0,0)
(0,0,0)
(0,0,0)
(0,0,0)
(0,0,0)
(0,0,0)
(0,0,0)
(0,0,0)
(0,0,0)
(0,0,0)
(0,0,0)
(0,0,0)
(0,0,0)
(0,0,0)
(0,0,0)
(0,0,0)
(0,0,0)
(0,0,0)
(0,0,0)
(0,0,0)
(0,0,0)
(0,0,0)
(0,0,0)
(0,0,0)
(0,0,0)
(0,0,0)
(0,0,0)
(0,0,0)
(0,0,0)
(0,0,0)
(0,0,0)
(0,0,0)
(0,0,0)
(0,0,0)
(0,0,0)
(0,0,0)
(0,0,0)
(0,0,0)
(0,0,0)
(0,0,0)
(0,0,0)
(0,0,0)
(0,0,0)
(0,0,0)
(0,0,0)
(0,0,0)
(0,0,0)
(0,0,0)
(0,0,0)
(0,0,0)
(0,0,0)
(0,0,0)
(0,0,0)
(0,0,0)
(0,0,0)
(0,0,0)
(0,0,0)
(0,0,0)
(0,0,0)
(0,0,0)
(0,0,0)
(0,0,0)
(-133927.595280599,71125.8302082035,62801.7650723956)
(-141671.695184449,68176.020559313,136297.439697531)
(-159576.88734696,62070.1219936861,233804.205050806)
(-193413.208110966,52488.1859340392,374729.227227733)
(-254399.761053651,39518.9606839098,589610.027597476)
(-363903.862679734,24638.6262761438,928875.264001067)
(-562135.144133703,11132.5781410754,1479877.8299937)
(-920287.440777661,2838.15682131305,2397327.11395004)
(-1517901.42736901,54.7890937113516,3915173.75222534)
(-2114926.11691784,-194.032030226857,6030293.90117341)
(0,0,0)
(0,0,0)
(0,0,0)
(0,0,0)
(0,0,0)
(0,0,0)
(-141669.960022577,152925.299981781,59870.490249)
(-149500.877776394,147373.855438487,130173.53314622)
(-167704.169429945,135758.377557471,224189.447012378)
(-202334.856671605,117243.235251675,361769.254366348)
(-265014.828532935,91615.4435414493,574687.600041744)
(-377119.912355395,61160.559926869,915285.578746414)
(-577529.437139509,32368.1570730113,1471579.43695399)
(-934344.880637478,14129.0523844027,2394633.42202837)
(-1527290.9022437,6941.74121806339,3915037.37214772)
(-2119313.67470583,3556.734434671,6030600.28038865)
(0,0,0)
(0,0,0)
(0,0,0)
(0,0,0)
(0,0,0)
(0,0,0)
(-159411.578079175,257998.105853519,54338.7722074364)
(-167370.423394593,250562.03204952,118521.018990997)
(-186151.695341928,234821.416743401,205609.675146996)
(-222508.027313806,209261.226248876,336099.711463602)
(-289199.204764911,172761.474074674,544152.88569529)
(-408235.126126042,127147.067887352,886401.503860847)
(-615529.82256905,80972.7850887043,1453326.6984142)
(-969337.219907288,49265.5030100517,2387527.46769584)
(-1549842.15654393,32522.8781888181,3911788.48726903)
(-2129530.84816793,17648.3423379579,6027227.72753366)
(0,0,0)
(0,0,0)
(0,0,0)
(0,0,0)
(0,0,0)
(0,0,0)
(-192442.438909806,403527.374378514,46913.1703848118)
(-200511.791699671,395250.593120854,102736.401013149)
(-220012.324159133,377617.266376202,179952.875539479)
(-258878.572478598,348593.332782296,299499.341484658)
(-332189.091538415,306012.288118367,498437.618979379)
(-464564.952622124,250007.8622068,840141.777282054)
(-688302.629064318,187792.674024787,1421624.51741029)
(-1036992.76564592,137010.338443429,2370872.44762283)
(-1591101.44010527,97434.0051072456,3897062.76080968)
(-2147533.79421486,52445.1790341922,6009799.7183283)
(0,0,0)
(0,0,0)
(0,0,0)
(0,0,0)
(0,0,0)
(0,0,0)
(-251582.865275311,616506.530181852,38603.7094719736)
(-259638.182724469,608488.232992413,85004.2523248837)
(-279530.766041152,591361.559196202,150790.725546037)
(-320496.831075399,563079.181056943,256801.708346789)
(-400622.012447998,521106.83683015,442329.172083005)
(-549524.735975672,463998.94863822,777862.821627257)
(-799135.497350407,393980.898488074,1370810.09451438)
(-1140020.31970717,316559.298560703,2331281.45410427)
(-1651073.68157414,227632.236545973,3852156.90423968)
(-2173561.96188104,120663.123091359,5957500.92206356)
(0,0,0)
(0,0,0)
(0,0,0)
(0,0,0)
(0,0,0)
(0,0,0)
(-358414.465046121,944414.042504137,30506.952723835)
(-366058.015490472,937298.953190547,67754.2480161738)
(-385285.947597325,922031.867659706,122369.887149995)
(-425835.195164906,896557.117364378,214727.146007465)
(-506781.064036296,857481.75037394,385133.296499973)
(-658488.291908277,799870.556776654,707749.980269814)
(-908825.462877988,717284.318176691,1293272.02345919)
(-1234243.46147074,601776.678933036,2242298.10455759)
(-1716017.90551396,440696.158234815,3745252.0883827)
(-2206301.1603236,235263.134749346,5836953.23704832)
(0,0,0)
(0,0,0)
(0,0,0)
(0,0,0)
(0,0,0)
(0,0,0)
(-554409.924443066,1475528.04720105,23295.9197461552)
(-561160.546020242,1469365.40300782,52390.0159491159)
(-578412.061147986,1456044.41407378,96789.5306830312)
(-615456.741637571,1433273.34869099,175530.040993993)
(-690615.478328186,1396222.83871396,327404.430982154)
(-833127.126067797,1335324.78164146,625077.332185142)
(-1068025.42909464,1232803.16043223,1177583.91902425)
(-1363933.39633668,1062215.59773686,2081078.39655711)
(-1812798.93036616,794815.135264892,3539758.34989319)
(-2259694.85606764,433074.756622555,5601641.58408763)
(0,0,0)
(0,0,0)
(0,0,0)
(0,0,0)
(0,0,0)
(0,0,0)
(-912772.420323767,2371227.42218239,17073.045342428)
(-918165.674324033,2365588.17721581,39015.945458485)
(-932059.106202042,2353179.80736452,73939.6583697819)
(-962183.824011024,2331006.42241646,138390.408655328)
(-1023935.23708789,2292153.14721413,266395.337243058)
(-1142373.24074488,2221600.42836974,522492.931259659)
(-1339059.42379053,2087487.81555839,1006867.69992403)
(-1578644.0723124,1834168.07630141,1813559.29367189)
(-1988583.20441178,1419020.22035362,3177937.41299494)
(-2361817.57141375,804342.721773913,5168487.01925733)
(0,0,0)
(0,0,0)
(0,0,0)
(0,0,0)
(0,0,0)
(0,0,0)
(-1512801.49238205,3872602.11583645,11426.7987279907)
(-1516478.4428248,3866928.55266339,26564.8661052086)
(-1525908.08484607,3853970.85884742,51681.899468385)
(-1546155.29772107,3829338.46606398,99505.1535419354)
(-1586950.96445986,3782843.05202526,195766.213190659)
(-1663576.43214048,3692624.77790613,388318.295794743)
(-1792313.58143563,3514641.03663566,753478.6561531)
(-1983672.05435208,3173016.19592674,1398302.59087985)
(-2312805.37302773,2567006.98380112,2563121.20046008)
(-2539935.93610948,1543441.61763761,4363958.24070586)
(0,0,0)
(0,0,0)
(0,0,0)
(0,0,0)
(0,0,0)
(0,0,0)
(-2112567.23749821,5979359.72021983,5809.63311482584)
(-2114420.50137156,5973481.32066324,13677.3664865244)
(-2119107.17915541,5959650.88402178,27104.5204675754)
(-2129041.34699151,5932394.83896276,53089.4945603083)
(-2148791.55117038,5879168.41900679,105555.678749158)
(-2185694.72473894,5773556.83572143,210318.345672797)
(-2250122.72166507,5563238.57791587,411843.526057653)
(-2358719.78349233,5151362.21191176,792217.293564968)
(-2539330.47922073,4359172.41487374,1539382.34171308)
(-2557385.33523773,2819938.105758,2820271.18883043)
(0,0,0)
(0,0,0)
(0,0,0)
(0,0,0)
(0,0,0)
(0,0,0)
(0,0,0)
(0,0,0)
(0,0,0)
(0,0,0)
(0,0,0)
(0,0,0)
(0,0,0)
(0,0,0)
(0,0,0)
(0,0,0)
(0,0,0)
(0,0,0)
(0,0,0)
(0,0,0)
(0,0,0)
(0,0,0)
(0,0,0)
(0,0,0)
(0,0,0)
(0,0,0)
(0,0,0)
(0,0,0)
(0,0,0)
(0,0,0)
(0,0,0)
(0,0,0)
(0,0,0)
(0,0,0)
(0,0,0)
(0,0,0)
(0,0,0)
(0,0,0)
(0,0,0)
(0,0,0)
(0,0,0)
(0,0,0)
(0,0,0)
(0,0,0)
(0,0,0)
(0,0,0)
(0,0,0)
(0,0,0)
(0,0,0)
(0,0,0)
(0,0,0)
(0,0,0)
(0,0,0)
(0,0,0)
(0,0,0)
(0,0,0)
(0,0,0)
(0,0,0)
(0,0,0)
(0,0,0)
(0,0,0)
(0,0,0)
(0,0,0)
(0,0,0)
(0,0,0)
(0,0,0)
(0,0,0)
(0,0,0)
(0,0,0)
(0,0,0)
(0,0,0)
(0,0,0)
(0,0,0)
(0,0,0)
(0,0,0)
(0,0,0)
(0,0,0)
(0,0,0)
(0,0,0)
(0,0,0)
(0,0,0)
(0,0,0)
(0,0,0)
(0,0,0)
(0,0,0)
(0,0,0)
(0,0,0)
(0,0,0)
(0,0,0)
(0,0,0)
(0,0,0)
(0,0,0)
(0,0,0)
(0,0,0)
(0,0,0)
(0,0,0)
(0,0,0)
(0,0,0)
(0,0,0)
(0,0,0)
(0,0,0)
(0,0,0)
(19835098.8597384,63413.4294531336,55055.8337325744)
(19822138.8104367,60389.1592369193,118351.887079273)
(19792349.1181834,53987.4554837414,199934.144269909)
(19736704.2162286,43604.038559644,313708.399575456)
(19637731.7128246,28948.0282739848,480124.615627948)
(19461652.453195,11414.6033099447,730649.414648015)
(19138643.5706694,-4285.54835543638,1121651.96640507)
(18500444.0176109,-11207.2538700796,1799623.48009131)
(17060502.1057818,-9295.35136951702,3318011.0165147)
(13150115.0301842,-4552.6952575856,8145018.282875)
(0,0,0)
(0,0,0)
(0,0,0)
(0,0,0)
(0,0,0)
(0,0,0)
(19821931.3353358,135245.884947442,52061.9673520387)
(19808927.4109407,129559.528240768,111959.027835886)
(19778834.1296433,117364.697254215,189539.205196871)
(19722128.5959967,97112.9943253626,299062.514967599)
(19620433.575307,67489.7513598983,462568.106246501)
(19439423.4767621,30061.4832651656,714873.555378476)
(19111464.1126385,-5632.33492012257,1114722.51036989)
(18475909.64432,-20852.7661107415,1801609.21585779)
(17045249.6411668,-15579.3415657288,3322848.3808482)
(13143434.2591037,-6644.42282924942,8149687.89281503)
(0,0,0)
(0,0,0)
(0,0,0)
(0,0,0)
(0,0,0)
(0,0,0)
(19791939.7691702,224990.988357846,46399.2675449527)
(19778892.0937936,217436.486408591,99755.5103936879)
(19748207.4598533,200993.43047311,169263.340184274)
(19689035.4474189,172919.462720736,269409.115260928)
(19580294.5051042,129814.141853373,425086.733103066)
(19384463.0537636,70847.5585225185,679098.196160837)
(19037719.9581537,8220.35050195848,1099491.44822071)
(18408225.1958384,-18396.5008827707,1806968.48545184)
(17005894.4759632,-8767.53645857901,3331915.76604223)
(13127113.5022256,-377.731432990743,8156500.44245718)
(0,0,0)
(0,0,0)
(0,0,0)
(0,0,0)
(0,0,0)
(0,0,0)
(19736841.7018389,344375.345869606,38827.2199442983)
(19723831.6572037,336167.825461188,83248.1501930237)
(19692424.7748385,318180.722399744,141119.477473527)
(19629388.0158004,287042.761126491,226225.308993483)
(19507660.8012381,237645.550581927,366039.725693216)
(19278299.3785928,165117.333971199,616401.337234374)
(18873912.2748165,77024.8689263641,1072877.63313395)
(18254279.2296957,34017.8059387016,1816687.04917559)
(16926434.8187008,37444.6221692315,3340434.34994645)
(13096592.1245405,26398.0999347291,8157028.31802814)
(0,0,0)
(0,0,0)
(0,0,0)
(0,0,0)
(0,0,0)
(0,0,0)
(19639960.914421,509776.437476981,30550.8469010213)
(19627243.17087,502186.747817578,65146.2891548703)
(19595685.7880062,485730.982540501,109875.193171461)
(19529357.7641827,457846.50924509,176712.567999481)
(19392788.9218865,415037.234406416,293405.668045225)
(19113150.6205531,355091.808235322,528251.555457017)
(18579487.3857861,284303.725719437,1029845.53373219)
(17968862.1807502,222336.654132858,1820139.90328544)
(16801880.5214037,162651.359487015,3329474.68119454)
(13051189.5552117,87907.698865893,8130709.28337539)
(0,0,0)
(0,0,0)
(0,0,0)
(0,0,0)
(0,0,0)
(0,0,0)
(19467540.3470563,748459.535063875,22857.8085154005)
(19455706.3147267,742228.148029636,48547.7962908931)
(19425686.5841567,728945.772073518,81856.1932085719)
(19360585.3575481,706986.004810634,133791.863134728)
(19222469.8904786,673671.796289474,233402.064941466)
(18934879.5380735,625207.970576966,457413.790822783)
(18394565.8157859,558032.82157581,967789.134507239)
(17810912.3489768,472040.113269492,1760425.58312781)
(16695913.3917136,343850.485277497,3254790.87831453)
(12999188.7791726,181831.366849009,8042872.98903994)
(0,0,0)
(0,0,0)
(0,0,0)
(0,0,0)
(0,0,0)
(0,0,0)
(19147872.4959796,1117161.28045396,16511.5523919395)
(19137580.1338737,1112354.68918829,35140.0495441018)
(19110997.2962464,1102391.07953892,59781.1028890303)
(19051913.0311499,1086526.42911127,100366.624005628)
(18923180.9560982,1062873.6701313,184864.033942116)
(18648264.8256893,1026008.38714128,390167.38382542)
(18124375.8150215,961668.573661021,881626.105828783)
(17597694.2755352,847414.115749034,1632120.14968211)
(16538973.1912782,618955.91333346,3092738.31818655)
(12910450.9214603,330895.330852979,7861024.29485939)
(0,0,0)
(0,0,0)
(0,0,0)
(0,0,0)
(0,0,0)
(0,0,0)
(18509122.895893,1771129.2802137,11632.4022282166)
(18500991.293534,1767222.12254953,25103.7192136399)
(18479823.3852208,1759266.73570916,43841.2898252572)
(18432121.4409293,1746921.14435886,76637.0278420761)
(18326098.8187957,1729034.74143896,147937.618855592)
(18092985.5252991,1700285.06545436,325797.892703287)
(17634553.2941812,1634075.67033227,767273.796265064)
(17290990.4532707,1428972.40975714,1403576.69487861)
(16222156.5935778,1094663.72287792,2804624.80554926)
(12704968.8239282,626130.30517254,7530099.15409243)
(0,0,0)
(0,0,0)
(0,0,0)
(0,0,0)
(0,0,0)
(0,0,0)
(17065494.0416986,3272621.0187784,7708.44555936056)
(17060025.4243637,3268807.24156385,17115.1775613225)
(17045904.5810273,3260607.75354809,31457.2120537619)
(17014721.9727257,3246252.28998865,58744.5141819089)
(16948380.6822397,3220786.29554564,119157.031580443)
(16813452.4311227,3170312.11386545,259596.838110927)
(16570104.4595039,3056620.52269453,562129.663013848)
(16228005.4205374,2797760.4789723,1069159.837114)
(15262214.3168748,2340340.98263105,2335958.60566301)
(12079880.0649495,1525935.57876405,6903833.04921727)
(0,0,0)
(0,0,0)
(0,0,0)
(0,0,0)
(0,0,0)
(0,0,0)
(13151914.7622947,8091687.59456722,3947.14262296082)
(13149192.4623151,8087653.02214314,8984.11656170154)
(13142270.0762008,8078534.00396391,17176.3289943672)
(13127304.7971289,8061214.83751217,33363.3555551548)
(13096468.4697662,8027708.38441124,68676.963957714)
(13035855.9203722,7959026.69452118,145907.456395539)
(12923529.9596479,7813132.61772195,303238.398259861)
(12708269.8353932,7509897.65252237,611607.324029034)
(12080383.9970507,6898397.8965082,1521331.65208521)
(9822415.69331859,5377302.42535943,5377659.49513822)
(0,0,0)
(0,0,0)
(0,0,0)
(0,0,0)
(0,0,0)
(0,0,0)
(0,0,0)
(0,0,0)
(0,0,0)
(0,0,0)
(0,0,0)
(0,0,0)
(0,0,0)
(0,0,0)
(0,0,0)
(0,0,0)
(0,0,0)
(0,0,0)
(0,0,0)
(0,0,0)
(0,0,0)
(0,0,0)
(0,0,0)
(0,0,0)
(0,0,0)
(0,0,0)
(0,0,0)
(0,0,0)
(0,0,0)
(0,0,0)
(0,0,0)
(0,0,0)
(0,0,0)
(0,0,0)
(0,0,0)
(0,0,0)
(0,0,0)
(0,0,0)
(0,0,0)
(0,0,0)
(0,0,0)
(0,0,0)
(0,0,0)
(0,0,0)
(0,0,0)
(0,0,0)
(0,0,0)
(0,0,0)
(0,0,0)
(0,0,0)
(0,0,0)
(0,0,0)
(0,0,0)
(0,0,0)
(0,0,0)
(0,0,0)
(0,0,0)
(0,0,0)
(0,0,0)
(0,0,0)
(0,0,0)
(0,0,0)
(0,0,0)
(0,0,0)
(0,0,0)
(0,0,0)
(0,0,0)
(0,0,0)
(0,0,0)
(0,0,0)
(0,0,0)
(0,0,0)
(0,0,0)
(0,0,0)
(0,0,0)
(0,0,0)
(0,0,0)
(0,0,0)
(0,0,0)
(0,0,0)
(0,0,0)
(0,0,0)
(0,0,0)
(0,0,0)
(0,0,0)
(0,0,0)
(0,0,0)
(0,0,0)
(0,0,0)
(0,0,0)
(0,0,0)
(0,0,0)
(0,0,0)
(0,0,0)
(0,0,0)
(0,0,0)
(0,0,0)
(0,0,0)
(0,0,0)
(0,0,0)
(0,0,0)
(0,0,0)
(-344714.479047074,50219.0259379695,42098.5946427976)
(-359024.275032023,47168.262544906,88597.6993618473)
(-391367.931368869,40490.2560420616,144328.774667317)
(-450167.52087919,29039.4373625088,214665.356207841)
(-550774.358930365,11675.0699376808,304000.639820396)
(-718666.873335453,-10803.7798175679,407628.02796367)
(-993162.704490973,-31446.6271841327,483385.212103448)
(-1427493.67231042,-35714.5032996211,359541.68711967)
(-2050211.77407076,-24531.4311868809,-592708.720045577)
(-2513272.61001566,-11217.2188623018,-5005599.57918816)
(0,0,0)
(0,0,0)
(0,0,0)
(0,0,0)
(0,0,0)
(0,0,0)
(-359813.226740052,105384.479234271,39083.3905748275)
(-373892.065598617,99642.4178335828,81932.9936206788)
(-405946.367905929,86838.0422888324,132869.986718433)
(-464826.176331542,64071.0660065408,197297.412197891)
(-566975.705229659,27386.6614573262,281499.383010155)
(-739416.270307101,-24876.4488632773,386916.080920375)
(-1020345.31406905,-79337.8596776597,479121.021916724)
(-1450468.8713469,-88502.0231418498,370791.339221129)
(-2061740.26984513,-54926.0121035376,-579319.887054974)
(-2517352.17955786,-22964.5834639099,-4994281.8019965)
(0,0,0)
(0,0,0)
(0,0,0)
(0,0,0)
(0,0,0)
(0,0,0)
(-393625.681611825,170059.118803073,33395.0930084921)
(-407236.02942079,162511.400959507,69158.5148922045)
(-438727.828877829,145309.929028896,110126.198678562)
(-498179.967171736,113321.946706828,160595.014364176)
(-605604.156880724,57213.046959087,229171.572642616)
(-795793.107288847,-35297.0989116986,332352.665538717)
(-1111110.7940339,-155585.833032661,469935.672876616)
(-1529910.09794697,-172371.751121045,404444.9764364)
(-2096596.22815085,-88260.1407188842,-547225.909038886)
(-2528531.06960993,-30902.952552134,-4971138.68631986)
(0,0,0)
(0,0,0)
(0,0,0)
(0,0,0)
(0,0,0)
(0,0,0)
(-454011.423357042,247576.764296409,25839.7614978389)
(-466897.277782346,239669.036395595,51915.3428431041)
(-497490.988385077,221517.005609326,78128.3112814795)
(-558157.800600716,187049.68058918,104450.675595535)
(-677543.854020738,122786.642187881,136586.017420777)
(-919844.818312627,-31.8763930671012,211969.273602808)
(-1392892.29916995,-217418.40837065,453110.704722458)
(-1789641.49991143,-251429.972244181,488593.937247992)
(-2183793.47758632,-87136.6591869522,-489796.966201575)
(-2552463.04086293,-19005.491889917,-4940134.97966513)
(0,0,0)
(0,0,0)
(0,0,0)
(0,0,0)
(0,0,0)
(0,0,0)
(-555341.169765806,337521.947115953,17861.1831625547)
(-567178.768583741,330788.931246917,33667.5095602652)
(-596070.043397832,315830.286833589,43614.3415353337)
(-656739.482264936,289147.901979036,40117.6483883944)
(-790240.537108303,244754.427478442,13683.6038879052)
(-1132014.35712755,176799.122423068,-5478.13545226376)
(-2249249.53266178,99284.2024537077,419060.453966501)
(-2668188.78469744,64282.9578491052,652902.771116087)
(-2354824.05417414,56595.6157695531,-421620.646467313)
(-2591701.20067645,35876.1051647096,-4921107.20583856)
(0,0,0)
(0,0,0)
(0,0,0)
(0,0,0)
(0,0,0)
(0,0,0)
(-722394.760674087,428933.034926716,11028.3017149095)
(-732744.07903691,424203.883614512,18568.0249062023)
(-758589.847666362,414357.188328593,16821.8370295395)
(-814998.599990737,398411.827425354,-4353.84908264741)
(-944769.72041742,374419.028552917,-54274.5574657965)
(-1285635.31664482,338530.791797588,-82987.0903267407)
(-2348304.59726399,287706.351721327,383965.455250816)
(-2732199.9639822,258703.712512087,645161.295342085)
(-2434295.66907993,186801.610555223,-442331.356854807)
(-2630843.93774187,93039.9482095504,-4956958.20118992)
(0,0,0)
(0,0,0)
(0,0,0)
(0,0,0)
(0,0,0)
(0,0,0)
(-995325.243880345,478416.450447358,6218.60613460758)
(-1003842.86350178,475765.208609956,8584.56030988723)
(-1025563.78091111,471233.628497456,773.479093813633)
(-1074722.68878124,466705.747085716,-28380.4388401099)
(-1193849.29803739,465692.841379454,-90119.7157357504)
(-1527538.45475439,470532.177867305,-133813.539566499)
(-2635597.3219732,471630.139355692,354740.091589119)
(-2990021.05380245,540528.926471902,573134.488762198)
(-2554451.38474122,301990.459845215,-536125.502713148)
(-2695450.29192882,125322.970233714,-5050003.02955294)
(0,0,0)
(0,0,0)
(0,0,0)
(0,0,0)
(0,0,0)
(0,0,0)
(-1430876.81152072,327403.000248348,3517.4394080098)
(-1437313.85317498,326138.772214123,3953.30430812645)
(-1453901.82803935,325219.264095519,-3802.83623448831)
(-1492426.8112355,329337.161902704,-29381.717091412)
(-1590960.8880108,351098.281405618,-85223.1685158427)
(-1896979.75792529,420473.865733483,-132695.291362374)
(-3106916.40804268,569348.623625935,423560.208386505)
(-2532683.86635698,365746.188863213,334521.547418118)
(-2650502.19573533,134522.917581306,-712847.839209539)
(-2795593.30125863,907.805144064836,-5175366.26713774)
(0,0,0)
(0,0,0)
(0,0,0)
(0,0,0)
(0,0,0)
(0,0,0)
(-2055581.7743461,-641261.938440757,2245.03652909201)
(-2059749.93008857,-642331.576292794,2995.02128349941)
(-2070369.2534551,-643335.716555967,328.118212649398)
(-2094040.75299272,-641512.961507279,-7554.75086365562)
(-2148288.88769755,-631488.874313088,-15793.7434124689)
(-2277939.32129944,-607650.597902497,16226.754440885)
(-2561456.3764166,-590297.538392473,219938.034175087)
(-2654756.97899121,-722265.67808862,103216.582450738)
(-2899249.33796994,-841701.386254505,-846591.177073384)
(-2945240.90598735,-731633.275544619,-5176424.8436526)
(0,0,0)
(0,0,0)
(0,0,0)
(0,0,0)
(0,0,0)
(0,0,0)
(-2517384.6718603,-5060698.20379058,1239.98130013815)
(-2519407.20936755,-5062049.55051709,2061.90900237787)
(-2524484.15941554,-5064254.269208,2238.97906604306)
(-2535416.8809511,-5066610.47597592,2562.4534099706)
(-2558722.00182875,-5069287.40938298,8055.74187008097)
(-2607525.44752753,-5077305.22401804,33596.0176806642)
(-2697781.86481616,-5110839.47876777,87954.064315318)
(-2798456.17844169,-5198756.37015373,-16324.9479894711)
(-2946094.07207063,-5182302.872597,-736741.110730392)
(-2843160.16297651,-4445302.40607411,-4444991.84211053)
(0,0,0)
(0,0,0)
(0,0,0)
(0,0,0)
(0,0,0)
(0,0,0)
(0,0,0)
(0,0,0)
(0,0,0)
(0,0,0)
(0,0,0)
(0,0,0)
(0,0,0)
(0,0,0)
(0,0,0)
(0,0,0)
(0,0,0)
(0,0,0)
(0,0,0)
(0,0,0)
(0,0,0)
(0,0,0)
(0,0,0)
(0,0,0)
(0,0,0)
(0,0,0)
(0,0,0)
(0,0,0)
(0,0,0)
(0,0,0)
(0,0,0)
(0,0,0)
(0,0,0)
(0,0,0)
(0,0,0)
(0,0,0)
(0,0,0)
(0,0,0)
(0,0,0)
(0,0,0)
(0,0,0)
(0,0,0)
(0,0,0)
(0,0,0)
(0,0,0)
(0,0,0)
(0,0,0)
(0,0,0)
(0,0,0)
(0,0,0)
(0,0,0)
(0,0,0)
(0,0,0)
(0,0,0)
(0,0,0)
(0,0,0)
(0,0,0)
(0,0,0)
(0,0,0)
(0,0,0)
(0,0,0)
(0,0,0)
(0,0,0)
(0,0,0)
(0,0,0)
(0,0,0)
(0,0,0)
(0,0,0)
(0,0,0)
(0,0,0)
(0,0,0)
(0,0,0)
(0,0,0)
(0,0,0)
(0,0,0)
(0,0,0)
(0,0,0)
(0,0,0)
(0,0,0)
(0,0,0)
(0,0,0)
(0,0,0)
(0,0,0)
(0,0,0)
(0,0,0)
(0,0,0)
(0,0,0)
(0,0,0)
(0,0,0)
(0,0,0)
(0,0,0)
(0,0,0)
(0,0,0)
(0,0,0)
(0,0,0)
(0,0,0)
(0,0,0)
(0,0,0)
(0,0,0)
(0,0,0)
(0,0,0)
(0,0,0)
(-407646.866436813,35142.5869610236,27789.8004287156)
(-419783.976055669,32324.5498063028,56224.9516460592)
(-446528.216449168,25978.8095955989,85406.4271307603)
(-493158.64799267,14474.8269540567,113922.727290184)
(-568444.507491165,-4428.7524355772,136021.628286561)
(-684198.887652298,-31479.3095051106,133032.952108517)
(-850481.007389821,-58565.0046635367,48916.259670904)
(-1056572.93572396,-58622.3828716413,-263382.094043919)
(-1221404.11213021,-36009.5017384062,-1056180.25424606)
(-1061409.51317877,-15267.5427439274,-2492775.80833902)
(0,0,0)
(0,0,0)
(0,0,0)
(0,0,0)
(0,0,0)
(0,0,0)
(-421366.107054491,71670.8984978439,25024.5687776181)
(-432842.951758754,66391.9031021076,49908.1016419492)
(-458139.162168147,54168.6317973996,73911.0737023669)
(-502314.438390611,30839.6186402238,95034.5440752688)
(-574187.18330159,-11150.9980250335,108968.267736655)
(-686611.180764561,-81207.9813848092,105891.850073814)
(-851813.700303936,-170054.429537574,48849.6611827329)
(-1051638.97588187,-167881.950724371,-240720.666429561)
(-1213358.52213198,-89755.7351164494,-1035356.18076467)
(-1056452.26425165,-34130.7283567198,-2477392.9104581)
(0,0,0)
(0,0,0)
(0,0,0)
(0,0,0)
(0,0,0)
(0,0,0)
(-451523.029250013,109755.724611876,19812.521524157)
(-461698.376580233,102928.439352122,37738.3324335861)
(-484081.418871637,86621.474687502,50639.0795372916)
(-523186.858108694,53419.2231616868,53066.3659527881)
(-587881.585552845,-14680.1023419411,38872.8989418169)
(-695715.283856714,-159363.124397528,16950.218522404)
(-877786.930385898,-437411.524337034,50983.4496738618)
(-1052103.96804158,-432152.561475054,-162552.06948085)
(-1193792.9644706,-175505.570869012,-979605.497408538)
(-1044345.5715987,-54842.4503659497,-2443079.27341054)
(0,0,0)
(0,0,0)
(0,0,0)
(0,0,0)
(0,0,0)
(0,0,0)
(-503534.234515596,146300.718518009,12977.8172524213)
(-511854.294434735,139459.227423102,21404.0458338308)
(-529915.167425599,122994.325917806,17455.3736440486)
(-560770.984479499,88513.9698841425,-15026.1891996244)
(-611497.380388276,10100.3294074145,-105853.094581441)
(-711624.365528667,-212240.615062476,-261196.056700452)
(-1073810.74275683,-1073859.91072861,56170.7732780007)
(-1129646.04919585,-1130052.64090475,94075.4019921167)
(-1148119.54144023,-258181.29922859,-858922.805794393)
(-1019840.10649306,-58217.8829924879,-2388170.30753772)
(0,0,0)
(0,0,0)
(0,0,0)
(0,0,0)
(0,0,0)
(0,0,0)
(-585704.169044408,170603.770889761,6059.94690685031)
(-591858.231514842,165339.056733346,4859.58052770889)
(-604524.639919207,153366.915496128,-17058.4125292387)
(-622725.109741995,130926.493049008,-93485.308217046)
(-635630.89120627,90235.2748522042,-328229.899563868)
(-572808.909771006,23136.4858362771,-1122812.44781917)
(-8.63821072258987e-05,-2.38928234423358e-05,5.81235631061905e-05)