/*--------------------------------*- C++ -*----------------------------------*\
| =========                 |                                                 |
| \\      /  F ield         | foam-extend: Open Source Cstd::filesystem::create_directory();FD                    |
|  \\    /   O peration     | Version:     4.0                                |
|   \\  /    A nd           | Web:         http://www.foam-extend.org         |
|    \\/     M anipulation  |                                                 |
\*---------------------------------------------------------------------------*/
FoamFile
{
    version 2.0;
    format ascii;
    class volVectorField;
    location "Data/3076";
    object      H;
}
// * * * * * * * * * * * * * * * * * * * * * * * * * * * * * * * * * * * * * //

dimensions      [0 1 -1 0 0 0 0];

internalField   nonuniform List<vector>
4096
(
(0,0,0)
(0,0,0)
(0,0,0)
(0,0,0)
(0,0,0)
(0,0,0)
(0,0,0)
(0,0,0)
(0,0,0)
(0,0,0)
(0,0,0)
(0,0,0)
(0,0,0)
(0,0,0)
(0,0,0)
(0,0,0)
(0,0,0)
(0,0,0)
(0,0,0)
(0,0,0)
(0,0,0)
(0,0,0)
(0,0,0)
(0,0,0)
(0,0,0)
(0,0,0)
(0,0,0)
(0,0,0)
(0,0,0)
(0,0,0)
(0,0,0)
(0,0,0)
(0,0,0)
(0,0,0)
(0,0,0)
(0,0,0)
(0,0,0)
(0,0,0)
(0,0,0)
(0,0,0)
(0,0,0)
(0,0,0)
(0,0,0)
(0,0,0)
(0,0,0)
(0,0,0)
(0,0,0)
(0,0,0)
(0,0,0)
(0,0,0)
(0,0,0)
(0,0,0)
(0,0,0)
(0,0,0)
(0,0,0)
(0,0,0)
(0,0,0)
(0,0,0)
(0,0,0)
(0,0,0)
(0,0,0)
(0,0,0)
(0,0,0)
(0,0,0)
(0,0,0)
(0,0,0)
(0,0,0)
(0,0,0)
(0,0,0)
(0,0,0)
(0,0,0)
(0,0,0)
(0,0,0)
(0,0,0)
(0,0,0)
(0,0,0)
(0,0,0)
(0,0,0)
(0,0,0)
(0,0,0)
(0,0,0)
(0,0,0)
(0,0,0)
(0,0,0)
(0,0,0)
(0,0,0)
(0,0,0)
(0,0,0)
(0,0,0)
(0,0,0)
(0,0,0)
(0,0,0)
(0,0,0)
(0,0,0)
(0,0,0)
(0,0,0)
(0,0,0)
(0,0,0)
(0,0,0)
(0,0,0)
(0,0,0)
(0,0,0)
(0,0,0)
(0,0,0)
(0,0,0)
(0,0,0)
(0,0,0)
(0,0,0)
(0,0,0)
(0,0,0)
(0,0,0)
(0,0,0)
(0,0,0)
(0,0,0)
(0,0,0)
(0,0,0)
(0,0,0)
(0,0,0)
(0,0,0)
(0,0,0)
(0,0,0)
(0,0,0)
(0,0,0)
(0,0,0)
(0,0,0)
(0,0,0)
(0,0,0)
(0,0,0)
(0,0,0)
(0,0,0)
(0,0,0)
(0,0,0)
(0,0,0)
(0,0,0)
(0,0,0)
(0,0,0)
(0,0,0)
(0,0,0)
(0,0,0)
(0,0,0)
(0,0,0)
(0,0,0)
(0,0,0)
(0,0,0)
(0,0,0)
(0,0,0)
(0,0,0)
(0,0,0)
(0,0,0)
(0,0,0)
(0,0,0)
(0,0,0)
(0,0,0)
(0,0,0)
(0,0,0)
(0,0,0)
(0,0,0)
(0,0,0)
(0,0,0)
(0,0,0)
(0,0,0)
(0,0,0)
(0,0,0)
(0,0,0)
(0,0,0)
(0,0,0)
(0,0,0)
(0,0,0)
(0,0,0)
(0,0,0)
(0,0,0)
(0,0,0)
(0,0,0)
(0,0,0)
(0,0,0)
(0,0,0)
(0,0,0)
(0,0,0)
(0,0,0)
(0,0,0)
(0,0,0)
(0,0,0)
(0,0,0)
(0,0,0)
(0,0,0)
(0,0,0)
(0,0,0)
(0,0,0)
(0,0,0)
(0,0,0)
(0,0,0)
(0,0,0)
(0,0,0)
(0,0,0)
(0,0,0)
(0,0,0)
(0,0,0)
(0,0,0)
(0,0,0)
(0,0,0)
(0,0,0)
(0,0,0)
(0,0,0)
(0,0,0)
(0,0,0)
(0,0,0)
(0,0,0)
(0,0,0)
(0,0,0)
(0,0,0)
(0,0,0)
(0,0,0)
(0,0,0)
(0,0,0)
(0,0,0)
(0,0,0)
(0,0,0)
(0,0,0)
(0,0,0)
(0,0,0)
(0,0,0)
(0,0,0)
(0,0,0)
(0,0,0)
(0,0,0)
(0,0,0)
(0,0,0)
(0,0,0)
(0,0,0)
(0,0,0)
(0,0,0)
(0,0,0)
(0,0,0)
(0,0,0)
(0,0,0)
(0,0,0)
(0,0,0)
(0,0,0)
(0,0,0)
(0,0,0)
(0,0,0)
(0,0,0)
(0,0,0)
(0,0,0)
(0,0,0)
(0,0,0)
(0,0,0)
(0,0,0)
(0,0,0)
(0,0,0)
(0,0,0)
(0,0,0)
(0,0,0)
(0,0,0)
(0,0,0)
(0,0,0)
(0,0,0)
(0,0,0)
(0,0,0)
(0,0,0)
(0,0,0)
(0,0,0)
(0,0,0)
(0,0,0)
(0,0,0)
(0,0,0)
(0,0,0)
(0,0,0)
(0,0,0)
(0,0,0)
(0,0,0)
(0,0,0)
(0,0,0)
(0,0,0)
(0,0,0)
(0,0,0)
(0,0,0)
(0,0,0)
(0,0,0)
(0,0,0)
(0,0,0)
(0,0,0)
(0,0,0)
(0,0,0)
(0,0,0)
(0,0,0)
(0,0,0)
(0,0,0)
(0,0,0)
(0,0,0)
(0,0,0)
(0,0,0)
(0,0,0)
(0,0,0)
(0,0,0)
(0,0,0)
(0,0,0)
(0,0,0)
(0,0,0)
(0,0,0)
(0,0,0)
(0,0,0)
(0,0,0)
(0,0,0)
(0,0,0)
(0,0,0)
(0,0,0)
(0,0,0)
(0,0,0)
(0,0,0)
(0,0,0)
(0,0,0)
(0,0,0)
(0,0,0)
(0,0,0)
(0,0,0)
(0,0,0)
(0,0,0)
(0,0,0)
(0,0,0)
(0,0,0)
(0,0,0)
(0,0,0)
(0,0,0)
(0,0,0)
(0,0,0)
(0,0,0)
(0,0,0)
(0,0,0)
(0,0,0)
(0,0,0)
(0,0,0)
(0,0,0)
(0,0,0)
(0,0,0)
(0,0,0)
(0,0,0)
(0,0,0)
(0,0,0)
(0,0,0)
(0,0,0)
(0,0,0)
(0,0,0)
(0,0,0)
(0,0,0)
(0,0,0)
(0,0,0)
(0,0,0)
(0,0,0)
(0,0,0)
(0,0,0)
(0,0,0)
(0,0,0)
(0,0,0)
(0,0,0)
(0,0,0)
(0,0,0)
(0,0,0)
(0,0,0)
(0,0,0)
(0,0,0)
(0,0,0)
(0,0,0)
(0,0,0)
(0,0,0)
(0,0,0)
(0,0,0)
(0,0,0)
(0,0,0)
(0,0,0)
(0,0,0)
(0,0,0)
(0,0,0)
(0,0,0)
(0,0,0)
(0,0,0)
(0,0,0)
(0,0,0)
(0,0,0)
(0,0,0)
(0,0,0)
(0,0,0)
(0,0,0)
(0,0,0)
(0,0,0)
(0,0,0)
(0,0,0)
(0,0,0)
(0,0,0)
(0,0,0)
(0,0,0)
(0,0,0)
(0,0,0)
(0,0,0)
(0,0,0)
(0,0,0)
(0,0,0)
(0,0,0)
(0,0,0)
(0,0,0)
(0,0,0)
(0,0,0)
(0,0,0)
(0,0,0)
(0,0,0)
(0,0,0)
(0,0,0)
(0,0,0)
(0,0,0)
(0,0,0)
(0,0,0)
(0,0,0)
(0,0,0)
(0,0,0)
(0,0,0)
(0,0,0)
(0,0,0)
(0,0,0)
(0,0,0)
(0,0,0)
(0,0,0)
(0,0,0)
(0,0,0)
(0,0,0)
(0,0,0)
(0,0,0)
(0,0,0)
(0,0,0)
(0,0,0)
(0,0,0)
(0,0,0)
(0,0,0)
(0,0,0)
(0,0,0)
(0,0,0)
(0,0,0)
(0,0,0)
(0,0,0)
(0,0,0)
(0,0,0)
(0,0,0)
(0,0,0)
(0,0,0)
(0,0,0)
(0,0,0)
(0,0,0)
(0,0,0)
(0,0,0)
(0,0,0)
(0,0,0)
(0,0,0)
(0,0,0)
(0,0,0)
(0,0,0)
(0,0,0)
(0,0,0)
(0,0,0)
(0,0,0)
(0,0,0)
(0,0,0)
(0,0,0)
(0,0,0)
(0,0,0)
(0,0,0)
(0,0,0)
(0,0,0)
(0,0,0)
(0,0,0)
(0,0,0)
(0,0,0)
(0,0,0)
(0,0,0)
(0,0,0)
(0,0,0)
(0,0,0)
(0,0,0)
(0,0,0)
(0,0,0)
(0,0,0)
(0,0,0)
(0,0,0)
(0,0,0)
(0,0,0)
(0,0,0)
(0,0,0)
(0,0,0)
(0,0,0)
(0,0,0)
(0,0,0)
(0,0,0)
(0,0,0)
(0,0,0)
(0,0,0)
(0,0,0)
(0,0,0)
(0,0,0)
(0,0,0)
(0,0,0)
(0,0,0)
(0,0,0)
(0,0,0)
(0,0,0)
(0,0,0)
(0,0,0)
(0,0,0)
(0,0,0)
(0,0,0)
(0,0,0)
(0,0,0)
(0,0,0)
(0,0,0)
(0,0,0)
(0,0,0)
(0,0,0)
(0,0,0)
(0,0,0)
(0,0,0)
(0,0,0)
(0,0,0)
(0,0,0)
(0,0,0)
(0,0,0)
(0,0,0)
(0,0,0)
(0,0,0)
(0,0,0)
(0,0,0)
(0,0,0)
(0,0,0)
(0,0,0)
(0,0,0)
(0,0,0)
(0,0,0)
(0,0,0)
(0,0,0)
(0,0,0)
(0,0,0)
(0,0,0)
(0,0,0)
(0,0,0)
(0,0,0)
(0,0,0)
(0,0,0)
(0,0,0)
(0,0,0)
(0,0,0)
(0,0,0)
(0,0,0)
(0,0,0)
(0,0,0)
(0,0,0)
(0,0,0)
(0,0,0)
(0,0,0)
(0,0,0)
(0,0,0)
(0,0,0)
(0,0,0)
(0,0,0)
(0,0,0)
(0,0,0)
(0,0,0)
(0,0,0)
(0,0,0)
(0,0,0)
(0,0,0)
(0,0,0)
(0,0,0)
(0,0,0)
(0,0,0)
(0,0,0)
(0,0,0)
(0,0,0)
(0,0,0)
(0,0,0)
(0,0,0)
(0,0,0)
(0,0,0)
(0,0,0)
(0,0,0)
(0,0,0)
(0,0,0)
(0,0,0)
(0,0,0)
(0,0,0)
(0,0,0)
(0,0,0)
(0,0,0)
(0,0,0)
(0,0,0)
(0,0,0)
(0,0,0)
(0,0,0)
(0,0,0)
(0,0,0)
(0,0,0)
(0,0,0)
(0,0,0)
(0,0,0)
(0,0,0)
(0,0,0)
(0,0,0)
(0,0,0)
(0,0,0)
(0,0,0)
(0,0,0)
(0,0,0)
(0,0,0)
(0,0,0)
(0,0,0)
(0,0,0)
(0,0,0)
(0,0,0)
(0,0,0)
(0,0,0)
(0,0,0)
(0,0,0)
(0,0,0)
(0,0,0)
(0,0,0)
(0,0,0)
(0,0,0)
(0,0,0)
(0,0,0)
(0,0,0)
(0,0,0)
(0,0,0)
(0,0,0)
(0,0,0)
(0,0,0)
(0,0,0)
(0,0,0)
(0,0,0)
(0,0,0)
(0,0,0)
(0,0,0)
(0,0,0)
(0,0,0)
(0,0,0)
(0,0,0)
(0,0,0)
(0,0,0)
(0,0,0)
(0,0,0)
(0,0,0)
(0,0,0)
(0,0,0)
(0,0,0)
(0,0,0)
(0,0,0)
(0,0,0)
(0,0,0)
(0,0,0)
(0,0,0)
(0,0,0)
(0,0,0)
(0,0,0)
(0,0,0)
(0,0,0)
(0,0,0)
(0,0,0)
(0,0,0)
(0,0,0)
(0,0,0)
(0,0,0)
(0,0,0)
(0,0,0)
(0,0,0)
(0,0,0)
(0,0,0)
(0,0,0)
(0,0,0)
(0,0,0)
(0,0,0)
(0,0,0)
(0,0,0)
(0,0,0)
(0,0,0)
(0,0,0)
(0,0,0)
(0,0,0)
(0,0,0)
(0,0,0)
(0,0,0)
(0,0,0)
(0,0,0)
(0,0,0)
(0,0,0)
(0,0,0)
(0,0,0)
(0,0,0)
(0,0,0)
(0,0,0)
(0,0,0)
(0,0,0)
(0,0,0)
(0,0,0)
(0,0,0)
(0,0,0)
(0,0,0)
(0,0,0)
(0,0,0)
(0,0,0)
(0,0,0)
(0,0,0)
(0,0,0)
(0,0,0)
(0,0,0)
(0,0,0)
(0,0,0)
(0,0,0)
(0,0,0)
(0,0,0)
(0,0,0)
(0,0,0)
(0,0,0)
(0,0,0)
(0,0,0)
(0,0,0)
(0,0,0)
(0,0,0)
(0,0,0)
(0,0,0)
(0,0,0)
(0,0,0)
(0,0,0)
(0,0,0)
(0,0,0)
(0,0,0)
(0,0,0)
(0,0,0)
(0,0,0)
(0,0,0)
(0,0,0)
(0,0,0)
(0,0,0)
(0,0,0)
(0,0,0)
(0,0,0)
(0,0,0)
(0,0,0)
(0,0,0)
(0,0,0)
(0,0,0)
(0,0,0)
(0,0,0)
(0,0,0)
(0,0,0)
(0,0,0)
(0,0,0)
(0,0,0)
(0,0,0)
(0,0,0)
(0,0,0)
(0,0,0)
(0,0,0)
(0,0,0)
(0,0,0)
(0,0,0)
(0,0,0)
(0,0,0)
(0,0,0)
(0,0,0)
(0,0,0)
(0,0,0)
(0,0,0)
(0,0,0)
(0,0,0)
(0,0,0)
(0,0,0)
(0,0,0)
(0,0,0)
(0,0,0)
(0,0,0)
(0,0,0)
(0,0,0)
(0,0,0)
(0,0,0)
(0,0,0)
(0,0,0)
(0,0,0)
(0,0,0)
(0,0,0)
(0,0,0)
(0,0,0)
(0,0,0)
(0,0,0)
(0,0,0)
(0,0,0)
(0,0,0)
(0,0,0)
(0,0,0)
(0,0,0)
(0,0,0)
(0,0,0)
(0,0,0)
(0,0,0)
(0,0,0)
(0,0,0)
(0,0,0)
(0,0,0)
(0,0,0)
(0,0,0)
(0,0,0)
(0,0,0)
(0,0,0)
(0,0,0)
(0,0,0)
(0,0,0)
(0,0,0)
(0,0,0)
(0,0,0)
(0,0,0)
(0,0,0)
(0,0,0)
(0,0,0)
(0,0,0)
(0,0,0)
(0,0,0)
(-3.93067573131885e-13,-2.18009428012678e-12,3.29352907500962e-12)
(-8.69249629587413e-13,-5.81095977900517e-12,3.14167390938155e-12)
(-1.972096726485e-12,-1.00627844872077e-11,2.8131838844099e-12)
(-3.03998525170295e-12,-1.58296753362979e-11,2.17593952552996e-12)
(-3.88399372775774e-12,-2.54526297799181e-11,1.51714896603739e-12)
(-4.11092345127081e-12,-4.15472682158292e-11,7.82427055382873e-13)
(-3.78156256479954e-12,-6.6572540144237e-11,2.77652308636988e-14)
(-4.36658377853927e-12,-1.09173509586782e-10,-2.06119301856607e-13)
(-4.90834891963278e-12,-1.81869169451435e-10,-2.18381006526336e-13)
(-4.98862124643236e-12,-2.83871772741465e-10,-1.82741073813858e-13)
(0,0,0)
(0,0,0)
(0,0,0)
(0,0,0)
(0,0,0)
(0,0,0)
(-1.37571704635042e-12,-1.68672889719796e-12,6.54329590722488e-12)
(-2.05106811846558e-12,-4.6689700650531e-12,6.3850679322274e-12)
(-3.39047033960326e-12,-8.60896259597304e-12,5.87881847888507e-12)
(-4.75596586780179e-12,-1.44603594389084e-11,4.86841236933508e-12)
(-6.36377756331194e-12,-2.43475794824075e-11,3.68068103208722e-12)
(-6.88012058337107e-12,-4.04803926941357e-11,2.45836596047377e-12)
(-6.3902310709714e-12,-6.61994184048899e-11,1.35111079905394e-12)
(-6.97763445921855e-12,-1.09465207938918e-10,7.9926733362204e-13)
(-7.33183636785386e-12,-1.82246435091266e-10,6.41074517475813e-13)
(-6.8290967821913e-12,-2.84455766441327e-10,3.33362048548321e-13)
(0,0,0)
(0,0,0)
(0,0,0)
(0,0,0)
(0,0,0)
(0,0,0)
(1.52192110199078e-13,-1.04815707956719e-12,9.97016346508615e-12)
(1.22993634631545e-13,-3.27846047438316e-12,1.03759733629957e-11)
(-1.86177756819072e-12,-6.71971228653648e-12,1.00043232553116e-11)
(-4.14204364486787e-12,-1.27557600688289e-11,9.07584820795304e-12)
(-6.23681452223457e-12,-2.28667069222041e-11,7.76829818287283e-12)
(-6.98779177288588e-12,-3.92302764420097e-11,5.9967634034081e-12)
(-6.87299709696051e-12,-6.57045341738618e-11,4.31737070570587e-12)
(-6.29063392554587e-12,-1.09886391163041e-10,3.02875963383545e-12)
(-5.46218614181364e-12,-1.82534195242311e-10,2.31356469291555e-12)
(-4.43918028084682e-12,-2.84896548930001e-10,1.34300038729987e-12)
(0,0,0)
(0,0,0)
(0,0,0)
(0,0,0)
(0,0,0)
(0,0,0)
(1.56751225447979e-12,-7.5428901262723e-13,1.4952239752236e-11)
(1.66617039796153e-12,-1.89153890964299e-12,1.54226030269399e-11)
(-1.19213263063612e-12,-4.61093831539512e-12,1.52664290839062e-11)
(-3.40503278083849e-12,-1.06291985815564e-11,1.48306282098267e-11)
(-5.30240709472049e-12,-2.03957868855247e-11,1.37296946351879e-11)
(-5.29128142728467e-12,-3.70926942362993e-11,1.16279163365087e-11)
(-3.99602308361737e-12,-6.46361005425504e-11,9.55685758818606e-12)
(-2.30401175933569e-12,-1.10301350457651e-10,7.5947707599398e-12)
(-7.00666320336108e-13,-1.82945814579307e-10,5.24244734655857e-12)
(1.05934334133009e-12,-2.85316688641106e-10,2.63906916016247e-12)
(0,0,0)
(0,0,0)
(0,0,0)
(0,0,0)
(0,0,0)
(0,0,0)
(2.28108310818684e-12,-4.04210279753309e-13,2.25412374662698e-11)
(3.01059117456962e-12,-7.47329334052625e-13,2.3333694331476e-11)
(1.73607339305864e-13,-3.11644641086093e-12,2.40800406518236e-11)
(-2.03139187775071e-12,-8.6001140135974e-12,2.45883404431921e-11)
(-3.50152793675028e-12,-1.73068442062902e-11,2.40760287981005e-11)
(-2.23252728205599e-12,-3.37863190723374e-11,2.25102629754402e-11)
(1.65119539314344e-12,-6.2491077536715e-11,2.06326277663058e-11)
(4.59933749996923e-12,-1.0966448740708e-10,1.6957698316387e-11)
(7.14695620706234e-12,-1.82624293505499e-10,1.21156225832483e-11)
(9.60326585013441e-12,-2.84844987987488e-10,6.31354484635543e-12)
(0,0,0)
(0,0,0)
(0,0,0)
(0,0,0)
(0,0,0)
(0,0,0)
(1.79122116340885e-12,-1.59277387398919e-13,3.71194532656028e-11)
(2.63519239062794e-12,-1.55367011910202e-13,3.78352444994017e-11)
(9.99370013645224e-13,-2.19201893995269e-12,3.86537664707356e-11)
(-6.66194171722963e-13,-6.55367545050517e-12,3.95489871818396e-11)
(-2.04177613962949e-12,-1.42740521606194e-11,3.99585374192903e-11)
(1.07380628407315e-13,-3.03459405976137e-11,3.89571539629473e-11)
(6.02580570959487e-12,-5.96815479192437e-11,3.62466235924613e-11)
(1.10942448223956e-11,-1.06851705060598e-10,3.03150694424322e-11)
(1.44524140959647e-11,-1.79063404381417e-10,2.17280542323494e-11)
(1.70127060686883e-11,-2.80276783068106e-10,1.14803707447658e-11)
(0,0,0)
(0,0,0)
(0,0,0)
(0,0,0)
(0,0,0)
(0,0,0)
(9.60925316976155e-13,-1.1688070935643e-13,6.29189148311339e-11)
(1.11278775092335e-12,1.55925152596419e-13,6.3610332102849e-11)
(1.0610299086621e-12,-1.49789858243053e-12,6.46270197382502e-11)
(6.4918437921341e-13,-5.11996531995951e-12,6.56804300140123e-11)
(-2.3054498193477e-13,-1.20497315279458e-11,6.61316050060617e-11)
(2.37804358334468e-12,-2.67298211570727e-11,6.45510998603696e-11)
(9.00521789051409e-12,-5.48744339274786e-11,6.00440824506835e-11)
(1.5629857502354e-11,-1.0013019618983e-10,5.1993808167154e-11)
(2.06431406030599e-11,-1.70603599498107e-10,3.84468630265935e-11)
(2.32137970962148e-11,-2.69708949665279e-10,2.0795219224013e-11)
(0,0,0)
(0,0,0)
(0,0,0)
(0,0,0)
(0,0,0)
(0,0,0)
(8.19078131990584e-13,-2.48097892321729e-13,1.07879277686646e-10)
(9.2013900633315e-13,-2.41117230795988e-13,1.08326753362834e-10)
(9.77263027453132e-13,-1.32416160475218e-12,1.09124387155153e-10)
(9.31476275380542e-13,-4.0765893383659e-12,1.09846310723786e-10)
(9.74922050982536e-13,-1.01759359485233e-11,1.10072904437635e-10)
(4.28242220886593e-12,-2.29764484625063e-11,1.07894387951777e-10)
(1.10358906520723e-11,-4.73895134174998e-11,1.01837540219295e-10)
(1.72021146366465e-11,-8.76085581280607e-11,9.00027571655756e-11)
(2.31381658364557e-11,-1.53742234306489e-10,6.94900157198681e-11)
(2.63811051496537e-11,-2.49283563546056e-10,3.93139268875562e-11)
(0,0,0)
(0,0,0)
(0,0,0)
(0,0,0)
(0,0,0)
(0,0,0)
(-2.26249668830068e-13,5.30306700519718e-14,1.80454914291021e-10)
(-3.06855974533396e-13,-8.76235322714762e-14,1.81107010118244e-10)
(-3.57916628800179e-13,-9.83137297089014e-13,1.82079735653179e-10)
(1.29351006846947e-12,-3.26100298883653e-12,1.82427010800488e-10)
(2.86095562619329e-12,-7.98819954640235e-12,1.820227729302e-10)
(6.31762682545965e-12,-1.75255068027614e-11,1.78804920303823e-10)
(1.23702039601884e-11,-3.59694377786798e-11,1.70917639731746e-10)
(1.86090317653037e-11,-6.77885122823395e-11,1.54700618747501e-10)
(2.47248123281018e-11,-1.24020621963336e-10,1.25265880902663e-10)
(2.74687320773869e-11,-2.10612694576316e-10,7.55043449651582e-11)
(0,0,0)
(0,0,0)
(0,0,0)
(0,0,0)
(0,0,0)
(0,0,0)
(-2.44066719081002e-12,3.38344939558456e-14,2.84040510134928e-10)
(-2.46135649351978e-12,-1.10766360334633e-13,2.84304979664267e-10)
(-2.30213402309314e-12,-6.34238690306903e-13,2.84873432928684e-10)
(4.42343514076814e-13,-1.86254738867431e-12,2.84537003502056e-10)
(2.96786068581993e-12,-4.65787687744712e-12,2.83343073710128e-10)
(6.75160312623447e-12,-9.8024021722626e-12,2.78916493049578e-10)
(1.21701168937625e-11,-1.96713684010352e-11,2.69237021308565e-10)
(1.78939258359592e-11,-3.82480688615704e-11,2.49747743382011e-10)
(2.34483709960683e-11,-7.43641375229249e-11,2.11825337657317e-10)
(2.52250212001672e-11,-1.36012371853512e-10,1.37333899637038e-10)
(0,0,0)
(0,0,0)
(0,0,0)
(0,0,0)
(0,0,0)
(0,0,0)
(0,0,0)
(0,0,0)
(0,0,0)
(0,0,0)
(0,0,0)
(0,0,0)
(0,0,0)
(0,0,0)
(0,0,0)
(0,0,0)
(0,0,0)
(0,0,0)
(0,0,0)
(0,0,0)
(0,0,0)
(0,0,0)
(0,0,0)
(0,0,0)
(0,0,0)
(0,0,0)
(0,0,0)
(0,0,0)
(0,0,0)
(0,0,0)
(0,0,0)
(0,0,0)
(0,0,0)
(0,0,0)
(0,0,0)
(0,0,0)
(0,0,0)
(0,0,0)
(0,0,0)
(0,0,0)
(0,0,0)
(0,0,0)
(0,0,0)
(0,0,0)
(0,0,0)
(0,0,0)
(0,0,0)
(0,0,0)
(0,0,0)
(0,0,0)
(0,0,0)
(0,0,0)
(0,0,0)
(0,0,0)
(0,0,0)
(0,0,0)
(0,0,0)
(0,0,0)
(0,0,0)
(0,0,0)
(0,0,0)
(0,0,0)
(0,0,0)
(0,0,0)
(0,0,0)
(0,0,0)
(0,0,0)
(0,0,0)
(0,0,0)
(0,0,0)
(0,0,0)
(0,0,0)
(0,0,0)
(0,0,0)
(0,0,0)
(0,0,0)
(0,0,0)
(0,0,0)
(0,0,0)
(0,0,0)
(0,0,0)
(0,0,0)
(0,0,0)
(0,0,0)
(0,0,0)
(0,0,0)
(0,0,0)
(0,0,0)
(0,0,0)
(0,0,0)
(0,0,0)
(0,0,0)
(0,0,0)
(0,0,0)
(0,0,0)
(0,0,0)
(0,0,0)
(0,0,0)
(0,0,0)
(0,0,0)
(0,0,0)
(0,0,0)
(-7.34577790433401e-13,-3.32208616461523e-12,7.22082691473409e-12)
(-1.68274931857243e-12,-9.27430973356772e-12,7.1028540147065e-12)
(-2.78867425883867e-12,-1.68148457819035e-11,6.21900116018574e-12)
(-3.75051058961479e-12,-2.74722462076655e-11,4.9788280566593e-12)
(-4.25432211465765e-12,-4.46976359127339e-11,3.65758950502198e-12)
(-4.42313714839304e-12,-7.27773678361163e-11,2.00336658563914e-12)
(-3.92079977131685e-12,-1.15876467132822e-10,2.89921388230012e-13)
(-4.06262372193712e-12,-1.90616015983575e-10,-5.09587789095715e-15)
(-4.56672321292541e-12,-3.3630834822797e-10,1.24262246914027e-13)
(-4.5873686208591e-12,-6.69890001294641e-10,2.01251837604476e-14)
(0,0,0)
(0,0,0)
(0,0,0)
(0,0,0)
(0,0,0)
(0,0,0)
(-1.85606088898458e-12,-2.65043903126695e-12,1.45775929574129e-11)
(-2.93532825577923e-12,-7.56666639567264e-12,1.41921769164003e-11)
(-4.26931453950971e-12,-1.51008458314644e-11,1.27366820100714e-11)
(-5.27283390063672e-12,-2.62720943288114e-11,1.03302672760604e-11)
(-6.62233505189315e-12,-4.36441432293589e-11,7.51007707197623e-12)
(-7.02298167409409e-12,-7.18371305510686e-11,4.51663997080038e-12)
(-6.33327183671951e-12,-1.16309101193888e-10,1.97743726946163e-12)
(-6.39825841857022e-12,-1.92058337230636e-10,1.32014499632628e-12)
(-6.73636374738046e-12,-3.37888372767341e-10,1.1501173859754e-12)
(-6.05495224489745e-12,-6.71404229197748e-10,6.04188653291782e-13)
(0,0,0)
(0,0,0)
(0,0,0)
(0,0,0)
(0,0,0)
(0,0,0)
(-5.47485854649453e-13,-1.95979355466335e-12,2.09577145932038e-11)
(-8.92277822420775e-13,-5.6035167449858e-12,2.09377683050703e-11)
(-3.04207649195036e-12,-1.24793722926724e-11,1.98011261028898e-11)
(-4.96105510706608e-12,-2.34953759140051e-11,1.7377050312041e-11)
(-6.9361997795032e-12,-4.06540735641353e-11,1.40758025499014e-11)
(-7.44598128089252e-12,-6.94313708963287e-11,9.66125811626893e-12)
(-6.65281965638319e-12,-1.16025379624344e-10,5.55245187397646e-12)
(-5.16047969020032e-12,-1.93691422472396e-10,3.98625572561662e-12)
(-4.08000249931481e-12,-3.39720028135634e-10,3.51783101444099e-12)
(-2.67604018252976e-12,-6.73155937101704e-10,2.22612244939869e-12)
(0,0,0)
(0,0,0)
(0,0,0)
(0,0,0)
(0,0,0)
(0,0,0)
(7.47070246901812e-13,-1.5398031331138e-12,2.99246790369474e-11)
(6.78134765403065e-13,-3.62875436363221e-12,2.99189571529202e-11)
(-2.25082366109861e-12,-9.10011616091113e-12,2.93337754023305e-11)
(-4.33318377415374e-12,-1.91920187580814e-11,2.7870356947635e-11)
(-6.289571475281e-12,-3.52096045084665e-11,2.52171081371734e-11)
(-6.52659784290203e-12,-6.43587523973954e-11,2.02992864624689e-11)
(-4.17895926121002e-12,-1.13995004848547e-10,1.51216059223053e-11)
(-5.88551396481806e-13,-1.9509647759215e-10,1.1780533668272e-11)
(1.58119079283959e-12,-3.41168220593526e-10,8.62179981045529e-12)
(3.22671184867577e-12,-6.7408282435684e-10,4.56916611275317e-12)
(0,0,0)
(0,0,0)
(0,0,0)
(0,0,0)
(0,0,0)
(0,0,0)
(1.24369335062606e-12,-7.56332134579174e-13,4.42649649185778e-11)
(1.67228253207859e-12,-1.71819212517494e-12,4.4554099377422e-11)
(-1.25911992297364e-12,-6.00910203702188e-12,4.50053931376891e-11)
(-3.56551879576297e-12,-1.43725751589812e-11,4.4734806641072e-11)
(-4.96855415973834e-12,-2.8110131277403e-11,4.31158482942397e-11)
(-3.79527054769924e-12,-5.60658363101505e-11,4.0258182028154e-11)
(2.51659522563859e-12,-1.07644299729568e-10,3.82330608808998e-11)
(6.62863088676088e-12,-1.93908900085664e-10,2.96308104825487e-11)
(9.38814481962564e-12,-3.40272132254074e-10,2.05461838128859e-11)
(1.13486057766403e-11,-6.72676900588207e-10,1.07118722933515e-11)
(0,0,0)
(0,0,0)
(0,0,0)
(0,0,0)
(0,0,0)
(0,0,0)
(1.03303325156826e-12,9.37784846584443e-14,6.830245793103e-11)
(1.505378254783e-12,-1.09154145342451e-13,6.8731675519777e-11)
(-5.89971054984985e-13,-3.13217682377866e-12,6.97099227047543e-11)
(-2.50945453970811e-12,-9.26685216174989e-12,7.04805078480446e-11)
(-3.2647133159468e-12,-2.10610060612139e-11,7.06477699561235e-11)
(-7.98208441690575e-13,-4.84296117845038e-11,6.9437860044286e-11)
(7.15024586789999e-12,-1.02960670873189e-10,6.69662550802045e-11)
(1.29597511616312e-11,-1.89197010027122e-10,5.50772502671877e-11)
(1.62402927001827e-11,-3.34124047869166e-10,3.88538228321376e-11)
(1.79252434112808e-11,-6.64976071126339e-10,2.0343551070551e-11)
(0,0,0)
(0,0,0)
(0,0,0)
(0,0,0)
(0,0,0)
(0,0,0)
(4.00725228225161e-13,4.22927812368412e-13,1.10376096613313e-10)
(4.93142498916644e-13,6.75242674531257e-13,1.11214791143141e-10)
(-1.66117344774387e-13,-1.31390886443762e-12,1.12698180462752e-10)
(-8.4536659443669e-13,-6.03646882651003e-12,1.14158986923333e-10)
(-5.23835415636162e-13,-1.57523012538146e-11,1.15222122992545e-10)
(3.13168829848727e-12,-4.04650297796844e-11,1.1419586568697e-10)
(9.57057166405333e-12,-9.47941323478845e-11,1.070903592292e-10)
(1.66551645810196e-11,-1.77220797209183e-10,9.35745717040065e-11)
(2.14334192140008e-11,-3.1892983466908e-10,6.84484719634983e-11)
(2.35836302013388e-11,-6.47054919128778e-10,3.67524057439442e-11)
(0,0,0)
(0,0,0)
(0,0,0)
(0,0,0)
(0,0,0)
(0,0,0)
(7.04738934284378e-14,6.83166753628166e-14,1.87366729098219e-10)
(-3.09884845086067e-14,1.64257519012235e-13,1.8798939108955e-10)
(-8.56848488395206e-14,-9.1706610532987e-13,1.89140830197437e-10)
(-1.10703788003444e-13,-4.71905109778329e-12,1.90572896533943e-10)
(9.65702134694496e-13,-1.3479525758584e-11,1.91544191066371e-10)
(4.88832828163284e-12,-3.61758218962961e-11,1.89640107678561e-10)
(1.14505980670188e-11,-8.23163417485355e-11,1.80921522718835e-10)
(1.78948102364906e-11,-1.54389849472985e-10,1.59371950248663e-10)
(2.35926423257707e-11,-2.89050153933264e-10,1.22517710846094e-10)
(2.70241630670965e-11,-6.11815792025685e-10,6.95586805767054e-11)
(0,0,0)
(0,0,0)
(0,0,0)
(0,0,0)
(0,0,0)
(0,0,0)
(-8.59149319957095e-13,-6.57265697913325e-14,3.33742057117207e-10)
(-1.25643868140425e-12,-1.17913529175916e-13,3.34336114976169e-10)
(-1.05409038288779e-12,-9.44741611004724e-13,3.35286010432483e-10)
(2.99292338604028e-13,-4.00441814649279e-12,3.35625386368408e-10)
(2.74848558362479e-12,-1.09496364019786e-11,3.34977368759462e-10)
(6.48180276702209e-12,-2.84120633545845e-11,3.30882624347681e-10)
(1.22891555668027e-11,-6.20055649820964e-11,3.18529708902632e-10)
(1.85033261893598e-11,-1.19170880411115e-10,2.90376872183364e-10)
(2.48298638251992e-11,-2.37132439508872e-10,2.38585161627206e-10)
(2.83727543195036e-11,-5.43162314541984e-10,1.49089276919436e-10)
(0,0,0)
(0,0,0)
(0,0,0)
(0,0,0)
(0,0,0)
(0,0,0)
(-2.671302226193e-12,-3.05389322083837e-13,6.69698506210516e-10)
(-3.14057611827177e-12,-3.37990546822424e-13,6.69443342708846e-10)
(-2.59994328677471e-12,-7.34816852504266e-13,6.69593783595218e-10)
(-2.26274082670072e-13,-2.30436219476771e-12,6.68963534054051e-10)
(2.736564468916e-12,-6.47597846704562e-12,6.67181080389055e-10)
(6.62867269497016e-12,-1.61447559746151e-11,6.6064524612319e-10)
(1.19880264192536e-11,-3.39192097299785e-11,6.44785639069063e-10)
(1.7568262699121e-11,-6.77133541257946e-11,6.11643563473393e-10)
(2.3575671493418e-11,-1.47937893904847e-10,5.44096999509742e-10)
(2.65465489837981e-11,-3.94543709064733e-10,3.9574805704468e-10)
(0,0,0)
(0,0,0)
(0,0,0)
(0,0,0)
(0,0,0)
(0,0,0)
(0,0,0)
(0,0,0)
(0,0,0)
(0,0,0)
(0,0,0)
(0,0,0)
(0,0,0)
(0,0,0)
(0,0,0)
(0,0,0)
(0,0,0)
(0,0,0)
(0,0,0)
(0,0,0)
(0,0,0)
(0,0,0)
(0,0,0)
(0,0,0)
(0,0,0)
(0,0,0)
(0,0,0)
(0,0,0)
(0,0,0)
(0,0,0)
(0,0,0)
(0,0,0)
(0,0,0)
(0,0,0)
(0,0,0)
(0,0,0)
(0,0,0)
(0,0,0)
(0,0,0)
(0,0,0)
(0,0,0)
(0,0,0)
(0,0,0)
(0,0,0)
(0,0,0)
(0,0,0)
(0,0,0)
(0,0,0)
(0,0,0)
(0,0,0)
(0,0,0)
(0,0,0)
(0,0,0)
(0,0,0)
(0,0,0)
(0,0,0)
(0,0,0)
(0,0,0)
(0,0,0)
(0,0,0)
(0,0,0)
(0,0,0)
(0,0,0)
(0,0,0)
(0,0,0)
(0,0,0)
(0,0,0)
(0,0,0)
(0,0,0)
(0,0,0)
(0,0,0)
(0,0,0)
(0,0,0)
(0,0,0)
(0,0,0)
(0,0,0)
(0,0,0)
(0,0,0)
(0,0,0)
(0,0,0)
(0,0,0)
(0,0,0)
(0,0,0)
(0,0,0)
(0,0,0)
(0,0,0)
(0,0,0)
(0,0,0)
(0,0,0)
(0,0,0)
(0,0,0)
(0,0,0)
(0,0,0)
(0,0,0)
(0,0,0)
(0,0,0)
(0,0,0)
(0,0,0)
(0,0,0)
(0,0,0)
(0,0,0)
(0,0,0)
(-1.28825202405899e-12,-4.34967809369413e-12,9.58558499435693e-12)
(-2.50653980225926e-12,-1.13929099460771e-11,9.13256040667985e-12)
(-3.26250110478895e-12,-2.10668279040253e-11,7.94775650135602e-12)
(-3.62942391723173e-12,-3.60815565104693e-11,6.37752002207375e-12)
(-3.65359187847744e-12,-5.78158679328861e-11,4.28928976298984e-12)
(-3.64992923584302e-12,-8.97070197300591e-11,1.38917820293207e-12)
(-3.19314844474023e-12,-1.353726474579e-10,-1.12891748109174e-12)
(-2.74966059994935e-12,-2.04264872856911e-10,-1.16267960716259e-12)
(-2.88256160990438e-12,-3.03591258804969e-10,-5.1656328852428e-13)
(-3.05301553487198e-12,-4.25207142769296e-10,-2.56674939788253e-13)
(0,0,0)
(0,0,0)
(0,0,0)
(0,0,0)
(0,0,0)
(0,0,0)
(-2.16129032466279e-12,-3.67408255126012e-12,1.89457917269104e-11)
(-3.44298300036482e-12,-9.79545438145344e-12,1.80344512234543e-11)
(-4.48437334594754e-12,-1.91836757549222e-11,1.61463942267953e-11)
(-5.22936211077614e-12,-3.42981894561469e-11,1.30950258481504e-11)
(-6.61896761545481e-12,-5.5700262428585e-11,8.62718521437745e-12)
(-6.88953862781932e-12,-8.79721353136568e-11,2.9504608457077e-12)
(-5.95970113344757e-12,-1.36023401027987e-10,-1.81986431600912e-12)
(-4.59514556584429e-12,-2.06122937794726e-10,-2.09200302814002e-12)
(-4.35877964599238e-12,-3.05668322292068e-10,-7.08982026061649e-13)
(-3.69905568739682e-12,-4.27175487352379e-10,-2.19452769100509e-14)
(0,0,0)
(0,0,0)
(0,0,0)
(0,0,0)
(0,0,0)
(0,0,0)
(-9.47529989772747e-13,-2.84188752442741e-12,2.8240095172055e-11)
(-1.73039800065881e-12,-7.51653129191127e-12,2.75118304556838e-11)
(-3.99725683248198e-12,-1.5725385077098e-11,2.58081582203835e-11)
(-5.96316450125148e-12,-2.9759568464891e-11,2.21525242425636e-11)
(-7.96612440193995e-12,-5.03605839583874e-11,1.62248008109245e-11)
(-8.40979353729895e-12,-8.37051291894111e-11,7.65795783601027e-12)
(-7.11699828390116e-12,-1.36712195999363e-10,-1.20240006907752e-12)
(-3.28699985938827e-12,-2.09981143644999e-10,-1.54990525059182e-12)
(-1.34010147534492e-12,-3.09586029986284e-10,7.40606365646533e-13)
(4.7696952132449e-13,-4.3030651084223e-10,1.34075547561595e-12)
(0,0,0)
(0,0,0)
(0,0,0)
(0,0,0)
(0,0,0)
(0,0,0)
(-3.0678868032609e-14,-1.81649290940271e-12,4.03522449214379e-11)
(-6.472457216302e-13,-4.69047000006536e-12,3.98291696326709e-11)
(-3.87841933102916e-12,-1.10149678845665e-11,3.84498282742672e-11)
(-6.4993785638771e-12,-2.28417508547351e-11,3.52590186183844e-11)
(-8.47122303135004e-12,-4.09057613411004e-11,2.97430385578949e-11)
(-9.64183338907637e-12,-7.38288188273671e-11,1.9954697486699e-11)
(-7.18859212592742e-12,-1.35291475903258e-10,6.68477123053432e-12)
(1.38260495456402e-12,-2.15511713167763e-10,6.02080520633283e-12)
(4.73773615191807e-12,-3.14092297946913e-10,6.20074673322272e-12)
(6.3899541914895e-12,-4.32956814205915e-10,3.89189039882818e-12)
(0,0,0)
(0,0,0)
(0,0,0)
(0,0,0)
(0,0,0)
(0,0,0)
(1.04448271837991e-13,-7.27235076903653e-13,5.83098682136446e-11)
(-3.8804920719722e-13,-1.92220826405471e-12,5.80628665405323e-11)
(-3.86545864093228e-12,-6.05941177148008e-12,5.76370752581684e-11)
(-7.05228344609315e-12,-1.45271227289714e-11,5.58510056741502e-11)
(-9.16001310824575e-12,-2.7566803478041e-11,5.22520006575432e-11)
(-9.40637392714144e-12,-5.42976590407367e-11,4.79602462284915e-11)
(6.43521676653616e-12,-1.15896217572265e-10,5.70601134475274e-11)
(1.10013674976412e-11,-2.19596281516305e-10,3.60189181290882e-11)
(1.30743719559856e-11,-3.16571803014087e-10,2.34397918663257e-11)
(1.43596486077424e-11,-4.33557508529734e-10,1.20793801272879e-11)
(0,0,0)
(0,0,0)
(0,0,0)
(0,0,0)
(0,0,0)
(0,0,0)
(2.74666335347275e-13,3.87441202170281e-13,8.53288029413296e-11)
(-2.57265750329458e-13,2.70782033923788e-13,8.5589953927743e-11)
(-3.17882415746106e-12,-1.81111155846559e-12,8.62779539276426e-11)
(-5.90709998183911e-12,-6.61143258771775e-12,8.62518990461772e-11)
(-7.36350821221995e-12,-1.53428948487728e-11,8.55791116402446e-11)
(-6.29118548278454e-12,-4.05792806396995e-11,8.50010460618809e-11)
(1.08727121566601e-11,-1.18441267196451e-10,9.54629838689437e-11)
(1.72069657778489e-11,-2.17883189127055e-10,7.26236911438309e-11)
(1.955635126225e-11,-3.11118186574231e-10,4.87440514300114e-11)
(2.0347642483765e-11,-4.25788396760131e-10,2.491266531218e-11)
(0,0,0)
(0,0,0)
(0,0,0)
(0,0,0)
(0,0,0)
(0,0,0)
(-8.33581628682497e-14,7.99749899473522e-13,1.28483815182072e-10)
(-4.7926166710307e-13,1.09834276187146e-12,1.29345862983623e-10)
(-2.0237665642814e-12,6.34771560554363e-13,1.30809735993719e-10)
(-3.22592039228971e-12,-1.53547140917329e-12,1.32571915307427e-10)
(-1.77035360523447e-12,-5.52276897418524e-12,1.35478810867033e-10)
(5.94798687339373e-12,-2.27694882720179e-11,1.4102551540928e-10)
(1.06085685895768e-11,-1.13496644374221e-10,1.30449555314757e-10)
(1.89503165843914e-11,-2.05154624773709e-10,1.22938190761132e-10)
(2.32498046984146e-11,-2.92811763207193e-10,8.41864577931268e-11)
(2.50969088419857e-11,-4.04607676339701e-10,4.32701832231324e-11)
(0,0,0)
(0,0,0)
(0,0,0)
(0,0,0)
(0,0,0)
(0,0,0)
(-4.18144851830814e-13,4.96979964332551e-13,1.96898356007287e-10)
(-9.00256544036523e-13,8.55211652895052e-13,1.9770252850163e-10)
(-1.49007568046931e-12,1.13679183055189e-12,1.9915400553155e-10)
(-1.79663127087266e-12,-1.03350324322309e-12,2.01668734902184e-10)
(3.39896165238415e-13,-7.49629591126778e-12,2.04877155799412e-10)
(5.84315469986547e-12,-3.20807000587444e-11,2.0932149762413e-10)
(1.26893937703009e-11,-1.00885068144175e-10,2.08203448031634e-10)
(1.9530080576666e-11,-1.69989181679327e-10,1.77435762220795e-10)
(2.46339581706279e-11,-2.54606041600622e-10,1.28961518889706e-10)
(2.79293661608584e-11,-3.63638997779933e-10,6.96066093158723e-11)
(0,0,0)
(0,0,0)
(0,0,0)
(0,0,0)
(0,0,0)
(0,0,0)
(-1.21354442724838e-12,2.78121963198664e-13,2.97611426937153e-10)
(-1.98625712047418e-12,4.19672461815169e-13,2.98341390782571e-10)
(-1.60339107605588e-12,3.68939989833429e-13,2.99201642865392e-10)
(-7.52746004671554e-13,-1.9172029290966e-12,3.00255795298638e-10)
(2.36957206101759e-12,-8.6782284515572e-12,3.00785463317578e-10)
(6.56741083203138e-12,-2.92551554588656e-11,2.9973782023604e-10)
(1.23556370343331e-11,-7.13047152298545e-11,2.89451130201208e-10)
(1.88375104585832e-11,-1.23602074878951e-10,2.55164654270633e-10)
(2.51312029302455e-11,-1.96467995126723e-10,1.97392267307449e-10)
(2.88434257612938e-11,-2.9495070293883e-10,1.13388768906813e-10)
(0,0,0)
(0,0,0)
(0,0,0)
(0,0,0)
(0,0,0)
(0,0,0)
(-2.72152804779059e-12,-2.83615532620424e-14,4.21495310150441e-10)
(-3.62900755131843e-12,1.17081697505307e-13,4.21311018623888e-10)
(-2.70451059803614e-12,1.2520610117442e-13,4.21233184435593e-10)
(-7.48182612194327e-13,-1.32529211900899e-12,4.21097883616062e-10)
(2.79642026788166e-12,-5.81637828564532e-12,4.19809071169715e-10)
(6.34352377358725e-12,-1.72213776522745e-11,4.14664198197646e-10)