/*--------------------------------*- C++ -*----------------------------------*\
| =========                 |                                                 |
| \\      /  F ield         | foam-extend: Open Source CFD                    |
|  \\    /   O peration     | Version:     4.0                                |
|   \\  /    A nd           | Web:         http://www.foam-extend.org         |
|    \\/     M anipulation  |                                                 |
\*---------------------------------------------------------------------------*/
FoamFile
{
    version 2.0;
    format ascii;
    class volVectorField;
    location "Data/3549";
    object      E;
}
// * * * * * * * * * * * * * * * * * * * * * * * * * * * * * * * * * * * * * //

dimensions      [0 1 -1 0 0 0 0];

internalField   nonuniform List<vector>
4096
(
(0,0,0)
(0,0,0)
(0,0,0)
(0,0,0)
(0,0,0)
(0,0,0)
(0,0,0)
(0,0,0)
(0,0,0)
(0,0,0)
(0,0,0)
(0,0,0)
(0,0,0)
(0,0,0)
(0,0,0)
(0,0,0)
(0,0,0)
(0,0,0)
(0,0,0)
(0,0,0)
(0,0,0)
(0,0,0)
(0,0,0)
(0,0,0)
(0,0,0)
(0,0,0)
(0,0,0)
(0,0,0)
(0,0,0)
(0,0,0)
(0,0,0)
(0,0,0)
(0,0,0)
(0,0,0)
(0,0,0)
(0,0,0)
(0,0,0)
(0,0,0)
(0,0,0)
(0,0,0)
(0,0,0)
(0,0,0)
(0,0,0)
(0,0,0)
(0,0,0)
(0,0,0)
(0,0,0)
(0,0,0)
(0,0,0)
(0,0,0)
(0,0,0)
(0,0,0)
(0,0,0)
(0,0,0)
(0,0,0)
(0,0,0)
(0,0,0)
(0,0,0)
(0,0,0)
(0,0,0)
(0,0,0)
(0,0,0)
(0,0,0)
(0,0,0)
(0,0,0)
(0,0,0)
(0,0,0)
(0,0,0)
(0,0,0)
(0,0,0)
(0,0,0)
(0,0,0)
(0,0,0)
(0,0,0)
(0,0,0)
(0,0,0)
(0,0,0)
(0,0,0)
(0,0,0)
(0,0,0)
(0,0,0)
(0,0,0)
(0,0,0)
(0,0,0)
(0,0,0)
(0,0,0)
(0,0,0)
(0,0,0)
(0,0,0)
(0,0,0)
(0,0,0)
(0,0,0)
(0,0,0)
(0,0,0)
(0,0,0)
(0,0,0)
(0,0,0)
(0,0,0)
(0,0,0)
(0,0,0)
(0,0,0)
(0,0,0)
(0,0,0)
(0,0,0)
(0,0,0)
(0,0,0)
(0,0,0)
(0,0,0)
(0,0,0)
(0,0,0)
(0,0,0)
(0,0,0)
(0,0,0)
(0,0,0)
(0,0,0)
(0,0,0)
(0,0,0)
(0,0,0)
(0,0,0)
(0,0,0)
(0,0,0)
(0,0,0)
(0,0,0)
(0,0,0)
(0,0,0)
(0,0,0)
(0,0,0)
(0,0,0)
(0,0,0)
(0,0,0)
(0,0,0)
(0,0,0)
(0,0,0)
(0,0,0)
(0,0,0)
(0,0,0)
(0,0,0)
(0,0,0)
(0,0,0)
(0,0,0)
(0,0,0)
(0,0,0)
(0,0,0)
(0,0,0)
(0,0,0)
(0,0,0)
(0,0,0)
(0,0,0)
(0,0,0)
(0,0,0)
(0,0,0)
(0,0,0)
(0,0,0)
(0,0,0)
(0,0,0)
(0,0,0)
(0,0,0)
(0,0,0)
(0,0,0)
(0,0,0)
(0,0,0)
(0,0,0)
(0,0,0)
(0,0,0)
(0,0,0)
(0,0,0)
(0,0,0)
(0,0,0)
(0,0,0)
(0,0,0)
(0,0,0)
(0,0,0)
(0,0,0)
(0,0,0)
(0,0,0)
(0,0,0)
(0,0,0)
(0,0,0)
(0,0,0)
(0,0,0)
(0,0,0)
(0,0,0)
(0,0,0)
(0,0,0)
(0,0,0)
(0,0,0)
(0,0,0)
(0,0,0)
(0,0,0)
(0,0,0)
(0,0,0)
(0,0,0)
(0,0,0)
(0,0,0)
(0,0,0)
(0,0,0)
(0,0,0)
(0,0,0)
(0,0,0)
(0,0,0)
(0,0,0)
(0,0,0)
(0,0,0)
(0,0,0)
(0,0,0)
(0,0,0)
(0,0,0)
(0,0,0)
(0,0,0)
(0,0,0)
(0,0,0)
(0,0,0)
(0,0,0)
(0,0,0)
(0,0,0)
(0,0,0)
(0,0,0)
(0,0,0)
(0,0,0)
(0,0,0)
(0,0,0)
(0,0,0)
(0,0,0)
(0,0,0)
(0,0,0)
(0,0,0)
(0,0,0)
(0,0,0)
(0,0,0)
(0,0,0)
(0,0,0)
(0,0,0)
(0,0,0)
(0,0,0)
(0,0,0)
(0,0,0)
(0,0,0)
(0,0,0)
(0,0,0)
(0,0,0)
(0,0,0)
(0,0,0)
(0,0,0)
(0,0,0)
(0,0,0)
(0,0,0)
(0,0,0)
(0,0,0)
(0,0,0)
(0,0,0)
(0,0,0)
(0,0,0)
(0,0,0)
(0,0,0)
(0,0,0)
(0,0,0)
(0,0,0)
(0,0,0)
(0,0,0)
(0,0,0)
(0,0,0)
(0,0,0)
(0,0,0)
(0,0,0)
(0,0,0)
(0,0,0)
(0,0,0)
(0,0,0)
(0,0,0)
(0,0,0)
(0,0,0)
(0,0,0)
(0,0,0)
(0,0,0)
(0,0,0)
(0,0,0)
(0,0,0)
(0,0,0)
(0,0,0)
(0,0,0)
(0,0,0)
(0,0,0)
(0,0,0)
(0,0,0)
(0,0,0)
(0,0,0)
(0,0,0)
(0,0,0)
(0,0,0)
(0,0,0)
(0,0,0)
(0,0,0)
(0,0,0)
(0,0,0)
(0,0,0)
(0,0,0)
(0,0,0)
(0,0,0)
(0,0,0)
(0,0,0)
(0,0,0)
(0,0,0)
(0,0,0)
(0,0,0)
(0,0,0)
(0,0,0)
(0,0,0)
(0,0,0)
(0,0,0)
(0,0,0)
(0,0,0)
(0,0,0)
(0,0,0)
(0,0,0)
(0,0,0)
(0,0,0)
(0,0,0)
(0,0,0)
(0,0,0)
(0,0,0)
(0,0,0)
(0,0,0)
(0,0,0)
(0,0,0)
(0,0,0)
(0,0,0)
(0,0,0)
(0,0,0)
(0,0,0)
(0,0,0)
(0,0,0)
(0,0,0)
(0,0,0)
(0,0,0)
(0,0,0)
(0,0,0)
(0,0,0)
(0,0,0)
(0,0,0)
(0,0,0)
(0,0,0)
(0,0,0)
(0,0,0)
(0,0,0)
(0,0,0)
(0,0,0)
(0,0,0)
(0,0,0)
(0,0,0)
(0,0,0)
(0,0,0)
(0,0,0)
(0,0,0)
(0,0,0)
(0,0,0)
(0,0,0)
(0,0,0)
(0,0,0)
(0,0,0)
(0,0,0)
(0,0,0)
(0,0,0)
(0,0,0)
(0,0,0)
(0,0,0)
(0,0,0)
(0,0,0)
(0,0,0)
(0,0,0)
(0,0,0)
(0,0,0)
(0,0,0)
(0,0,0)
(0,0,0)
(0,0,0)
(0,0,0)
(0,0,0)
(0,0,0)
(0,0,0)
(0,0,0)
(0,0,0)
(0,0,0)
(0,0,0)
(0,0,0)
(0,0,0)
(0,0,0)
(0,0,0)
(0,0,0)
(0,0,0)
(0,0,0)
(0,0,0)
(0,0,0)
(0,0,0)
(0,0,0)
(0,0,0)
(0,0,0)
(0,0,0)
(0,0,0)
(0,0,0)
(0,0,0)
(0,0,0)
(0,0,0)
(0,0,0)
(0,0,0)
(0,0,0)
(0,0,0)
(0,0,0)
(0,0,0)
(0,0,0)
(0,0,0)
(0,0,0)
(0,0,0)
(0,0,0)
(0,0,0)
(0,0,0)
(0,0,0)
(0,0,0)
(0,0,0)
(0,0,0)
(0,0,0)
(0,0,0)
(0,0,0)
(0,0,0)
(0,0,0)
(0,0,0)
(0,0,0)
(0,0,0)
(0,0,0)
(0,0,0)
(0,0,0)
(0,0,0)
(0,0,0)
(0,0,0)
(0,0,0)
(0,0,0)
(0,0,0)
(0,0,0)
(0,0,0)
(0,0,0)
(0,0,0)
(0,0,0)
(0,0,0)
(0,0,0)
(0,0,0)
(0,0,0)
(0,0,0)
(0,0,0)
(0,0,0)
(0,0,0)
(0,0,0)
(0,0,0)
(0,0,0)
(0,0,0)
(0,0,0)
(0,0,0)
(0,0,0)
(0,0,0)
(0,0,0)
(0,0,0)
(0,0,0)
(0,0,0)
(0,0,0)
(0,0,0)
(0,0,0)
(0,0,0)
(0,0,0)
(0,0,0)
(0,0,0)
(0,0,0)
(0,0,0)
(0,0,0)
(0,0,0)
(0,0,0)
(0,0,0)
(0,0,0)
(0,0,0)
(0,0,0)
(0,0,0)
(0,0,0)
(0,0,0)
(0,0,0)
(0,0,0)
(0,0,0)
(0,0,0)
(0,0,0)
(0,0,0)
(0,0,0)
(0,0,0)
(0,0,0)
(0,0,0)
(0,0,0)
(0,0,0)
(0,0,0)
(0,0,0)
(0,0,0)
(0,0,0)
(0,0,0)
(0,0,0)
(0,0,0)
(0,0,0)
(0,0,0)
(0,0,0)
(0,0,0)
(0,0,0)
(0,0,0)
(0,0,0)
(0,0,0)
(0,0,0)
(0,0,0)
(0,0,0)
(0,0,0)
(0,0,0)
(0,0,0)
(0,0,0)
(0,0,0)
(0,0,0)
(0,0,0)
(0,0,0)
(0,0,0)
(0,0,0)
(0,0,0)
(0,0,0)
(0,0,0)
(0,0,0)
(0,0,0)
(0,0,0)
(0,0,0)
(0,0,0)
(0,0,0)
(0,0,0)
(0,0,0)
(0,0,0)
(0,0,0)
(0,0,0)
(0,0,0)
(0,0,0)
(0,0,0)
(0,0,0)
(0,0,0)
(0,0,0)
(0,0,0)
(0,0,0)
(0,0,0)
(0,0,0)
(0,0,0)
(0,0,0)
(0,0,0)
(0,0,0)
(0,0,0)
(0,0,0)
(0,0,0)
(0,0,0)
(0,0,0)
(0,0,0)
(0,0,0)
(0,0,0)
(0,0,0)
(0,0,0)
(0,0,0)
(0,0,0)
(0,0,0)
(0,0,0)
(0,0,0)
(0,0,0)
(0,0,0)
(0,0,0)
(0,0,0)
(0,0,0)
(0,0,0)
(0,0,0)
(0,0,0)
(0,0,0)
(0,0,0)
(0,0,0)
(0,0,0)
(0,0,0)
(0,0,0)
(0,0,0)
(0,0,0)
(0,0,0)
(0,0,0)
(0,0,0)
(0,0,0)
(0,0,0)
(0,0,0)
(0,0,0)
(0,0,0)
(0,0,0)
(0,0,0)
(0,0,0)
(0,0,0)
(0,0,0)
(0,0,0)
(0,0,0)
(0,0,0)
(0,0,0)
(0,0,0)
(0,0,0)
(0,0,0)
(0,0,0)
(0,0,0)
(0,0,0)
(0,0,0)
(0,0,0)
(0,0,0)
(0,0,0)
(0,0,0)
(0,0,0)
(0,0,0)
(0,0,0)
(0,0,0)
(0,0,0)
(0,0,0)
(0,0,0)
(0,0,0)
(0,0,0)
(0,0,0)
(0,0,0)
(0,0,0)
(0,0,0)
(0,0,0)
(0,0,0)
(0,0,0)
(0,0,0)
(0,0,0)
(0,0,0)
(0,0,0)
(0,0,0)
(0,0,0)
(0,0,0)
(0,0,0)
(0,0,0)
(0,0,0)
(0,0,0)
(0,0,0)
(0,0,0)
(0,0,0)
(0,0,0)
(0,0,0)
(0,0,0)
(0,0,0)
(0,0,0)
(0,0,0)
(0,0,0)
(0,0,0)
(0,0,0)
(0,0,0)
(0,0,0)
(0,0,0)
(0,0,0)
(0,0,0)
(0,0,0)
(0,0,0)
(0,0,0)
(0,0,0)
(0,0,0)
(0,0,0)
(0,0,0)
(0,0,0)
(0,0,0)
(0,0,0)
(0,0,0)
(0,0,0)
(0,0,0)
(0,0,0)
(0,0,0)
(0,0,0)
(0,0,0)
(0,0,0)
(0,0,0)
(0,0,0)
(0,0,0)
(0,0,0)
(0,0,0)
(0,0,0)
(0,0,0)
(0,0,0)
(0,0,0)
(0,0,0)
(0,0,0)
(0,0,0)
(0,0,0)
(0,0,0)
(0,0,0)
(0,0,0)
(0,0,0)
(0,0,0)
(0,0,0)
(0,0,0)
(0,0,0)
(0,0,0)
(0,0,0)
(0,0,0)
(0,0,0)
(0,0,0)
(0,0,0)
(0,0,0)
(0,0,0)
(0,0,0)
(0,0,0)
(0,0,0)
(0,0,0)
(0,0,0)
(0,0,0)
(0,0,0)
(0,0,0)
(0,0,0)
(0,0,0)
(0,0,0)
(0,0,0)
(0,0,0)
(0,0,0)
(0,0,0)
(0,0,0)
(0,0,0)
(0,0,0)
(0,0,0)
(0,0,0)
(0,0,0)
(0,0,0)
(0,0,0)
(0,0,0)
(0,0,0)
(0,0,0)
(0,0,0)
(0,0,0)
(0,0,0)
(0,0,0)
(0,0,0)
(0,0,0)
(0,0,0)
(0,0,0)
(0,0,0)
(0,0,0)
(0,0,0)
(0,0,0)
(0,0,0)
(0,0,0)
(0,0,0)
(0,0,0)
(0,0,0)
(0,0,0)
(0,0,0)
(0,0,0)
(0,0,0)
(0,0,0)
(0,0,0)
(0,0,0)
(0,0,0)
(0,0,0)
(0,0,0)
(0,0,0)
(0,0,0)
(0,0,0)
(0,0,0)
(0,0,0)
(0,0,0)
(0,0,0)
(0,0,0)
(0,0,0)
(0,0,0)
(0,0,0)
(0,0,0)
(0,0,0)
(0,0,0)
(0,0,0)
(0,0,0)
(0,0,0)
(0,0,0)
(0,0,0)
(0,0,0)
(0,0,0)
(0,0,0)
(0,0,0)
(0,0,0)
(0,0,0)
(0,0,0)
(0,0,0)
(0,0,0)
(0,0,0)
(0,0,0)
(0,0,0)
(0,0,0)
(0,0,0)
(0,0,0)
(0,0,0)
(0,0,0)
(0,0,0)
(0,0,0)
(0,0,0)
(0,0,0)
(0,0,0)
(0,0,0)
(0,0,0)
(0,0,0)
(0,0,0)
(0,0,0)
(0,0,0)
(0,0,0)
(0,0,0)
(0,0,0)
(0,0,0)
(0,0,0)
(0,0,0)
(0,0,0)
(0,0,0)
(0,0,0)
(0,0,0)
(0,0,0)
(0,0,0)
(0,0,0)
(0,0,0)
(0,0,0)
(0,0,0)
(0,0,0)
(0,0,0)
(0,0,0)
(0,0,0)
(0,0,0)
(-206391.0961884,109525.745796199,96865.3503921996)
(-218296.152895646,105020.995777615,210140.507510228)
(-245832.711189615,95626.3025762278,360346.916123611)
(-297817.252315278,80861.9008442052,577302.267594695)
(-391631.623553118,60917.9673633406,908015.923784472)
(-560062.366932113,37974.0871548984,1430104.20356169)
(-864973.752098746,17076.8008990924,2278001.15476136)
(-1416013.94768289,4253.5127473258,3689761.58969695)
(-2335435.23780476,-16.6050598587207,6025213.43256152)
(-3253944.17249278,-367.443157682297,9279525.04821206)
(0,0,0)
(0,0,0)
(0,0,0)
(0,0,0)
(0,0,0)
(0,0,0)
(-218262.123921791,235451.983216832,92335.8865011569)
(-230291.01301408,226937.011078818,200710.884214035)
(-258267.233421576,209096.589055059,345507.831156778)
(-311483.766617877,180558.660231108,557294.838387751)
(-407908.503164514,141104.426496996,885016.882418609)
(-580367.240854746,94159.8414721726,1409198.36895607)
(-888628.719870044,49721.0546286692,2265182.83509653)
(-1437554.61562291,21543.309919888,3685447.65354683)
(-2349786.32775614,10471.5698550067,6024745.80638816)
(-3260638.52022781,5324.93990517599,9279691.94355301)
(0,0,0)
(0,0,0)
(0,0,0)
(0,0,0)
(0,0,0)
(0,0,0)
(-245490.035589813,397137.789714579,83804.2290920656)
(-257721.106671463,385721.509416738,182740.837425613)
(-286585.320619999,361532.993765334,316889.753335343)
(-342472.920152021,322141.102984404,517780.230734067)
(-445055.451920759,265939.337723266,838000.771428544)
(-628174.459715645,195664.721599476,1364670.35101689)
(-947044.384366841,124474.615769132,2236961.17424328)
(-1491338.56682182,75578.8093264022,3674264.24165854)
(-2384430.16764783,49789.8333879037,6019376.14577353)
(-3276322.98227899,26962.9189020883,9274061.14905563)
(0,0,0)
(0,0,0)
(0,0,0)
(0,0,0)
(0,0,0)
(0,0,0)
(-296248.704608802,621018.863473974,72367.6308494079)
(-308681.877566449,608332.752116812,158438.265715785)
(-338663.643694885,581217.775432431,277417.127743565)
(-398416.513279798,536491.738170198,461483.005837559)
(-511148.242377573,470926.778573223,767643.807365188)
(-714772.676360437,384687.126853245,1293394.07847185)
(-1058953.32669973,288880.129503156,2187941.89143755)
(-1595424.31643211,210653.644829296,3648291.37236674)
(-2447925.35487474,149693.169346286,5996313.39128303)
(-3304010.98720974,80521.6147236785,9246765.6826714)
(0,0,0)
(0,0,0)
(0,0,0)
(0,0,0)
(0,0,0)
(0,0,0)
(-387224.438559217,948680.331619052,59562.9704141316)
(-399627.833040368,936364.927916661,131158.627654647)
(-430209.348957844,910034.392525993,232551.359518928)
(-493186.704544574,866470.439065209,395759.363168493)
(-616413.948994221,801865.622326275,681234.468409661)
(-845458.846650572,713958.375535331,1197422.06637813)
(-1229433.08482716,606172.581979639,2109562.69872881)
(-1753929.4696913,486973.766140045,3587172.0471094)
(-2540186.47017473,350076.288097032,5926975.39853348)
(-3344026.08622583,185533.512131245,9165989.58735175)
(0,0,0)
(0,0,0)
(0,0,0)
(0,0,0)
(0,0,0)
(0,0,0)
(-551472.707198961,1453076.21265707,47076.8261609487)
(-563242.997001015,1442107.27263234,104577.478446282)
(-592809.553797675,1418654.41220659,188767.012563363)
(-655133.647726126,1379467.09728957,330904.002065113)
(-779666.276741221,1319346.93908782,593088.962044801)
(-1013079.87720349,1230696.16318539,1089431.05159824)
(-1398232.62377765,1103663.70645256,1990172.55090296)
(-1898948.59357567,925923.461141742,3450171.44947695)
(-2640141.23018391,678030.330343264,5762358.63741467)
(-3394390.51759093,361939.105358395,8980343.56177841)
(0,0,0)
(0,0,0)
(0,0,0)
(0,0,0)
(0,0,0)
(0,0,0)
(-852935.60082498,2270000.60617422,36011.2073078234)
(-863337.058145306,2260545.49328841,80910.0447970672)
(-889869.462142642,2240105.06535824,149328.853788063)
(-946807.489792027,2205107.6494803,270495.791389357)
(-1062466.32629191,2148171.77478933,504137.281979755)
(-1281782.98149078,2054512.71176345,962103.714892493)
(-1643242.96225947,1896891.67276235,1812118.71084219)
(-2098558.63625655,1634478.49948276,3202122.30875772)
(-2789117.86613145,1223036.57075102,5446233.93448138)
(-3476584.17035753,666391.960744602,8618365.24945279)
(0,0,0)
(0,0,0)
(0,0,0)
(0,0,0)
(0,0,0)
(0,0,0)
(-1404240.52305414,3647832.45290443,26408.6763239318)
(-1412556.62434573,3639240.49797768,60270.295980395)
(-1433920.30242836,3620207.71068137,114087.95308565)
(-1480234.87433657,3586150.17726133,213280.299641181)
(-1575291.49684872,3526560.87037203,410182.700907203)
(-1757594.88771376,3418118.84758312,804171.45280127)
(-2060287.11209864,3211926.11832155,1549424.11934067)
(-2428919.85223555,2822301.10648082,2790521.36457818)
(-3059594.28024223,2183563.28850929,4889588.92706212)
(-3633740.06345845,1237720.64364785,7952000.30761729)
(0,0,0)
(0,0,0)
(0,0,0)
(0,0,0)
(0,0,0)
(0,0,0)
(-2327358.86056492,5957529.11173308,17662.2017362705)
(-2333045.7188247,5948882.52905289,41065.8894857564)
(-2347563.54507463,5929039.8265944,79797.3186472942)
(-2378713.18975236,5891291.53765276,153369.148008203)
(-2441519.08311573,5820023.29027748,301425.811218494)
(-2559475.45204559,5681370.29289575,597649.817951469)
(-2757615.49143418,5407681.16759413,1159510.26011306)
(-3052074.70990569,4882289.15099461,2151596.925505)
(-3558450.47208505,3949954.05115898,3943656.63494024)
(-3907839.5874517,2374989.48084023,6714227.38519958)
(0,0,0)
(0,0,0)
(0,0,0)
(0,0,0)
(0,0,0)
(0,0,0)
(-3250201.10011171,9198748.52392042,8981.68792436013)
(-3253040.66741089,9189757.10137657,21147.7830115441)
(-3260249.82059785,9168585.71023219,41851.7199716195)
(-3275545.23453303,9126851.64283367,81836.8493238179)
(-3305964.83151846,9045295.42299687,162529.548122895)
(-3362783.57330839,8882997.12238947,323686.291937504)
(-3461936.53834605,8559524.92757829,633779.070299375)
(-3629062.6703242,7926104.82876621,1219026.06285194)
(-3906935.35352175,6707399.69420518,2368515.77332742)
(-3934667.59387762,4339042.23703537,4339130.61100994)
(0,0,0)
(0,0,0)
(0,0,0)
(0,0,0)
(0,0,0)
(0,0,0)
(0,0,0)
(0,0,0)
(0,0,0)
(0,0,0)
(0,0,0)
(0,0,0)
(0,0,0)
(0,0,0)
(0,0,0)
(0,0,0)
(0,0,0)
(0,0,0)
(0,0,0)
(0,0,0)
(0,0,0)
(0,0,0)
(0,0,0)
(0,0,0)
(0,0,0)
(0,0,0)
(0,0,0)
(0,0,0)
(0,0,0)
(0,0,0)
(0,0,0)
(0,0,0)
(0,0,0)
(0,0,0)
(0,0,0)
(0,0,0)
(0,0,0)
(0,0,0)
(0,0,0)
(0,0,0)
(0,0,0)
(0,0,0)
(0,0,0)
(0,0,0)
(0,0,0)
(0,0,0)
(0,0,0)
(0,0,0)
(0,0,0)
(0,0,0)
(0,0,0)
(0,0,0)
(0,0,0)
(0,0,0)
(0,0,0)
(0,0,0)
(0,0,0)
(0,0,0)
(0,0,0)
(0,0,0)
(0,0,0)
(0,0,0)
(0,0,0)
(0,0,0)
(0,0,0)
(0,0,0)
(0,0,0)
(0,0,0)
(0,0,0)
(0,0,0)
(0,0,0)
(0,0,0)
(0,0,0)
(0,0,0)
(0,0,0)
(0,0,0)
(0,0,0)
(0,0,0)
(0,0,0)
(0,0,0)
(0,0,0)
(0,0,0)
(0,0,0)
(0,0,0)
(0,0,0)
(0,0,0)
(0,0,0)
(0,0,0)
(0,0,0)
(0,0,0)
(0,0,0)
(0,0,0)
(0,0,0)
(0,0,0)
(0,0,0)
(0,0,0)
(0,0,0)
(0,0,0)
(0,0,0)
(0,0,0)
(0,0,0)
(0,0,0)
(30515674.9354303,97589.6087585646,84976.6690755925)
(30495744.1148097,92993.2860075182,182575.424815635)
(30449945.4722539,83171.5072261406,308258.043598722)
(30364456.3621801,67197.1174663225,483419.62108984)
(30212192.0929716,44660.9206388483,739567.293379057)
(29941349.748,17675.3128895425,1125112.17501015)
(29444525.2322369,-6610.47636423808,1726855.97649145)
(28462691.0453248,-17360.9606969309,2770144.25363348)
(26247391.7367959,-14435.3045346111,5106384.89302035)
(20231253.0024287,-7114.57113050783,12532934.5986823)
(0,0,0)
(0,0,0)
(0,0,0)
(0,0,0)
(0,0,0)
(0,0,0)
(30495416.5923337,208215.629585145,80327.5723707759)
(30475445.9074802,199507.225856458,172709.021480391)
(30429247.8448469,180774.920420772,292222.839470113)
(30342128.5301974,149608.791114063,460831.178459927)
(30185673.9904293,104010.396455806,712531.518502047)
(29907228.751782,46373.3480037876,1100869.80020388)
(29402805.1545414,-8700.06910087763,1716157.82798207)
(28425089.8001052,-32262.9182731715,2773047.67928299)
(26224044.9089232,-24181.2476692128,5113594.69519096)
(20221050.5585181,-10384.2063336086,12539807.5611009)
(0,0,0)
(0,0,0)
(0,0,0)
(0,0,0)
(0,0,0)
(0,0,0)
(30449404.456267,346375.537386543,71577.909794516)
(30429362.867987,334761.392384286,153872.078061018)
(30382262.2550939,309454.799105903,260976.933114919)
(30291326.7701439,266251.313098279,415167.030287742)
(30124039.0733439,199889.341100683,654825.869831032)
(29822807.1237299,109076.911886863,1045773.03195539)
(29289501.8786331,12575.1276162027,1692583.88169119)
(28321100.7010732,-28499.0231000211,2781013.02807592)
(26163568.3941056,-13698.8927498504,5127164.42085585)
(20195974.0701074,-739.042947432066,12549854.5145362)
(0,0,0)
(0,0,0)
(0,0,0)
(0,0,0)
(0,0,0)
(0,0,0)
(30364777.340445,530049.094300213,59932.7074852903)
(30344765.3537533,517397.886512068,128481.291490666)
(30296528.3785176,489700.286606848,217676.09123007)
(30199644.5909344,441788.339300535,348710.270266519)
(30012421.7910171,365733.187130489,563928.700294947)
(29659621.9053793,254066.411858189,949176.928036744)
(29037610.96098,118450.820069927,1651369.25735624)
(28084291.9056185,52175.3597992537,2795610.96185929)
(26041305.9115523,57425.7555936797,5139887.35654138)
(20149026.2334228,40488.0141967631,12550255.3882177)
(0,0,0)
(0,0,0)
(0,0,0)
(0,0,0)
(0,0,0)
(0,0,0)
(30215770.5626886,784496.907477724,47189.4950274785)
(30196208.2252074,772768.476859914,100615.155884634)
(30147725.1750794,747436.952361326,169576.275545923)
(30045784.2567628,704523.935175578,272502.027816305)
(29835725.2685812,638621.073563055,452107.233261328)
(29405586.9500325,546370.944074594,813389.213814757)
(28584704.7849712,437407.193513154,1584927.28002607)
(27645172.2701777,341950.689977979,2800682.51943121)
(25849669.2925958,250096.807760158,5122788.01394691)
(20079195.8186224,135157.376050716,12509529.0566975)
(0,0,0)
(0,0,0)
(0,0,0)
(0,0,0)
(0,0,0)
(0,0,0)
(29950650.6072339,1151657.25361084,35348.6488867497)
(29932446.4726617,1142010.88401099,75049.0815257562)
(29886301.2873296,1121586.91950256,126420.582710119)
(29786259.0732375,1087814.2283064,206369.878068681)
(29573768.4651942,1036560.25689045,359628.262258624)
(29131306.4965418,962019.572773659,704225.569267033)
(28300049.5447467,858658.317566138,1489324.58614262)
(27401982.9458891,726252.90285053,2708723.1432581)
(25686532.219796,529009.109871468,5007769.70061979)
(19999167.6701019,279751.342922407,12374249.855508)
(0,0,0)
(0,0,0)
(0,0,0)
(0,0,0)
(0,0,0)
(0,0,0)
(29459019.6222716,1718724.65661523,25609.6833519002)
(29443186.0198579,1711330.18236129,54399.616451264)
(29402307.6855861,1696045.24113695,92396.4565410427)
(29311504.8947302,1671676.38977631,154854.220001713)
(29113417.0734226,1635351.98545484,284811.401175701)
(28690334.4041854,1578712.77541965,600633.122306321)
(27884167.0205882,1479804.56812418,1356709.19835335)
(27073690.3414782,1304018.72562092,2511326.70730109)
(25444943.8301774,952485.238030934,4758421.19228541)
(19862579.7550759,509210.066569641,12094430.8526577)
(0,0,0)
(0,0,0)
(0,0,0)
(0,0,0)
(0,0,0)
(0,0,0)
(28476384.2965885,2724650.58101963,18081.5654058283)
(28463903.9016682,2718685.45982521,38898.071380773)
(28431367.5304149,2706505.31737836,67782.4717489329)
(28358005.8598042,2687600.07042115,118250.366416143)
(28194803.40911,2660266.67356172,227873.081803272)
(27835955.4197771,2616193.06628632,501474.792898725)
(27130398.8288209,2514491.33611743,1180734.39343877)
(26601816.5382018,2198993.85208729,2159655.18598772)
(24957489.3217535,1684580.24890831,4315108.88256745)
(19546411.902792,963543.903409573,11585255.3889299)
(0,0,0)
(0,0,0)
(0,0,0)
(0,0,0)
(0,0,0)
(0,0,0)
(26255379.7825127,5034567.89654894,11976.3508459318)
(26246959.9037567,5028760.65632087,26527.8412216982)
(26225231.512392,5016225.65583052,48644.754755677)
(26177244.4544148,4994313.479969,90606.0104934645)
(26075104.6382275,4955422.74630145,183458.525863285)
(25867350.0326013,4877959.40726318,399499.009692564)
(25492778.5375698,4703198.60736095,865030.01889803)
(24966423.2176704,4305065.61724745,1645092.63561469)
(23480586.3490968,3601256.68293488,3594011.68985908)
(18584653.7986344,2348019.86386561,10621674.6527698)
(0,0,0)
(0,0,0)
(0,0,0)
(0,0,0)
(0,0,0)
(0,0,0)
(20234196.5676064,12448675.3591078,6127.1791758025)
(20230022.2335694,12442549.4736932,13907.7702759275)
(20219379.0334493,12428598.0299945,26538.851517664)
(20196337.67603,12402159.7819839,51441.9483927561)
(20148842.2875555,12350984.2451387,105705.639934411)
(20055469.3388032,12245530.0580756,224514.386463373)
(19882575.4387327,12021185.7603339,466647.565864524)
(19551376.8562553,11554814.9284016,941091.037583876)
(18585414.3278052,10613981.7986479,2340648.54999693)
(15111597.6837195,8273477.05163779,8273558.39408041)
(0,0,0)
(0,0,0)
(0,0,0)
(0,0,0)
(0,0,0)
(0,0,0)
(0,0,0)
(0,0,0)
(0,0,0)
(0,0,0)
(0,0,0)
(0,0,0)
(0,0,0)
(0,0,0)
(0,0,0)
(0,0,0)
(0,0,0)
(0,0,0)
(0,0,0)
(0,0,0)
(0,0,0)
(0,0,0)
(0,0,0)
(0,0,0)
(0,0,0)
(0,0,0)
(0,0,0)
(0,0,0)
(0,0,0)
(0,0,0)
(0,0,0)
(0,0,0)
(0,0,0)
(0,0,0)
(0,0,0)
(0,0,0)
(0,0,0)
(0,0,0)
(0,0,0)
(0,0,0)
(0,0,0)
(0,0,0)
(0,0,0)
(0,0,0)
(0,0,0)
(0,0,0)
(0,0,0)
(0,0,0)
(0,0,0)
(0,0,0)
(0,0,0)
(0,0,0)
(0,0,0)
(0,0,0)
(0,0,0)
(0,0,0)
(0,0,0)
(0,0,0)
(0,0,0)
(0,0,0)
(0,0,0)
(0,0,0)
(0,0,0)
(0,0,0)
(0,0,0)
(0,0,0)
(0,0,0)
(0,0,0)
(0,0,0)
(0,0,0)
(0,0,0)
(0,0,0)
(0,0,0)
(0,0,0)
(0,0,0)
(0,0,0)
(0,0,0)
(0,0,0)
(0,0,0)
(0,0,0)
(0,0,0)
(0,0,0)
(0,0,0)
(0,0,0)
(0,0,0)
(0,0,0)
(0,0,0)
(0,0,0)
(0,0,0)
(0,0,0)
(0,0,0)
(0,0,0)
(0,0,0)
(0,0,0)
(0,0,0)
(0,0,0)
(0,0,0)
(0,0,0)
(0,0,0)
(0,0,0)
(0,0,0)
(0,0,0)
(-531300.586752566,77310.5363448321,65032.6763851766)
(-553313.22507612,72678.3010723282,136779.405745759)
(-603021.317445396,62445.929616832,222667.956375485)
(-693432.262494082,44868.60088564,331055.670711201)
(-848162.289398651,18157.628738156,468620.114890521)
(-1106309.23337204,-16458.9657323046,628105.752542107)
(-1528432.80727845,-48365.8646517049,744797.347256416)
(-2196575.56641647,-55036.4290337395,554468.078578624)
(-3154525.21681997,-37854.8381105762,-910392.439147828)
(-3866904.21847919,-17363.9281871828,-7699503.59950558)
(0,0,0)
(0,0,0)
(0,0,0)
(0,0,0)
(0,0,0)
(0,0,0)
(-554494.648384706,162217.178817442,60372.2887929458)
(-576121.728571235,153468.807754721,126517.10870915)
(-625297.188437414,133835.575156897,205040.187000569)
(-715810.490326892,98886.1182363853,304329.380721287)
(-872923.840483298,42445.1524039304,434007.378515237)
(-1138078.47905366,-38041.4679695754,596264.802135337)
(-1570086.23570036,-122030.424944018,738188.443216442)
(-2231729.0985292,-136297.573973001,571636.177337285)
(-3172113.08976845,-84695.9158180121,-889997.055716305)
(-3873087.98471188,-35499.9569887294,-7682354.79313755)
(0,0,0)
(0,0,0)
(0,0,0)
(0,0,0)
(0,0,0)
(0,0,0)
(-606368.324950373,261791.464019184,51566.1865629054)
(-627266.271486832,250238.279481696,106793.544856964)
(-675541.199609673,223803.544213416,169996.721051087)
(-766924.083407913,174668.418790716,247832.964595619)
(-932162.368531249,88337.9468577551,353509.302564108)
(-1224604.07182992,-54086.0263632396,512332.747064609)
(-1709466.84410996,-239310.856178856,723949.591589678)
(-2353726.17510039,-265310.161135091,623156.745472467)
(-3225637.05064952,-135980.420424054,-840985.614619094)
(-3890240.1514378,-47720.2526502818,-7647183.40686523)
(0,0,0)
(0,0,0)
(0,0,0)
(0,0,0)
(0,0,0)
(0,0,0)
(-699101.716937141,381099.135420142,39939.0765284143)
(-718887.503304646,368934.214712699,80263.6889024504)
(-765797.858444936,341015.628179558,120745.532446005)
(-859032.73019916,288039.341320361,161419.621597018)
(-1042636.53008436,189142.413712572,211041.166390761)
(-1415238.67537114,114.611465410984,327068.799859712)
(-2142697.69085925,-334407.017048227,697841.30311536)
(-2753230.33438175,-386910.318143791,752331.390671387)
(-3359816.37054272,-134220.218885462,-752938.838224847)
(-3927068.87947089,-29372.597529787,-7599823.68990467)
(0,0,0)
(0,0,0)
(0,0,0)
(0,0,0)
(0,0,0)
(0,0,0)
(-854857.749070924,519440.814217845,27654.3235090142)
(-873028.824772157,509047.112036754,52146.1667117455)
(-917348.752598391,486037.258913172,67566.1542029054)
(-1010585.11190447,444984.529342203,62358.0253955339)
(-1215919.25917898,376660.922681903,21851.7347333741)
(-1741574.68641672,272111.018174244,-7615.34497913193)
(-3459888.81797909,152765.602277963,645173.329192029)
(-4104778.91165571,98739.1635917313,1004842.71983708)
(-3622994.30314322,86920.9388087675,-648267.151570848)
(-3987437.56256486,55098.1953493052,-7570736.87271545)
(0,0,0)
(0,0,0)
(0,0,0)
(0,0,0)
(0,0,0)
(0,0,0)
(-1111656.5029594,659967.627686708,17147.9872717046)
(-1127560.85012195,652685.932637029,28884.1800022934)
(-1167241.91276774,637549.742651249,26282.5869086842)
(-1253934.97924707,613014.352146285,-6185.49286383155)
(-1453577.9985,576128.980970315,-82939.3969107897)
(-1977968.03215066,520984.49196894,-127170.651465781)
(-3612744.2949305,442709.441780859,591047.039255581)
(-4203631.77807325,397866.338055722,992902.279301074)
(-3745453.31842812,287360.675866284,-680184.228985296)
(-4047707.22820465,143149.48120234,-7625992.92598449)
(0,0,0)
(0,0,0)
(0,0,0)
(0,0,0)
(0,0,0)
(0,0,0)
(-1531362.12482015,735992.360679013,9724.70464656772)
(-1544459.31178249,731950.329395847,13473.3300752653)
(-1577817.47514145,725007.568945123,1508.35505600909)
(-1653386.8633425,718089.617733166,-43307.4619109803)
(-1836675.13124674,716626.720719902,-138345.306444116)
(-2350222.77608074,724205.567823854,-205641.511485675)
(-4055356.05864054,725905.043325281,546053.656745908)
(-4601258.63737045,832002.690170249,882233.974027194)
(-3930510.72830263,464923.078164157,-824506.179243264)
(-4147160.04742838,192983.995291113,-7769233.20028067)
(0,0,0)
(0,0,0)
(0,0,0)
(0,0,0)
(0,0,0)
(0,0,0)
(-2201316.49915806,503525.469551159,5535.37742153562)
(-2211163.55284766,501631.550109009,6289.30177144172)
(-2236608.81289258,500267.628827532,-5626.72425632766)
(-2295902.65273041,506734.16576129,-44995.0692026794)
(-2447595.96428433,540416.76249802,-131018.047039182)
(-2918742.81012621,647386.319536126,-204132.878301106)
(-4781119.82901189,876634.254588352,652024.258815799)
(-3897198.93993491,563360.726636712,515049.391033278)
(-4078147.62882395,207477.944115353,-1096500.83379319)
(-4301185.14850302,1662.55327703112,-7962214.64993684)
(0,0,0)
(0,0,0)
(0,0,0)
(0,0,0)
(0,0,0)
(0,0,0)
(-3162399.78337518,-986872.435668049,3545.16165422975)
(-3168805.86079347,-988451.381155148,4761.54801576287)
(-3185100.43180825,-989918.019934929,646.831525722225)
(-3221575.47217943,-986894.744357628,-11536.6412139304)
(-3305125.43090895,-971196.007915162,-24326.1111170862)
(-3504864.40619731,-934274.405756311,24916.7435209263)
(-3941521.4695673,-907392.213440912,338610.90923437)
(-4084859.57156694,-1110427.72093797,159049.836593481)
(-4460812.24508409,-1294333.74183367,-1302372.19272939)
(-4531425.27198936,-1125316.42474671,-7963946.45353474)
(0,0,0)
(0,0,0)
(0,0,0)
(0,0,0)
(0,0,0)
(0,0,0)
(-3872980.96896149,-7786280.52925527,1953.32070229259)
(-3876100.67528877,-7788246.36897307,3238.90792547358)
(-3883885.53679756,-7791531.13601804,3484.28480260674)
(-3900738.66729826,-7794920.00467461,3953.57899489461)
(-3936643.19251813,-7798716.55025098,12327.2919514845)
(-4011892.31213339,-7810827.17407078,51609.4017496023)
(-4150942.67892535,-7862295.53409138,135398.530605272)
(-4305760.27886742,-7997517.81490149,-25006.5497615384)
(-4532779.35369261,-7972336.09975541,-1133442.81979498)
(-4374320.35508545,-6838765.59975475,-6838707.91543488)
(0,0,0)
(0,0,0)
(0,0,0)
(0,0,0)
(0,0,0)
(0,0,0)
(0,0,0)
(0,0,0)
(0,0,0)
(0,0,0)
(0,0,0)
(0,0,0)
(0,0,0)
(0,0,0)
(0,0,0)
(0,0,0)
(0,0,0)
(0,0,0)
(0,0,0)
(0,0,0)
(0,0,0)
(0,0,0)
(0,0,0)
(0,0,0)
(0,0,0)
(0,0,0)
(0,0,0)
(0,0,0)
(0,0,0)
(0,0,0)
(0,0,0)
(0,0,0)
(0,0,0)
(0,0,0)
(0,0,0)
(0,0,0)
(0,0,0)
(0,0,0)
(0,0,0)
(0,0,0)
(0,0,0)
(0,0,0)
(0,0,0)
(0,0,0)
(0,0,0)
(0,0,0)
(0,0,0)
(0,0,0)
(0,0,0)
(0,0,0)
(0,0,0)
(0,0,0)
(0,0,0)
(0,0,0)
(0,0,0)
(0,0,0)
(0,0,0)
(0,0,0)
(0,0,0)
(0,0,0)
(0,0,0)
(0,0,0)
(0,0,0)
(0,0,0)
(0,0,0)
(0,0,0)
(0,0,0)
(0,0,0)
(0,0,0)
(0,0,0)
(0,0,0)
(0,0,0)
(0,0,0)
(0,0,0)
(0,0,0)
(0,0,0)
(0,0,0)
(0,0,0)
(0,0,0)
(0,0,0)
(0,0,0)
(0,0,0)
(0,0,0)
(0,0,0)
(0,0,0)
(0,0,0)
(0,0,0)
(0,0,0)
(0,0,0)
(0,0,0)
(0,0,0)
(0,0,0)
(0,0,0)
(0,0,0)
(0,0,0)
(0,0,0)
(0,0,0)
(0,0,0)
(0,0,0)
(0,0,0)
(0,0,0)
(0,0,0)
(-628419.638144951,54101.1744833662,43017.8769090197)
(-647141.073134715,49810.0922957654,87035.6326718524)
(-688256.751858435,40076.0297478816,132195.037337012)
(-759924.265255544,22422.9317989015,176264.108299571)
(-875605.754956562,-6630.67224405629,210338.24610154)
(-1053459.44355918,-48258.2464410824,205746.702729759)
(-1309052.82858273,-90061.5370187231,76428.2610527688)
(-1626024.15708728,-90281.1270994736,-403842.021176943)
(-1879518.11486736,-55532.8986142271,-1623316.22451529)
(-1633254.6475009,-23600.4874514631,-3833365.30804209)
(0,0,0)
(0,0,0)
(0,0,0)
(0,0,0)
(0,0,0)
(0,0,0)
(-649515.758472937,110370.212512272,38752.0720593223)
(-667181.355947969,102328.86106984,77292.9306619862)
(-705999.830989301,83583.389006015,114488.213955744)
(-773878.929367109,47783.3960414293,147196.188753427)
(-884312.53373737,-16776.6629923112,168730.872755748)
(-1057027.39977052,-124582.812664961,164004.35969649)
(-1310944.99266102,-261448.604428112,76250.1840665313)
(-1618262.83549034,-258360.729562006,-369136.476509798)
(-1867000.26587436,-138278.069033178,-1591504.12998492)
(-1625546.63635005,-52681.5581607227,-3809964.40763758)
(0,0,0)
(0,0,0)
(0,0,0)
(0,0,0)
(0,0,0)
(0,0,0)
(-695771.422266663,169103.380083459,30669.9297451059)
(-711379.668705283,158642.222979731,58469.9650536648)
(-745654.123674394,133580.577477687,78585.7006467105)
(-805717.692556698,82586.2841537798,82576.4216831436)
(-905131.258868652,-22150.3853231204,60919.0343513539)
(-1070745.26908702,-244737.655236601,27215.0741800752)
(-1350530.82445193,-672539.075060486,79369.5251544198)
(-1618732.19393948,-664841.453586077,-249143.731982432)
(-1836747.88403576,-270208.709422058,-1506102.25820732)
(-1606832.11701592,-84585.2836005758,-3757606.56718937)
(0,0,0)
(0,0,0)
(0,0,0)
(0,0,0)
(0,0,0)
(0,0,0)
(-775504.791461009,225377.498338714,20128.9562686219)
(-788246.043316703,214829.687492051,33300.0317683657)
(-815895.47137836,189518.496049139,27459.7261303411)
(-863259.934429154,136516.654430489,-22243.4399163717)
(-941173.160566084,15864.1929423665,-161721.38770013)
(-1094903.37066776,-326199.552214887,-400594.795425229)
(-1651311.97591691,-1651531.36715638,87011.7817283312)
(-1737989.67435632,-1738452.361624,145382.029740801)
(-1766508.46103004,-397443.710436088,-1320690.87875787)
(-1569134.50829608,-89782.2434167014,-3673428.29011663)
(0,0,0)
(0,0,0)
(0,0,0)
(0,0,0)
(0,0,0)
(0,0,0)
(-901633.449645599,262687.892924596,9465.30598879329)
(-911064.599990064,254547.403341161,7783.36535759215)
(-930448.224620908,236138.436092671,-25737.1026634128)
(-958342.671020993,201598.939002498,-143061.828118897)
(-978116.057238099,138961.443595925,-503962.280713338)
(-881366.022310164,35713.918084154,-1726084.41511894)