/*--------------------------------*- C++ -*----------------------------------*\
| =========                 |                                                 |
| \\      /  F ield         | foam-extend: Open Source CFD                    |
|  \\    /   O peration     | Version:     4.0                                |
|   \\  /    A nd           | Web:         http://www.foam-extend.org         |
|    \\/     M anipulation  |                                                 |
\*---------------------------------------------------------------------------*/
FoamFile
{
    version 2.0;
    format ascii;
    class volVectorField;
    location "496";
    object      E;
}
// * * * * * * * * * * * * * * * * * * * * * * * * * * * * * * * * * * * * * //

dimensions      [0 1 -1 0 0 0 0];

internalField   nonuniform List<vector>
4096
(
(0,0,0)
(0,0,0)
(0,0,0)
(0,0,0)
(0,0,0)
(0,0,0)
(0,0,0)
(0,0,0)
(0,0,0)
(0,0,0)
(0,0,0)
(0,0,0)
(0,0,0)
(0,0,0)
(0,0,0)
(0,0,0)
(0,0,0)
(0,0,0)
(0,0,0)
(0,0,0)
(0,0,0)
(0,0,0)
(0,0,0)
(0,0,0)
(0,0,0)
(0,0,0)
(0,0,0)
(0,0,0)
(0,0,0)
(0,0,0)
(0,0,0)
(0,0,0)
(0,0,0)
(0,0,0)
(0,0,0)
(0,0,0)
(0,0,0)
(0,0,0)
(0,0,0)
(0,0,0)
(0,0,0)
(0,0,0)
(0,0,0)
(0,0,0)
(0,0,0)
(0,0,0)
(0,0,0)
(0,0,0)
(0,0,0)
(0,0,0)
(0,0,0)
(0,0,0)
(0,0,0)
(0,0,0)
(0,0,0)
(0,0,0)
(0,0,0)
(0,0,0)
(0,0,0)
(0,0,0)
(0,0,0)
(0,0,0)
(0,0,0)
(0,0,0)
(0,0,0)
(0,0,0)
(0,0,0)
(0,0,0)
(0,0,0)
(0,0,0)
(0,0,0)
(0,0,0)
(0,0,0)
(0,0,0)
(0,0,0)
(0,0,0)
(0,0,0)
(0,0,0)
(0,0,0)
(0,0,0)
(0,0,0)
(0,0,0)
(0,0,0)
(0,0,0)
(0,0,0)
(0,0,0)
(0,0,0)
(0,0,0)
(0,0,0)
(0,0,0)
(0,0,0)
(0,0,0)
(0,0,0)
(0,0,0)
(0,0,0)
(0,0,0)
(0,0,0)
(0,0,0)
(0,0,0)
(0,0,0)
(0,0,0)
(0,0,0)
(0,0,0)
(0,0,0)
(0,0,0)
(0,0,0)
(0,0,0)
(0,0,0)
(0,0,0)
(0,0,0)
(0,0,0)
(0,0,0)
(0,0,0)
(0,0,0)
(0,0,0)
(0,0,0)
(0,0,0)
(0,0,0)
(0,0,0)
(0,0,0)
(0,0,0)
(0,0,0)
(0,0,0)
(0,0,0)
(0,0,0)
(0,0,0)
(0,0,0)
(0,0,0)
(0,0,0)
(0,0,0)
(0,0,0)
(0,0,0)
(0,0,0)
(0,0,0)
(0,0,0)
(0,0,0)
(0,0,0)
(0,0,0)
(0,0,0)
(0,0,0)
(0,0,0)
(0,0,0)
(0,0,0)
(0,0,0)
(0,0,0)
(0,0,0)
(0,0,0)
(0,0,0)
(0,0,0)
(0,0,0)
(0,0,0)
(0,0,0)
(0,0,0)
(0,0,0)
(0,0,0)
(0,0,0)
(0,0,0)
(0,0,0)
(0,0,0)
(0,0,0)
(0,0,0)
(0,0,0)
(0,0,0)
(0,0,0)
(0,0,0)
(0,0,0)
(0,0,0)
(0,0,0)
(0,0,0)
(0,0,0)
(0,0,0)
(0,0,0)
(0,0,0)
(0,0,0)
(0,0,0)
(0,0,0)
(0,0,0)
(0,0,0)
(0,0,0)
(0,0,0)
(0,0,0)
(0,0,0)
(0,0,0)
(0,0,0)
(0,0,0)
(0,0,0)
(0,0,0)
(0,0,0)
(0,0,0)
(0,0,0)
(0,0,0)
(0,0,0)
(0,0,0)
(0,0,0)
(0,0,0)
(0,0,0)
(0,0,0)
(0,0,0)
(0,0,0)
(0,0,0)
(0,0,0)
(0,0,0)
(0,0,0)
(0,0,0)
(0,0,0)
(0,0,0)
(0,0,0)
(0,0,0)
(0,0,0)
(0,0,0)
(0,0,0)
(0,0,0)
(0,0,0)
(0,0,0)
(0,0,0)
(0,0,0)
(0,0,0)
(0,0,0)
(0,0,0)
(0,0,0)
(0,0,0)
(0,0,0)
(0,0,0)
(0,0,0)
(0,0,0)
(0,0,0)
(0,0,0)
(0,0,0)
(0,0,0)
(0,0,0)
(0,0,0)
(0,0,0)
(0,0,0)
(0,0,0)
(0,0,0)
(0,0,0)
(0,0,0)
(0,0,0)
(0,0,0)
(0,0,0)
(0,0,0)
(0,0,0)
(0,0,0)
(0,0,0)
(0,0,0)
(0,0,0)
(0,0,0)
(0,0,0)
(0,0,0)
(0,0,0)
(0,0,0)
(0,0,0)
(0,0,0)
(0,0,0)
(0,0,0)
(0,0,0)
(0,0,0)
(0,0,0)
(0,0,0)
(0,0,0)
(0,0,0)
(0,0,0)
(0,0,0)
(0,0,0)
(0,0,0)
(0,0,0)
(0,0,0)
(0,0,0)
(0,0,0)
(0,0,0)
(0,0,0)
(0,0,0)
(0,0,0)
(0,0,0)
(0,0,0)
(0,0,0)
(0,0,0)
(0,0,0)
(0,0,0)
(0,0,0)
(0,0,0)
(0,0,0)
(0,0,0)
(0,0,0)
(0,0,0)
(0,0,0)
(0,0,0)
(0,0,0)
(0,0,0)
(0,0,0)
(0,0,0)
(0,0,0)
(0,0,0)
(0,0,0)
(0,0,0)
(0,0,0)
(0,0,0)
(0,0,0)
(0,0,0)
(0,0,0)
(0,0,0)
(0,0,0)
(0,0,0)
(0,0,0)
(0,0,0)
(0,0,0)
(0,0,0)
(0,0,0)
(0,0,0)
(0,0,0)
(0,0,0)
(0,0,0)
(0,0,0)
(0,0,0)
(0,0,0)
(0,0,0)
(0,0,0)
(0,0,0)
(0,0,0)
(0,0,0)
(0,0,0)
(0,0,0)
(0,0,0)
(0,0,0)
(0,0,0)
(0,0,0)
(0,0,0)
(0,0,0)
(0,0,0)
(0,0,0)
(0,0,0)
(0,0,0)
(0,0,0)
(0,0,0)
(0,0,0)
(0,0,0)
(0,0,0)
(0,0,0)
(0,0,0)
(0,0,0)
(0,0,0)
(0,0,0)
(0,0,0)
(0,0,0)
(0,0,0)
(0,0,0)
(0,0,0)
(0,0,0)
(0,0,0)
(0,0,0)
(0,0,0)
(0,0,0)
(0,0,0)
(0,0,0)
(0,0,0)
(0,0,0)
(0,0,0)
(0,0,0)
(0,0,0)
(0,0,0)
(0,0,0)
(0,0,0)
(0,0,0)
(0,0,0)
(0,0,0)
(0,0,0)
(0,0,0)
(0,0,0)
(0,0,0)
(0,0,0)
(0,0,0)
(0,0,0)
(0,0,0)
(0,0,0)
(0,0,0)
(0,0,0)
(0,0,0)
(0,0,0)
(0,0,0)
(0,0,0)
(0,0,0)
(0,0,0)
(0,0,0)
(0,0,0)
(0,0,0)
(0,0,0)
(0,0,0)
(0,0,0)
(0,0,0)
(0,0,0)
(0,0,0)
(0,0,0)
(0,0,0)
(0,0,0)
(0,0,0)
(0,0,0)
(0,0,0)
(0,0,0)
(0,0,0)
(0,0,0)
(0,0,0)
(0,0,0)
(0,0,0)
(0,0,0)
(0,0,0)
(0,0,0)
(0,0,0)
(0,0,0)
(0,0,0)
(0,0,0)
(0,0,0)
(0,0,0)
(0,0,0)
(0,0,0)
(0,0,0)
(0,0,0)
(0,0,0)
(0,0,0)
(0,0,0)
(0,0,0)
(0,0,0)
(0,0,0)
(0,0,0)
(0,0,0)
(0,0,0)
(0,0,0)
(0,0,0)
(0,0,0)
(0,0,0)
(0,0,0)
(0,0,0)
(0,0,0)
(0,0,0)
(0,0,0)
(0,0,0)
(0,0,0)
(0,0,0)
(0,0,0)
(0,0,0)
(0,0,0)
(0,0,0)
(0,0,0)
(0,0,0)
(0,0,0)
(0,0,0)
(0,0,0)
(0,0,0)
(0,0,0)
(0,0,0)
(0,0,0)
(0,0,0)
(0,0,0)
(0,0,0)
(0,0,0)
(0,0,0)
(0,0,0)
(0,0,0)
(0,0,0)
(0,0,0)
(0,0,0)
(0,0,0)
(0,0,0)
(0,0,0)
(0,0,0)
(0,0,0)
(0,0,0)
(0,0,0)
(0,0,0)
(0,0,0)
(0,0,0)
(0,0,0)
(0,0,0)
(0,0,0)
(0,0,0)
(0,0,0)
(0,0,0)
(0,0,0)
(0,0,0)
(0,0,0)
(0,0,0)
(0,0,0)
(0,0,0)
(0,0,0)
(0,0,0)
(0,0,0)
(0,0,0)
(0,0,0)
(0,0,0)
(0,0,0)
(0,0,0)
(0,0,0)
(0,0,0)
(0,0,0)
(0,0,0)
(0,0,0)
(0,0,0)
(0,0,0)
(0,0,0)
(0,0,0)
(0,0,0)
(0,0,0)
(0,0,0)
(0,0,0)
(0,0,0)
(0,0,0)
(0,0,0)
(0,0,0)
(0,0,0)
(0,0,0)
(0,0,0)
(0,0,0)
(0,0,0)
(0,0,0)
(0,0,0)
(0,0,0)
(0,0,0)
(0,0,0)
(0,0,0)
(0,0,0)
(0,0,0)
(0,0,0)
(0,0,0)
(0,0,0)
(0,0,0)
(0,0,0)
(0,0,0)
(0,0,0)
(0,0,0)
(0,0,0)
(0,0,0)
(0,0,0)
(0,0,0)
(0,0,0)
(0,0,0)
(0,0,0)
(0,0,0)
(0,0,0)
(0,0,0)
(0,0,0)
(0,0,0)
(0,0,0)
(0,0,0)
(0,0,0)
(0,0,0)
(0,0,0)
(0,0,0)
(0,0,0)
(0,0,0)
(0,0,0)
(0,0,0)
(0,0,0)
(0,0,0)
(0,0,0)
(0,0,0)
(0,0,0)
(0,0,0)
(0,0,0)
(0,0,0)
(0,0,0)
(0,0,0)
(0,0,0)
(0,0,0)
(0,0,0)
(0,0,0)
(0,0,0)
(0,0,0)
(0,0,0)
(0,0,0)
(0,0,0)
(0,0,0)
(0,0,0)
(0,0,0)
(0,0,0)
(0,0,0)
(0,0,0)
(0,0,0)
(0,0,0)
(0,0,0)
(0,0,0)
(0,0,0)
(0,0,0)
(0,0,0)
(0,0,0)
(0,0,0)
(0,0,0)
(0,0,0)
(0,0,0)
(0,0,0)
(0,0,0)
(0,0,0)
(0,0,0)
(0,0,0)
(0,0,0)
(0,0,0)
(0,0,0)
(0,0,0)
(0,0,0)
(0,0,0)
(0,0,0)
(0,0,0)
(0,0,0)
(0,0,0)
(0,0,0)
(0,0,0)
(0,0,0)
(0,0,0)
(0,0,0)
(0,0,0)
(0,0,0)
(0,0,0)
(0,0,0)
(0,0,0)
(0,0,0)
(0,0,0)
(0,0,0)
(0,0,0)
(0,0,0)
(0,0,0)
(0,0,0)
(0,0,0)
(0,0,0)
(0,0,0)
(0,0,0)
(0,0,0)
(0,0,0)
(0,0,0)
(0,0,0)
(0,0,0)
(0,0,0)
(0,0,0)
(0,0,0)
(0,0,0)
(0,0,0)
(0,0,0)
(0,0,0)
(0,0,0)
(0,0,0)
(0,0,0)
(0,0,0)
(0,0,0)
(0,0,0)
(0,0,0)
(0,0,0)
(0,0,0)
(0,0,0)
(0,0,0)
(0,0,0)
(0,0,0)
(0,0,0)
(0,0,0)
(0,0,0)
(0,0,0)
(0,0,0)
(0,0,0)
(0,0,0)
(0,0,0)
(0,0,0)
(0,0,0)
(0,0,0)
(0,0,0)
(0,0,0)
(0,0,0)
(0,0,0)
(0,0,0)
(0,0,0)
(0,0,0)
(0,0,0)
(0,0,0)
(0,0,0)
(0,0,0)
(0,0,0)
(0,0,0)
(0,0,0)
(0,0,0)
(0,0,0)
(0,0,0)
(0,0,0)
(0,0,0)
(0,0,0)
(0,0,0)
(0,0,0)
(0,0,0)
(0,0,0)
(0,0,0)
(0,0,0)
(0,0,0)
(0,0,0)
(0,0,0)
(0,0,0)
(0,0,0)
(0,0,0)
(0,0,0)
(0,0,0)
(0,0,0)
(0,0,0)
(0,0,0)
(0,0,0)
(0,0,0)
(0,0,0)
(0,0,0)
(0,0,0)
(0,0,0)
(0,0,0)
(0,0,0)
(0,0,0)
(0,0,0)
(0,0,0)
(0,0,0)
(0,0,0)
(0,0,0)
(0,0,0)
(0,0,0)
(0,0,0)
(0,0,0)
(0,0,0)
(0,0,0)
(0,0,0)
(0,0,0)
(0,0,0)
(0,0,0)
(0,0,0)
(0,0,0)
(0,0,0)
(0,0,0)
(0,0,0)
(0,0,0)
(0,0,0)
(0,0,0)
(0,0,0)
(0,0,0)
(0,0,0)
(0,0,0)
(0,0,0)
(0,0,0)
(0,0,0)
(0,0,0)
(0,0,0)
(0,0,0)
(0,0,0)
(0,0,0)
(0,0,0)
(0,0,0)
(0,0,0)
(0,0,0)
(0,0,0)
(0,0,0)
(0,0,0)
(0,0,0)
(0,0,0)
(0,0,0)
(0,0,0)
(0,0,0)
(0,0,0)
(0,0,0)
(0,0,0)
(0,0,0)
(0,0,0)
(0,0,0)
(0,0,0)
(0,0,0)
(0,0,0)
(0,0,0)
(0,0,0)
(0,0,0)
(0,0,0)
(0,0,0)
(0,0,0)
(0,0,0)
(0,0,0)
(0,0,0)
(0,0,0)
(0,0,0)
(0,0,0)
(0,0,0)
(0,0,0)
(0,0,0)
(0,0,0)
(0,0,0)
(0,0,0)
(0,0,0)
(0,0,0)
(0,0,0)
(0,0,0)
(0,0,0)
(0,0,0)
(0,0,0)
(0,0,0)
(0,0,0)
(0,0,0)
(0,0,0)
(0,0,0)
(0,0,0)
(0,0,0)
(0,0,0)
(0,0,0)
(0,0,0)
(0,0,0)
(0,0,0)
(0,0,0)
(0,0,0)
(0,0,0)
(0,0,0)
(0,0,0)
(0,0,0)
(0,0,0)
(0,0,0)
(0,0,0)
(0,0,0)
(0,0,0)
(0,0,0)
(0,0,0)
(0,0,0)
(0,0,0)
(0,0,0)
(0,0,0)
(0,0,0)
(0,0,0)
(0,0,0)
(0,0,0)
(-219925.51359301,116972.316521956,102953.197071054)
(-232595.930675902,112159.380142364,223389.747604592)
(-261905.225370766,102109.477414414,383185.495560944)
(-317291.356886944,86331.4715104827,614145.380937406)
(-417215.93949968,65062.2333875488,966299.087049542)
(-596477.591398714,40568.1978775434,1522208.4805707)
(-921058.452306579,18288.9793347657,2424977.95354253)
(-1507648.34210007,4638.01979173831,3927988.27585086)
(-2486403.65227289,89.3089471723129,6414302.61917661)
(-3464122.98693562,-317.340594355306,9878742.94670658)
(0,0,0)
(0,0,0)
(0,0,0)
(0,0,0)
(0,0,0)
(0,0,0)
(-232603.524079471,251398.916575363,98176.9240260649)
(-245401.752771401,242344.815813318,213393.241126514)
(-275191.590801409,223238.794705351,367455.514636986)
(-331891.006397916,192761.397789297,592916.594756088)
(-434574.046866665,150679.651441263,941873.223569037)
(-618137.448945723,100596.523561853,1499982.34683045)
(-946295.869235371,53208.7089636275,2411358.48643695)
(-1530663.17983351,23189.9056440868,3923469.78041809)
(-2501754.35896172,11379.6454967933,6413933.80283022)
(-3471294.02506634,5812.14054400017,9879098.34675816)
(0,0,0)
(0,0,0)
(0,0,0)
(0,0,0)
(0,0,0)
(0,0,0)
(-261622.965621585,423932.804993964,89089.0772029826)
(-274640.907182976,411773.942405909,194300.857793368)
(-305377.399161803,385896.960691584,337020.090968938)
(-364918.21881127,343829.927852732,550869.779716776)
(-474152.81602962,283847.925456239,891854.321731421)
(-669090.259161475,208886.389264243,1452654.7151905)
(-1008534.68547326,132977.532545887,2381420.57708151)
(-1587966.80174299,80825.2852526516,3911751.99921593)
(-2538662.64117662,53304.6825818211,6408489.60330755)
(-3488021.96123389,28886.3627969797,9873437.34228844)
(0,0,0)
(0,0,0)
(0,0,0)
(0,0,0)
(0,0,0)
(0,0,0)
(-315706.068500363,662756.875543636,76881.9979506917)
(-328941.143973911,649165.762914027,168431.321416486)
(-360857.162675526,620156.31623028,295029.128553311)
(-424485.095170539,572397.567501518,490946.584075063)
(-544554.30169948,502414.547516776,816934.263714007)
(-761355.51151941,410391.20634005,1376784.95815761)
(-1127763.50992101,308177.760272799,2329348.24035171)
(-1698849.43207082,224690.159781238,3884332.79789393)
(-2606287.30119602,159691.292240597,6384233.48943117)
(-3517526.13242309,85924.6819377072,9844721.30271356)
(0,0,0)
(0,0,0)
(0,0,0)
(0,0,0)
(0,0,0)
(0,0,0)
(-412593.076443223,1012066.05271091,63283.8992759469)
(-425778.225045703,998829.216190121,139398.671045554)
(-458326.819391853,970614.52920058,247267.277467108)
(-525387.49242412,924070.143739731,420982.193653015)
(-656618.598444524,855053.792803737,724961.54681058)
(-900498.163949707,761195.634780127,1274655.2823202)
(-1309313.80666297,646170.540490598,2245976.30876538)
(-1867646.39566529,518928.48071404,3819384.38349787)
(-2704531.77246377,373007.63001467,6310599.8181876)
(-3560133.65165278,197689.476803834,9758968.67497426)
(0,0,0)
(0,0,0)
(0,0,0)
(0,0,0)
(0,0,0)
(0,0,0)
(-587433.363655315,1549469.38119098,50030.035175252)
(-599948.975471349,1537660.27102258,111147.955814141)
(-631428.095903418,1512502.26029603,200688.320622108)
(-697829.721765183,1470602.74973429,351985.436392725)
(-830449.304901147,1406307.81985081,631180.714246796)
(-1078981.80155794,1311605.29991722,1159752.85066765)
(-1489050.12118811,1176022.04639375,2118951.46595261)
(-2022043.84362198,986333.914345702,3673589.87594292)
(-2810968.89983565,722155.21199801,6135411.19379525)
(-3613760.08927041,385481.802588235,9561378.95728123)
(0,0,0)
(0,0,0)
(0,0,0)
(0,0,0)
(0,0,0)
(0,0,0)
(-908329.339201644,2419533.25611051,38265.4642821166)
(-919423.431825732,2409332.74638251,86016.4207479148)
(-947681.558672249,2387411.32608272,158788.913633475)
(-1008341.89448842,2349945.84563687,287787.712219319)
(-1131538.38864386,2289032.3600962,536601.560617796)
(-1365073.63705702,2188973.92869911,1024306.56889292)
(-1749907.64287131,2020731.84428552,1929504.41387247)
(-2234563.60093127,1740863.48975339,3409538.43939604)
(-2969582.77703454,1302487.28778497,5798789.1406436)
(-3701281.66172923,709646.458485833,9175906.14647526)
(0,0,0)
(0,0,0)
(0,0,0)
(0,0,0)
(0,0,0)
(0,0,0)
(-1495202.26098416,3886652.9638972,28082.5531974683)
(-1504098.18048822,3877405.94430774,64107.5357604654)
(-1526879.70196863,3857022.41915394,121376.144657879)
(-1576201.91611249,3820541.84904958,226982.057357659)
(-1677449.80336968,3756782.39368319,436681.827140345)
(-1871594.41462703,3640993.13374764,856257.036718848)
(-2193858.77524796,3420990.77541948,1649856.88083283)
(-2586196.43962382,3005643.38445102,2971273.42575904)
(-3257470.90883484,2325220.34749943,5206011.27487943)
(-3868567.30415373,1317939.61014798,8466285.42737097)
(0,0,0)
(0,0,0)
(0,0,0)
(0,0,0)
(0,0,0)
(0,0,0)
(-2477867.02612727,6345668.93463117,18851.0553932921)
(-2483945.43712325,6336447.86414534,43754.5726789579)
(-2499449.23756191,6315250.44110726,84975.7882875349)
(-2532634.44090575,6274840.30240381,163311.775839061)
(-2599520.38751526,6198639.28797561,320975.269061921)
(-2725150.56270795,6050700.69825835,636418.267259142)
(-2936093.49822552,5758820.6779616,1234681.86294255)
(-3249479.3754686,5198866.15504198,2290938.46782018)
(-3788449.77748975,4205830.52071139,4198778.07209796)
(-4160316.65800594,2528714.51923739,7148319.8210145)
(0,0,0)
(0,0,0)
(0,0,0)
(0,0,0)
(0,0,0)
(0,0,0)
(-3460192.79285379,9796265.96869095,9595.75879398736)
(-3463232.91130355,9786726.49948508,22550.0347577891)
(-3470940.16971067,9764144.6956004,44595.9499753208)
(-3487236.22286169,9719515.41021403,87157.0650267855)
(-3519628.66201833,9632342.13555508,173082.879465651)
(-3580142.47477748,9459222.58940596,344703.46309552)
(-3685714.47821669,9114357.85487491,674880.764398893)
(-3863596.49229467,8439385.92213761,1297957.48959792)
(-4159358.50778696,7141426.70914494,2521719.80895133)
(-4188836.10996183,4619659.15107923,4619611.28707133)
(0,0,0)
(0,0,0)
(0,0,0)
(0,0,0)
(0,0,0)
(0,0,0)
(0,0,0)
(0,0,0)
(0,0,0)
(0,0,0)
(0,0,0)
(0,0,0)
(0,0,0)
(0,0,0)
(0,0,0)
(0,0,0)
(0,0,0)
(0,0,0)
(0,0,0)
(0,0,0)
(0,0,0)
(0,0,0)
(0,0,0)
(0,0,0)
(0,0,0)
(0,0,0)
(0,0,0)
(0,0,0)
(0,0,0)
(0,0,0)
(0,0,0)
(0,0,0)
(0,0,0)
(0,0,0)
(0,0,0)
(0,0,0)
(0,0,0)
(0,0,0)
(0,0,0)
(0,0,0)
(0,0,0)
(0,0,0)
(0,0,0)
(0,0,0)
(0,0,0)
(0,0,0)
(0,0,0)
(0,0,0)
(0,0,0)
(0,0,0)
(0,0,0)
(0,0,0)
(0,0,0)
(0,0,0)
(0,0,0)
(0,0,0)
(0,0,0)
(0,0,0)
(0,0,0)
(0,0,0)
(0,0,0)
(0,0,0)
(0,0,0)
(0,0,0)
(0,0,0)
(0,0,0)
(0,0,0)
(0,0,0)
(0,0,0)
(0,0,0)
(0,0,0)
(0,0,0)
(0,0,0)
(0,0,0)
(0,0,0)
(0,0,0)
(0,0,0)
(0,0,0)
(0,0,0)
(0,0,0)
(0,0,0)
(0,0,0)
(0,0,0)
(0,0,0)
(0,0,0)
(0,0,0)
(0,0,0)
(0,0,0)
(0,0,0)
(0,0,0)
(0,0,0)
(0,0,0)
(0,0,0)
(0,0,0)
(0,0,0)
(0,0,0)
(0,0,0)
(0,0,0)
(0,0,0)
(0,0,0)
(0,0,0)
(0,0,0)
(32485951.4340097,104231.017360409,90315.9921234063)
(32464763.4760101,99296.7493999188,194083.793124089)
(32416023.65995,88788.2513794495,327790.613510469)
(32324951.6527842,71740.370769836,514231.190156014)
(32162795.3908216,47703.9053546105,786939.911566676)
(31874500.4880876,18901.9532941081,1197483.83587275)
(31345602.1815817,-6956.78834898251,1838203.94742001)
(30300436.2593124,-18370.0001992858,2948913.30329342)
(27942155.8470088,-15239.6030213401,5436017.36411954)
(21537627.324261,-7474.63369223838,13342165.6437017)
(0,0,0)
(0,0,0)
(0,0,0)
(0,0,0)
(0,0,0)
(0,0,0)
(32464313.7044749,222345.009727342,85392.7361652593)
(32443056.7406513,213048.375649109,183606.573579984)
(32393874.0493558,192998.706026165,310754.435862613)
(32301098.8860323,159720.414995657,490208.456293089)
(32134506.8276399,111090.50535472,758164.938872976)
(31838104.6932031,49614.7001990215,1171634.00690583)
(31301108.5542506,-9082.394514342,1826779.1466718)
(30260273.1711354,-34158.3855164439,2952055.13810663)
(27917175.9503602,-25544.8392066984,5443854.0220566)
(21526687.0836289,-10914.8295554696,13349737.0663111)
(0,0,0)
(0,0,0)
(0,0,0)
(0,0,0)
(0,0,0)
(0,0,0)
(32415257.5137849,369821.360609092,76067.1267983312)
(32393924.4723977,357424.907144324,163549.172809006)
(32343776.2194434,330349.044258955,277469.173057607)
(32246951.537521,284179.559450843,441564.229356732)
(32068824.446608,213375.161501192,696726.267659221)
(31748129.2423262,116543.746435081,1113001.67702206)
(31180370.2814014,13678.9582312544,1801759.31448839)
(30149459.2241029,-30116.1355153894,2960714.99572811)
(27852725.7305914,-14375.9202635809,5458581.66210355)
(21499948.4056429,-646.022388203618,13360766.445146)
(0,0,0)
(0,0,0)
(0,0,0)
(0,0,0)
(0,0,0)
(0,0,0)
(32325114.3901165,565791.928475158,63632.9306036383)
(32303812.1954533,552248.89181067,136479.563596681)
(32252442.702012,522603.128627963,231349.571626758)
(32149285.2969988,471387.483726248,370795.212268617)
(31949898.4630295,390207.362677442,599934.203449941)
(31574258.6313311,271102.968616081,1010184.79550496)
(30911995.5923758,126500.760355219,1758027.8481708)
(29897170.9055099,55794.0813095544,2976521.25085169)
(27722488.1532126,61347.1404182395,5472446.69284779)
(21449939.5716499,43238.0179886808,13361520.9054845)
(0,0,0)
(0,0,0)
(0,0,0)
(0,0,0)
(0,0,0)
(0,0,0)
(32166458.9867547,837101.822252729,50062.0001110461)
(32145641.4050665,824514.682814396,106800.536081701)
(32094014.6797542,797348.921956977,180137.200693241)
(31985452.8736639,751449.525355372,289658.750062636)
(31761748.5670571,681039.311579695,480883.59274534)
(31303706.7888427,582557.11539709,865648.450258538)
(30429556.8540391,466286.120330935,1687416.38666738)
(29429434.2083752,364427.171409423,2982126.6496136)
(27518386.7556247,266500.144200997,5454479.07482887)
(21375585.9489296,144016.263224272,13318405.1860974)
(0,0,0)
(0,0,0)
(0,0,0)
(0,0,0)
(0,0,0)
(0,0,0)
(31884244.1090254,1228377.31185237,37470.9948062718)
(31864847.2147742,1217993.43515431,79620.0093073581)
(31815683.3685885,1196053.40827029,134228.01558871)
(31709097.3206023,1159880.85585783,219293.599805389)
(31482805.5522497,1105027.78724894,382474.224071818)
(31011626.6057366,1025361.01182759,749485.877433324)
(30126429.3389773,914996.04816709,1585720.44651833)
(29170542.2096287,773693.296199244,2884292.22556438)
(27344669.3105267,563480.919265185,5332097.19722441)
(21290365.2576264,297965.761158402,13174446.30948)
(0,0,0)
(0,0,0)
(0,0,0)
(0,0,0)
(0,0,0)
(0,0,0)
(31360873.9447454,1832450.04525853,27147.9397334169)
(31343966.8661202,1824456.96431429,57718.0697140508)
(31300415.782915,1808011.29570447,98086.7977792275)
(31203669.8082133,1781834.89335165,164545.014670342)
(30992680.6697191,1742863.91503654,302913.785606299)
(30542105.9129712,1682245.85279401,639273.351698303)
(29683551.0947486,1576588.08530886,1444646.53402322)
(28820906.8109371,1389080.24108762,2674213.1343531)
(27087425.5290839,1014484.17837999,5066625.52620639)
(21144924.2712795,542314.525759558,12876494.7856831)
(0,0,0)
(0,0,0)
(0,0,0)
(0,0,0)
(0,0,0)
(0,0,0)
(30314818.6580775,2903660.26462895,19192.8186545108)
(30301464.4234287,2897195.22289408,41315.9132443365)
(30266773.462637,2884082.91025167,72015.0911780651)
(30188643.8638948,2863728.88493852,125699.2766705)
(30014794.7677421,2834330.93310298,242411.6445788)
(29632577.126724,2787105.74207683,533804.171031473)
(28881112.113723,2678489.39258976,1257355.93186619)
(28318788.3726875,2342124.36513015,2299750.9525989)
(26568643.9267183,1794030.57521359,4594513.67729868)
(20808398.155036,1026067.01268402,12334219.688271)
(0,0,0)
(0,0,0)
(0,0,0)
(0,0,0)
(0,0,0)
(0,0,0)
(27950547.2322025,5362895.16580222,12774.7975834648)
(27941538.4927096,5356641.50173707,28268.5459942298)
(27918336.476991,5343203.55225733,51786.1465222112)
(27867228.1961029,5319657.89346955,96418.4580690553)
(27758425.1872631,5277951.39813374,195276.37534652)
(27537111.0556236,5195178.07596423,425366.380214132)
(27138251.1141212,5008752.49070784,921182.626835924)
(26578124.8396739,4584365.9590903,1751760.77481989)
(24996561.4687192,3834617.36196227,3826586.69894879)
(19784620.4509179,2500007.71235373,11308132.8474418)
(0,0,0)
(0,0,0)
(0,0,0)
(0,0,0)
(0,0,0)
(0,0,0)
(21540724.1457666,13255849.9783301,6552.20593827114)
(21536248.1577372,13249278.1537152,14858.4420060347)
(21524862.0639447,13234385.9822149,28297.7354796254)
(21500318.8870526,13206052.521169,54771.954952501)
(21449733.8990881,13151236.7545802,112547.994486219)
(21350275.3242176,13038640.9542194,239091.274322572)
(21166187.9854738,12799425.4113174,496939.847109068)
(20813667.1996507,12302403.5902729,1002062.48106765)
(19785412.7138867,11300299.9741161,2492032.60432673)
(16087338.8605294,8808165.63517451,8808123.66810131)
(0,0,0)
(0,0,0)
(0,0,0)
(0,0,0)
(0,0,0)
(0,0,0)
(0,0,0)
(0,0,0)
(0,0,0)
(0,0,0)
(0,0,0)
(0,0,0)
(0,0,0)
(0,0,0)
(0,0,0)
(0,0,0)
(0,0,0)
(0,0,0)
(0,0,0)
(0,0,0)
(0,0,0)
(0,0,0)
(0,0,0)
(0,0,0)
(0,0,0)
(0,0,0)
(0,0,0)
(0,0,0)
(0,0,0)
(0,0,0)
(0,0,0)
(0,0,0)
(0,0,0)
(0,0,0)
(0,0,0)
(0,0,0)
(0,0,0)
(0,0,0)
(0,0,0)
(0,0,0)
(0,0,0)
(0,0,0)
(0,0,0)
(0,0,0)
(0,0,0)
(0,0,0)
(0,0,0)
(0,0,0)
(0,0,0)
(0,0,0)
(0,0,0)
(0,0,0)
(0,0,0)
(0,0,0)
(0,0,0)
(0,0,0)
(0,0,0)
(0,0,0)
(0,0,0)
(0,0,0)
(0,0,0)
(0,0,0)
(0,0,0)
(0,0,0)
(0,0,0)
(0,0,0)
(0,0,0)
(0,0,0)
(0,0,0)
(0,0,0)
(0,0,0)
(0,0,0)
(0,0,0)
(0,0,0)
(0,0,0)
(0,0,0)
(0,0,0)
(0,0,0)
(0,0,0)
(0,0,0)
(0,0,0)
(0,0,0)
(0,0,0)
(0,0,0)
(0,0,0)
(0,0,0)
(0,0,0)
(0,0,0)
(0,0,0)
(0,0,0)
(0,0,0)
(0,0,0)
(0,0,0)
(0,0,0)
(0,0,0)
(0,0,0)
(0,0,0)
(0,0,0)
(0,0,0)
(0,0,0)
(0,0,0)
(0,0,0)
(-566113.511574729,82573.4749838442,69067.5135140598)
(-589509.174669083,77607.0311567629,145309.175949877)
(-642429.719201569,66646.5623040318,236692.035710818)
(-738692.287710171,47866.9418314484,352045.077287213)
(-903435.031473948,19392.6020138477,498458.940482365)
(-1178279.72507939,-17496.5948913831,668311.791454237)
(-1627711.3648499,-51463.381645464,792664.762444737)
(-2338903.89287522,-58514.3871943553,590095.34474012)
(-3358606.67945522,-40188.4400563943,-969377.645825968)
(-4116822.20001172,-18395.3427210245,-8196956.73591878)
(0,0,0)
(0,0,0)
(0,0,0)
(0,0,0)
(0,0,0)
(0,0,0)
(-590922.470283427,173278.198975081,64107.4936805266)
(-613940.486265992,163900.169942023,134387.624725941)
(-666313.145480198,142877.204242986,217920.220536429)
(-762644.19607702,105537.025361056,323569.26202963)
(-929889.799740219,45366.0699188987,461568.464418142)
(-1212180.23340969,-40405.7199037855,634338.558956736)
(-1672132.99443334,-129882.678748531,785575.447657179)
(-2376465.28813185,-145038.639479443,608414.202122927)
(-3377449.2389872,-90042.8458807383,-947530.159791833)
(-4123484.88805664,-37674.4229423727,-8178503.06497147)
(0,0,0)
(0,0,0)
(0,0,0)
(0,0,0)
(0,0,0)
(0,0,0)
(-646241.271003781,279620.734494557,54732.2921826411)
(-668494.638292916,267248.236611225,113379.379117491)
(-719929.134517247,238963.846401668,180574.13383286)
(-817175.742438927,186456.666829212,263357.815238046)
(-993065.732353095,94385.9442866906,375804.162744766)
(-1304428.64681217,-57401.5404395937,544933.915332364)
(-1820688.77255187,-254771.791934519,770458.125385043)
(-2506482.28110368,-282484.688473183,663421.722498693)
(-3434489.82729682,-144690.824337899,-895138.698242484)
(-4141765.42827131,-50703.7365209137,-8140819.50783626)
(0,0,0)
(0,0,0)
(0,0,0)
(0,0,0)
(0,0,0)
(0,0,0)
(-744991.551651995,406978.904853981,42323.8143225034)
(-766078.976698888,393945.872393202,85093.3936061154)
(-816081.273780622,364055.159015665,128102.099698131)
(-915328.001520753,307448.020669625,171300.087290667)
(-1110815.65901668,201923.190011353,224053.00652563)
(-1507586.86777345,416.935247583941,347656.072856476)
(-2282294.35692912,-356075.460701945,742825.733842219)
(-2932122.04620722,-412059.579013943,801269.619013545)
(-3577443.93475315,-142865.138758413,-801047.93568674)
(-4180986.98385967,-31200.7916382907,-8090048.28214636)
(0,0,0)
(0,0,0)
(0,0,0)
(0,0,0)
(0,0,0)
(0,0,0)
(-910849.421493294,554615.463275764,29247.8927396735)
(-930215.716737616,543461.355880546,55165.5739698616)
(-977441.162710289,518762.353534145,71490.2648292627)
(-1076723.59320855,474868.937292651,65821.8579921447)
(-1295384.85674675,401872.506422787,22582.0082979871)
(-1855226.13937405,290281.46962521,-8773.55494948929)
(-3685571.51304157,162943.71210114,686911.682241454)
(-4372021.04107567,105380.467256975,1070502.92833483)
(-3857874.1079668,92699.6824021781,-689224.986320781)
(-4245301.43095976,58755.6488943068,-8058718.0040505)
(0,0,0)
(0,0,0)
(0,0,0)
(0,0,0)
(0,0,0)
(0,0,0)
(-1184242.74030336,704597.825684726,18080.5298331656)
(-1201218.51096979,696733.486564538,30450.1678066088)
(-1243520.72594143,680407.353209856,27585.3055742415)
(-1335852.99309147,654089.318345945,-7108.71887189154)
(-1548470.73215288,614553.022623106,-88936.9077561466)
(-2106979.65478872,555534.310013719,-136007.444705891)
(-3848268.70050135,471842.618266122,629367.731521195)
(-4476816.46229598,423855.357779557,1057827.55583673)
(-3988291.80922009,306145.43228733,-723081.031388204)
(-4309508.05094877,152532.582846917,-8117408.61385216)
(0,0,0)
(0,0,0)
(0,0,0)
(0,0,0)
(0,0,0)
(0,0,0)
(-1631112.29024849,785909.47335693,10250.6302350604)
(-1645108.2697681,781486.828147432,14148.4674539194)
(-1680661.65666698,773901.763004554,1307.54015458844)
(-1761128.56981261,766307.262981373,-46535.983541586)
(-1956359.76884938,764497.665303223,-147864.14473974)
(-2503393.95371047,772289.940565672,-219543.865696658)
(-4319924.99996612,773755.95227154,581594.937926071)
(-4900954.6390135,886678.897896417,940208.890673201)
(-4185507.66157092,495526.72209988,-876663.165571081)
(-4415441.67727126,205725.903073738,-8269914.49433369)
(0,0,0)
(0,0,0)
(0,0,0)
(0,0,0)
(0,0,0)
(0,0,0)
(-2344268.63956495,538716.951083528,5855.86282926732)
(-2354815.59207815,536596.657237724,6602.09215928291)
(-2381960.52862815,534996.073721667,-6182.18437923021)
(-2445072.84030115,541659.567607265,-48241.741895769)
(-2606673.60038336,577299.088945006,-139998.754498615)
(-3108651.02408994,691021.350046151,-217925.970251665)
(-5093258.61393553,935080.265216249,694696.487375578)
(-4150433.03537632,601024.141728946,549148.694520273)
(-4342301.24466818,221634.478066064,-1166437.84714595)
(-4579303.18465073,2139.77312806512,-8475574.33460002)
(0,0,0)
(0,0,0)
(0,0,0)
(0,0,0)
(0,0,0)
(0,0,0)
(-3367152.64234861,-1047791.43625211,3784.30480024906)
(-3374026.94243614,-1049546.50363655,5068.94373367128)
(-3391449.0002021,-1051195.35679038,621.894352274185)
(-3430263.7481344,-1048197.8029507,-12452.7479389782)
(-3519285.34585569,-1031712.42549028,-26154.6574714833)
(-3732153.58598753,-992612.183123219,26319.5602224358)
(-4197422.69012353,-964164.304816597,360813.977413419)
(-4349482.80273084,-1180809.97192164,169831.77638214)
(-4749365.24583926,-1377097.85298702,-1385933.13509287)
(-4824297.23962325,-1197604.77884006,-8477694.84967015)
(0,0,0)
(0,0,0)
(0,0,0)
(0,0,0)
(0,0,0)
(0,0,0)
(-4123329.67790666,-8286264.2235742,2102.65390879777)
(-4126688.30105032,-8288418.3099209,3486.96189401898)
(-4135045.91131855,-8291952.50611053,3728.12939086289)
(-4152980.23707861,-8295762.14439768,4167.63788245638)
(-4191224.29890591,-8300061.35060128,13050.8039008952)
(-4271406.71034668,-8313225.74677449,54922.4450298886)
(-4419493.23801893,-8368279.50223753,144294.908857002)
(-4584189.77899649,-8512671.76025802,-26410.281246002)
(-4825758.94980644,-8486349.9524666,-1206410.47515981)
(-4656964.88835402,-7280050.54600439,-7280084.91619863)
(0,0,0)
(0,0,0)
(0,0,0)
(0,0,0)
(0,0,0)
(0,0,0)
(0,0,0)
(0,0,0)
(0,0,0)
(0,0,0)
(0,0,0)
(0,0,0)
(0,0,0)
(0,0,0)
(0,0,0)
(0,0,0)
(0,0,0)
(0,0,0)
(0,0,0)
(0,0,0)
(0,0,0)
(0,0,0)
(0,0,0)
(0,0,0)
(0,0,0)
(0,0,0)
(0,0,0)
(0,0,0)
(0,0,0)
(0,0,0)
(0,0,0)
(0,0,0)
(0,0,0)
(0,0,0)
(0,0,0)
(0,0,0)
(0,0,0)
(0,0,0)
(0,0,0)
(0,0,0)
(0,0,0)
(0,0,0)
(0,0,0)
(0,0,0)
(0,0,0)
(0,0,0)
(0,0,0)
(0,0,0)
(0,0,0)
(0,0,0)
(0,0,0)
(0,0,0)
(0,0,0)
(0,0,0)
(0,0,0)
(0,0,0)
(0,0,0)
(0,0,0)
(0,0,0)
(0,0,0)
(0,0,0)
(0,0,0)
(0,0,0)
(0,0,0)
(0,0,0)
(0,0,0)
(0,0,0)
(0,0,0)
(0,0,0)
(0,0,0)
(0,0,0)
(0,0,0)
(0,0,0)
(0,0,0)
(0,0,0)
(0,0,0)
(0,0,0)
(0,0,0)
(0,0,0)
(0,0,0)
(0,0,0)
(0,0,0)
(0,0,0)
(0,0,0)
(0,0,0)
(0,0,0)
(0,0,0)
(0,0,0)
(0,0,0)
(0,0,0)
(0,0,0)
(0,0,0)
(0,0,0)
(0,0,0)
(0,0,0)
(0,0,0)
(0,0,0)
(0,0,0)
(0,0,0)
(0,0,0)
(0,0,0)
(0,0,0)
(-669605.313291272,57822.621535099,45669.1801814433)
(-689494.407217383,53243.2749282543,92411.1378014876)
(-733244.529093905,42833.041559749,140392.906134077)
(-809509.248267507,23961.0418795483,187248.824811865)
(-932659.081227251,-7011.26054735349,223484.135112523)
(-1122035.74176114,-51356.2412947086,218596.393088984)
(-1394223.23212399,-95858.2365462008,80966.4969092741)
(-1731634.51198984,-96031.9012783853,-430270.982697718)
(-2001364.84770331,-59009.7412280508,-1728503.07322158)
(-1738965.85418483,-25050.4299506394,-4081308.98909784)
(0,0,0)
(0,0,0)
(0,0,0)
(0,0,0)
(0,0,0)
(0,0,0)
(-692161.701027486,117979.551556948,41082.3007222097)
(-710955.947467935,109355.09340363,81985.9434487757)
(-752288.759020756,89306.4895444372,121488.109004645)
(-824499.001062919,51065.216405894,156238.739464198)
(-942007.447793522,-17760.1270767763,179105.254046922)
(-1125879.67370234,-132636.181312512,174084.634357378)
(-1396270.84327638,-278416.380788948,80780.6274431624)
(-1723428.00842365,-275059.943450225,-393228.610093198)
(-1988070.20279461,-147128.391110218,-1694488.99640362)
(-1730785.02184174,-55995.460291779,-4056243.83227739)
(0,0,0)
(0,0,0)
(0,0,0)
(0,0,0)
(0,0,0)
(0,0,0)
(-741492.266660549,180759.511993631,32471.0352200856)
(-758135.899844531,169547.542057364,61919.8481179646)
(-794676.853862883,142755.897149414,83218.1598586245)
(-858565.325711256,88307.7278299586,87365.2317068924)
(-964305.612437747,-23368.272430089,64213.2571448527)
(-1140604.15075212,-260582.420397589,28335.000169883)
(-1438550.18840209,-716385.472299416,84165.5075305672)
(-1723970.57383567,-708151.229754837,-265254.913432838)
(-1955854.48067206,-287700.892520247,-1603317.75864757)
(-1710854.47598879,-89976.2585256719,-4000247.9126962)
(0,0,0)
(0,0,0)
(0,0,0)
(0,0,0)
(0,0,0)
(0,0,0)
(-826460.490337697,240982.08511948,21246.3655598525)
(-840063.677158267,229664.467286734,35114.1407898612)
(-869548.490619445,202564.827277471,28772.4275006281)
(-919926.795847818,145978.287619984,-24299.3379623316)
(-1002785.23797481,17273.5781380688,-172971.609572362)
(-1166439.74080363,-347302.371189652,-427398.785750128)
(-1759157.01628365,-1759405.99448179,92484.3957867641)
(-1851091.27887132,-1851979.75368754,155282.152383569)
(-1881047.54340002,-423335.75001235,-1405479.38147746)
(-1670667.30858882,-95564.5620747971,-3910210.75319919)
(0,0,0)
(0,0,0)
(0,0,0)
(0,0,0)
(0,0,0)
(0,0,0)
(-960838.644250015,281057.091432386,9914.21644381273)
(-970900.927071057,272291.061028008,7972.83303597829)
(-991542.929732764,252502.844463466,-27863.4171275417)
(-1021223.0381381,215581.954638728,-152967.639216734)
(-1042188.92863287,148632.844483257,-537522.833675809)
(-938978.644930851,38378.5391560809,-1839451.23846475)
(-1.06918405041386e-05,-3.75345119761563e-06,7.76610215833478e-06)