/*--------------------------------*- C++ -*----------------------------------*\
| =========                 |                                                 |
| \\      /  F ield         | foam-extend: Open Source CFD                    |
|  \\    /   O peration     | Version:     4.0                                |
|   \\  /    A nd           | Web:         http://www.foam-extend.org         |
|    \\/     M anipulation  |                                                 |
\*---------------------------------------------------------------------------*/
FoamFile
{
    version 2.0;
    format ascii;
    class volVectorField;
    location "Data/3122";
    object      E;
}
// * * * * * * * * * * * * * * * * * * * * * * * * * * * * * * * * * * * * * //

dimensions      [0 1 -1 0 0 0 0];

internalField   nonuniform List<vector>
4096
(
(0,0,0)
(0,0,0)
(0,0,0)
(0,0,0)
(0,0,0)
(0,0,0)
(0,0,0)
(0,0,0)
(0,0,0)
(0,0,0)
(0,0,0)
(0,0,0)
(0,0,0)
(0,0,0)
(0,0,0)
(0,0,0)
(0,0,0)
(0,0,0)
(0,0,0)
(0,0,0)
(0,0,0)
(0,0,0)
(0,0,0)
(0,0,0)
(0,0,0)
(0,0,0)
(0,0,0)
(0,0,0)
(0,0,0)
(0,0,0)
(0,0,0)
(0,0,0)
(0,0,0)
(0,0,0)
(0,0,0)
(0,0,0)
(0,0,0)
(0,0,0)
(0,0,0)
(0,0,0)
(0,0,0)
(0,0,0)
(0,0,0)
(0,0,0)
(0,0,0)
(0,0,0)
(0,0,0)
(0,0,0)
(0,0,0)
(0,0,0)
(0,0,0)
(0,0,0)
(0,0,0)
(0,0,0)
(0,0,0)
(0,0,0)
(0,0,0)
(0,0,0)
(0,0,0)
(0,0,0)
(0,0,0)
(0,0,0)
(0,0,0)
(0,0,0)
(0,0,0)
(0,0,0)
(0,0,0)
(0,0,0)
(0,0,0)
(0,0,0)
(0,0,0)
(0,0,0)
(0,0,0)
(0,0,0)
(0,0,0)
(0,0,0)
(0,0,0)
(0,0,0)
(0,0,0)
(0,0,0)
(0,0,0)
(0,0,0)
(0,0,0)
(0,0,0)
(0,0,0)
(0,0,0)
(0,0,0)
(0,0,0)
(0,0,0)
(0,0,0)
(0,0,0)
(0,0,0)
(0,0,0)
(0,0,0)
(0,0,0)
(0,0,0)
(0,0,0)
(0,0,0)
(0,0,0)
(0,0,0)
(0,0,0)
(0,0,0)
(0,0,0)
(0,0,0)
(0,0,0)
(0,0,0)
(0,0,0)
(0,0,0)
(0,0,0)
(0,0,0)
(0,0,0)
(0,0,0)
(0,0,0)
(0,0,0)
(0,0,0)
(0,0,0)
(0,0,0)
(0,0,0)
(0,0,0)
(0,0,0)
(0,0,0)
(0,0,0)
(0,0,0)
(0,0,0)
(0,0,0)
(0,0,0)
(0,0,0)
(0,0,0)
(0,0,0)
(0,0,0)
(0,0,0)
(0,0,0)
(0,0,0)
(0,0,0)
(0,0,0)
(0,0,0)
(0,0,0)
(0,0,0)
(0,0,0)
(0,0,0)
(0,0,0)
(0,0,0)
(0,0,0)
(0,0,0)
(0,0,0)
(0,0,0)
(0,0,0)
(0,0,0)
(0,0,0)
(0,0,0)
(0,0,0)
(0,0,0)
(0,0,0)
(0,0,0)
(0,0,0)
(0,0,0)
(0,0,0)
(0,0,0)
(0,0,0)
(0,0,0)
(0,0,0)
(0,0,0)
(0,0,0)
(0,0,0)
(0,0,0)
(0,0,0)
(0,0,0)
(0,0,0)
(0,0,0)
(0,0,0)
(0,0,0)
(0,0,0)
(0,0,0)
(0,0,0)
(0,0,0)
(0,0,0)
(0,0,0)
(0,0,0)
(0,0,0)
(0,0,0)
(0,0,0)
(0,0,0)
(0,0,0)
(0,0,0)
(0,0,0)
(0,0,0)
(0,0,0)
(0,0,0)
(0,0,0)
(0,0,0)
(0,0,0)
(0,0,0)
(0,0,0)
(0,0,0)
(0,0,0)
(0,0,0)
(0,0,0)
(0,0,0)
(0,0,0)
(0,0,0)
(0,0,0)
(0,0,0)
(0,0,0)
(0,0,0)
(0,0,0)
(0,0,0)
(0,0,0)
(0,0,0)
(0,0,0)
(0,0,0)
(0,0,0)
(0,0,0)
(0,0,0)
(0,0,0)
(0,0,0)
(0,0,0)
(0,0,0)
(0,0,0)
(0,0,0)
(0,0,0)
(0,0,0)
(0,0,0)
(0,0,0)
(0,0,0)
(0,0,0)
(0,0,0)
(0,0,0)
(0,0,0)
(0,0,0)
(0,0,0)
(0,0,0)
(0,0,0)
(0,0,0)
(0,0,0)
(0,0,0)
(0,0,0)
(0,0,0)
(0,0,0)
(0,0,0)
(0,0,0)
(0,0,0)
(0,0,0)
(0,0,0)
(0,0,0)
(0,0,0)
(0,0,0)
(0,0,0)
(0,0,0)
(0,0,0)
(0,0,0)
(0,0,0)
(0,0,0)
(0,0,0)
(0,0,0)
(0,0,0)
(0,0,0)
(0,0,0)
(0,0,0)
(0,0,0)
(0,0,0)
(0,0,0)
(0,0,0)
(0,0,0)
(0,0,0)
(0,0,0)
(0,0,0)
(0,0,0)
(0,0,0)
(0,0,0)
(0,0,0)
(0,0,0)
(0,0,0)
(0,0,0)
(0,0,0)
(0,0,0)
(0,0,0)
(0,0,0)
(0,0,0)
(0,0,0)
(0,0,0)
(0,0,0)
(0,0,0)
(0,0,0)
(0,0,0)
(0,0,0)
(0,0,0)
(0,0,0)
(0,0,0)
(0,0,0)
(0,0,0)
(0,0,0)
(0,0,0)
(0,0,0)
(0,0,0)
(0,0,0)
(0,0,0)
(0,0,0)
(0,0,0)
(0,0,0)
(0,0,0)
(0,0,0)
(0,0,0)
(0,0,0)
(0,0,0)
(0,0,0)
(0,0,0)
(0,0,0)
(0,0,0)
(0,0,0)
(0,0,0)
(0,0,0)
(0,0,0)
(0,0,0)
(0,0,0)
(0,0,0)
(0,0,0)
(0,0,0)
(0,0,0)
(0,0,0)
(0,0,0)
(0,0,0)
(0,0,0)
(0,0,0)
(0,0,0)
(0,0,0)
(0,0,0)
(0,0,0)
(0,0,0)
(0,0,0)
(0,0,0)
(0,0,0)
(0,0,0)
(0,0,0)
(0,0,0)
(0,0,0)
(0,0,0)
(0,0,0)
(0,0,0)
(0,0,0)
(0,0,0)
(0,0,0)
(0,0,0)
(0,0,0)
(0,0,0)
(0,0,0)
(0,0,0)
(0,0,0)
(0,0,0)
(0,0,0)
(0,0,0)
(0,0,0)
(0,0,0)
(0,0,0)
(0,0,0)
(0,0,0)
(0,0,0)
(0,0,0)
(0,0,0)
(0,0,0)
(0,0,0)
(0,0,0)
(0,0,0)
(0,0,0)
(0,0,0)
(0,0,0)
(0,0,0)
(0,0,0)
(0,0,0)
(0,0,0)
(0,0,0)
(0,0,0)
(0,0,0)
(0,0,0)
(0,0,0)
(0,0,0)
(0,0,0)
(0,0,0)
(0,0,0)
(0,0,0)
(0,0,0)
(0,0,0)
(0,0,0)
(0,0,0)
(0,0,0)
(0,0,0)
(0,0,0)
(0,0,0)
(0,0,0)
(0,0,0)
(0,0,0)
(0,0,0)
(0,0,0)
(0,0,0)
(0,0,0)
(0,0,0)
(0,0,0)
(0,0,0)
(0,0,0)
(0,0,0)
(0,0,0)
(0,0,0)
(0,0,0)
(0,0,0)
(0,0,0)
(0,0,0)
(0,0,0)
(0,0,0)
(0,0,0)
(0,0,0)
(0,0,0)
(0,0,0)
(0,0,0)
(0,0,0)
(0,0,0)
(0,0,0)
(0,0,0)
(0,0,0)
(0,0,0)
(0,0,0)
(0,0,0)
(0,0,0)
(0,0,0)
(0,0,0)
(0,0,0)
(0,0,0)
(0,0,0)
(0,0,0)
(0,0,0)
(0,0,0)
(0,0,0)
(0,0,0)
(0,0,0)
(0,0,0)
(0,0,0)
(0,0,0)
(0,0,0)
(0,0,0)
(0,0,0)
(0,0,0)
(0,0,0)
(0,0,0)
(0,0,0)
(0,0,0)
(0,0,0)
(0,0,0)
(0,0,0)
(0,0,0)
(0,0,0)
(0,0,0)
(0,0,0)
(0,0,0)
(0,0,0)
(0,0,0)
(0,0,0)
(0,0,0)
(0,0,0)
(0,0,0)
(0,0,0)
(0,0,0)
(0,0,0)
(0,0,0)
(0,0,0)
(0,0,0)
(0,0,0)
(0,0,0)
(0,0,0)
(0,0,0)
(0,0,0)
(0,0,0)
(0,0,0)
(0,0,0)
(0,0,0)
(0,0,0)
(0,0,0)
(0,0,0)
(0,0,0)
(0,0,0)
(0,0,0)
(0,0,0)
(0,0,0)
(0,0,0)
(0,0,0)
(0,0,0)
(0,0,0)
(0,0,0)
(0,0,0)
(0,0,0)
(0,0,0)
(0,0,0)
(0,0,0)
(0,0,0)
(0,0,0)
(0,0,0)
(0,0,0)
(0,0,0)
(0,0,0)
(0,0,0)
(0,0,0)
(0,0,0)
(0,0,0)
(0,0,0)
(0,0,0)
(0,0,0)
(0,0,0)
(0,0,0)
(0,0,0)
(0,0,0)
(0,0,0)
(0,0,0)
(0,0,0)
(0,0,0)
(0,0,0)
(0,0,0)
(0,0,0)
(0,0,0)
(0,0,0)
(0,0,0)
(0,0,0)
(0,0,0)
(0,0,0)
(0,0,0)
(0,0,0)
(0,0,0)
(0,0,0)
(0,0,0)
(0,0,0)
(0,0,0)
(0,0,0)
(0,0,0)
(0,0,0)
(0,0,0)
(0,0,0)
(0,0,0)
(0,0,0)
(0,0,0)
(0,0,0)
(0,0,0)
(0,0,0)
(0,0,0)
(0,0,0)
(0,0,0)
(0,0,0)
(0,0,0)
(0,0,0)
(0,0,0)
(0,0,0)
(0,0,0)
(0,0,0)
(0,0,0)
(0,0,0)
(0,0,0)
(0,0,0)
(0,0,0)
(0,0,0)
(0,0,0)
(0,0,0)
(0,0,0)
(0,0,0)
(0,0,0)
(0,0,0)
(0,0,0)
(0,0,0)
(0,0,0)
(0,0,0)
(0,0,0)
(0,0,0)
(0,0,0)
(0,0,0)
(0,0,0)
(0,0,0)
(0,0,0)
(0,0,0)
(0,0,0)
(0,0,0)
(0,0,0)
(0,0,0)
(0,0,0)
(0,0,0)
(0,0,0)
(0,0,0)
(0,0,0)
(0,0,0)
(0,0,0)
(0,0,0)
(0,0,0)
(0,0,0)
(0,0,0)
(0,0,0)
(0,0,0)
(0,0,0)
(0,0,0)
(0,0,0)
(0,0,0)
(0,0,0)
(0,0,0)
(0,0,0)
(0,0,0)
(0,0,0)
(0,0,0)
(0,0,0)
(0,0,0)
(0,0,0)
(0,0,0)
(0,0,0)
(0,0,0)
(0,0,0)
(0,0,0)
(0,0,0)
(0,0,0)
(0,0,0)
(0,0,0)
(0,0,0)
(0,0,0)
(0,0,0)
(0,0,0)
(0,0,0)
(0,0,0)
(0,0,0)
(0,0,0)
(0,0,0)
(0,0,0)
(0,0,0)
(0,0,0)
(0,0,0)
(0,0,0)
(0,0,0)
(0,0,0)
(0,0,0)
(0,0,0)
(0,0,0)
(0,0,0)
(0,0,0)
(0,0,0)
(0,0,0)
(0,0,0)
(0,0,0)
(0,0,0)
(0,0,0)
(0,0,0)
(0,0,0)
(0,0,0)
(0,0,0)
(0,0,0)
(0,0,0)
(0,0,0)
(0,0,0)
(0,0,0)
(0,0,0)
(0,0,0)
(0,0,0)
(0,0,0)
(0,0,0)
(0,0,0)
(0,0,0)
(0,0,0)
(0,0,0)
(0,0,0)
(0,0,0)
(0,0,0)
(0,0,0)
(0,0,0)
(0,0,0)
(0,0,0)
(0,0,0)
(0,0,0)
(0,0,0)
(0,0,0)
(0,0,0)
(0,0,0)
(0,0,0)
(0,0,0)
(0,0,0)
(0,0,0)
(0,0,0)
(0,0,0)
(0,0,0)
(0,0,0)
(0,0,0)
(0,0,0)
(0,0,0)
(0,0,0)
(0,0,0)
(0,0,0)
(0,0,0)
(0,0,0)
(0,0,0)
(0,0,0)
(0,0,0)
(0,0,0)
(0,0,0)
(0,0,0)
(0,0,0)
(0,0,0)
(0,0,0)
(0,0,0)
(0,0,0)
(0,0,0)
(0,0,0)
(0,0,0)
(0,0,0)
(0,0,0)
(0,0,0)
(0,0,0)
(0,0,0)
(0,0,0)
(0,0,0)
(0,0,0)
(0,0,0)
(0,0,0)
(0,0,0)
(0,0,0)
(0,0,0)
(0,0,0)
(0,0,0)
(0,0,0)
(0,0,0)
(0,0,0)
(0,0,0)
(0,0,0)
(0,0,0)
(0,0,0)
(0,0,0)
(0,0,0)
(0,0,0)
(0,0,0)
(0,0,0)
(0,0,0)
(0,0,0)
(0,0,0)
(0,0,0)
(0,0,0)
(0,0,0)
(0,0,0)
(0,0,0)
(0,0,0)
(0,0,0)
(0,0,0)
(0,0,0)
(0,0,0)
(0,0,0)
(0,0,0)
(0,0,0)
(0,0,0)
(0,0,0)
(0,0,0)
(0,0,0)
(0,0,0)
(0,0,0)
(0,0,0)
(0,0,0)
(0,0,0)
(0,0,0)
(0,0,0)
(0,0,0)
(0,0,0)
(0,0,0)
(0,0,0)
(0,0,0)
(0,0,0)
(0,0,0)
(0,0,0)
(0,0,0)
(0,0,0)
(0,0,0)
(0,0,0)
(0,0,0)
(0,0,0)
(0,0,0)
(0,0,0)
(0,0,0)
(0,0,0)
(0,0,0)
(0,0,0)
(0,0,0)
(0,0,0)
(0,0,0)
(0,0,0)
(0,0,0)
(0,0,0)
(0,0,0)
(0,0,0)
(0,0,0)
(0,0,0)
(0,0,0)
(0,0,0)
(0,0,0)
(0,0,0)
(0,0,0)
(0,0,0)
(0,0,0)
(0,0,0)
(0,0,0)
(0,0,0)
(0,0,0)
(0,0,0)
(0,0,0)
(0,0,0)
(0,0,0)
(0,0,0)
(0,0,0)
(0,0,0)
(0,0,0)
(0,0,0)
(0,0,0)
(0,0,0)
(0,0,0)
(0,0,0)
(0,0,0)
(0,0,0)
(0,0,0)
(0,0,0)
(0,0,0)
(0,0,0)
(0,0,0)
(0,0,0)
(0,0,0)
(0,0,0)
(0,0,0)
(0,0,0)
(250.216235180488,9.25880494811483,-259.475040129516)
(282.326586017766,43.0940214175112,-584.895647565505)
(275.505126919825,21.042391090394,-881.443165579238)
(226.3480779684,-27.9121117023771,-1079.87913183464)
(148.946888222128,1.56325992626931,-1230.38927998376)
(93.3660469539194,28.226810296299,-1351.9821372293)
(-57.0419210804609,-1.21608877375069,-1293.72412735204)
(-328.946769669954,-33.1718950294038,-931.605462641877)
(-775.440469364784,-75.971386504113,-80.1936068080578)
(-1298.03067535695,-59.2643962608109,1277.10146488878)
(0,0,0)
(0,0,0)
(0,0,0)
(0,0,0)
(0,0,0)
(0,0,0)
(199.279883828121,60.2722821383965,-250.293361020093)
(239.047032361803,67.8672232056084,-514.11359516758)
(245.006727140938,30.4880361162836,-768.56596733737)
(188.766179669307,-5.48814821058913,-979.756110497954)
(128.65337146516,22.9359941648531,-1129.78221620463)
(80.362631569997,57.3937056910004,-1239.31174318087)
(-58.2728490122975,33.2688590928962,-1215.52384204363)
(-329.512933963855,-11.1327979307091,-908.050005219284)
(-789.459001233716,-70.9555957401997,-123.606794702297)
(-1303.32304256135,-71.280874604603,1191.73272610424)
(0,0,0)
(0,0,0)
(0,0,0)
(0,0,0)
(0,0,0)
(0,0,0)
(164.125354218464,124.78579951617,-228.638871596114)
(201.77517204702,86.0664878965535,-448.613308330313)
(218.094440370609,43.0727781082285,-679.292490687684)
(165.458739084256,30.793456738091,-881.032834719684)
(134.780150643128,30.7620466310048,-1023.6390378419)
(99.7928634315942,71.5526705604308,-1137.59086614045)
(-21.9208002791921,62.5516092480833,-1144.95281600301)
(-302.3407865528,33.3737016445995,-887.118529085635)
(-774.756881122507,-17.3573685522394,-165.959875076413)
(-1290.91805102346,-36.5883044969315,1090.26560583355)
(0,0,0)
(0,0,0)
(0,0,0)
(0,0,0)
(0,0,0)
(0,0,0)
(101.45972594795,220.208196580661,-196.882123011305)
(125.24933521212,170.491180726474,-406.556151051381)
(152.645041260521,121.071935560506,-637.20034977198)
(127.151703663774,85.1166215551886,-818.675218260777)
(109.023425465399,58.5598341366265,-955.496431220501)
(86.270266139089,93.8517564006564,-1064.06578320889)
(-8.94880328975196,79.6479379040437,-1072.21330857873)
(-267.587212933333,71.6602659438176,-842.91265996793)
(-740.594968068222,26.2989922262769,-145.974052743784)
(-1271.59777403074,11.0783854659234,1077.95703149998)
(0,0,0)
(0,0,0)
(0,0,0)
(0,0,0)
(0,0,0)
(0,0,0)
(43.556885213877,343.316077178987,-166.664765818723)
(38.0711604537181,316.657456254912,-350.902201802237)
(51.1227294929662,283.073434522433,-564.026430258811)
(56.8830340204472,216.40941369529,-752.202256418176)
(43.3357864160302,155.103876717683,-892.08208541547)
(25.4558169935762,164.997233947797,-988.683379975349)
(-44.5414873466109,137.879928218282,-1002.37388294566)
(-260.213186168642,134.973386899493,-805.473817691873)
(-735.007316258226,83.6574413502338,-127.824950447376)
(-1279.0197977245,72.6329838822253,1089.64024885181)
(0,0,0)
(0,0,0)
(0,0,0)
(0,0,0)
(0,0,0)
(0,0,0)
(-31.7882951878962,488.133233075758,-113.028860702715)
(-22.129065730426,510.602190483529,-284.844529208673)
(-13.6861538493674,496.81864224954,-484.903583082967)
(-13.6597633175625,414.707810475263,-669.542216554688)
(-45.016669635892,354.778788038438,-824.20045823108)
(-73.9988393007855,313.943458136373,-899.147843109999)
(-128.17432651427,254.307286467334,-887.400874849968)
(-286.967767714308,209.600182355426,-675.059902579196)
(-742.392237021641,137.644367002421,13.345408845598)
(-1286.51819877096,115.844734674253,1256.65185676231)
(0,0,0)
(0,0,0)
(0,0,0)
(0,0,0)
(0,0,0)
(0,0,0)
(-195.35594667281,727.238337947183,-43.7491582064953)
(-166.717143656521,795.737895207147,-162.167719266635)
(-150.080375809514,831.586239516388,-346.854940723212)
(-147.750419398727,756.536134935123,-540.932845785427)
(-178.795841667684,696.938082905757,-704.296298985461)
(-213.584064893348,583.673678161089,-760.442454105949)
(-263.631412996546,490.320800634844,-732.824555262339)
(-397.225209906109,399.960904185763,-525.960067189937)
(-824.959823194364,293.782920536525,142.861202410886)
(-1318.31807487627,190.175984300526,1386.84802776112)
(0,0,0)
(0,0,0)
(0,0,0)
(0,0,0)
(0,0,0)
(0,0,0)
(-505.300358599366,1237.34530152524,-4.80660498183265)
(-440.877519132231,1290.93447338909,-59.1256640185804)
(-388.911639428413,1333.80592300704,-172.433708057537)
(-376.060648801683,1293.39582999103,-333.232754327876)
(-409.36512727245,1237.08381007887,-464.013354228254)
(-447.0353936651,1101.65939548342,-534.963677898883)
(-502.672932626763,987.511535999584,-529.481480680193)
(-624.381438095817,844.375721429379,-349.514859806837)
(-1007.10883388758,667.525489628751,283.851404983098)
(-1414.19605462646,401.710416519064,1486.51302734815)
(0,0,0)
(0,0,0)
(0,0,0)
(0,0,0)
(0,0,0)
(0,0,0)
(-932.738186925499,2139.59555011757,30.4879383293708)
(-882.499804833245,2169.21691795728,34.705298587858)
(-832.405210422068,2221.95382671404,-21.0373947568789)
(-803.553914795194,2223.96341154126,-148.051061527951)
(-821.114010104789,2160.48595959119,-250.339200931608)
(-847.082674808901,2030.32918369042,-331.926314320015)
(-899.634767662939,1908.29160251185,-353.071613162092)
(-1008.69388169339,1693.29461101165,-193.296621020307)
(-1319.72365242604,1434.77139919594,359.181121724933)
(-1587.25149552568,919.54180180845,1428.60123197469)
(0,0,0)
(0,0,0)
(0,0,0)
(0,0,0)
(0,0,0)
(0,0,0)
(-1396.90985606363,3480.10468265244,56.4007235206287)
(-1363.15144728291,3515.92220198915,72.8468867676928)
(-1327.89452407199,3579.0030146568,43.6922229218329)
(-1310.11315142701,3621.92112117173,-44.1523352361373)
(-1315.58306416452,3540.13959347157,-108.222904942681)
(-1321.36040675226,3395.08604899497,-151.619363535659)
(-1348.86196692125,3273.52162627982,-167.987420407422)
(-1420.94919762513,3009.82764907125,-63.5712608609087)
(-1604.60700198254,2664.5258379518,311.28130230291)
(-1688.43849489643,1826.66855945025,1092.59303961085)
(0,0,0)
(0,0,0)
(0,0,0)
(0,0,0)
(0,0,0)
(0,0,0)
(0,0,0)
(0,0,0)
(0,0,0)
(0,0,0)
(0,0,0)
(0,0,0)
(0,0,0)
(0,0,0)
(0,0,0)
(0,0,0)
(0,0,0)
(0,0,0)
(0,0,0)
(0,0,0)
(0,0,0)
(0,0,0)
(0,0,0)
(0,0,0)
(0,0,0)
(0,0,0)
(0,0,0)
(0,0,0)
(0,0,0)
(0,0,0)
(0,0,0)
(0,0,0)
(0,0,0)
(0,0,0)
(0,0,0)
(0,0,0)
(0,0,0)
(0,0,0)
(0,0,0)
(0,0,0)
(0,0,0)
(0,0,0)
(0,0,0)
(0,0,0)
(0,0,0)
(0,0,0)
(0,0,0)
(0,0,0)
(0,0,0)
(0,0,0)
(0,0,0)
(0,0,0)
(0,0,0)
(0,0,0)
(0,0,0)
(0,0,0)
(0,0,0)
(0,0,0)
(0,0,0)
(0,0,0)
(0,0,0)
(0,0,0)
(0,0,0)
(0,0,0)
(0,0,0)
(0,0,0)
(0,0,0)
(0,0,0)
(0,0,0)
(0,0,0)
(0,0,0)
(0,0,0)
(0,0,0)
(0,0,0)
(0,0,0)
(0,0,0)
(0,0,0)
(0,0,0)
(0,0,0)
(0,0,0)
(0,0,0)
(0,0,0)
(0,0,0)
(0,0,0)
(0,0,0)
(0,0,0)
(0,0,0)
(0,0,0)
(0,0,0)
(0,0,0)
(0,0,0)
(0,0,0)
(0,0,0)
(0,0,0)
(0,0,0)
(0,0,0)
(0,0,0)
(0,0,0)
(0,0,0)
(0,0,0)
(0,0,0)
(0,0,0)
(15046.2220122344,82.630390538186,-279.695498875714)
(15097.620559117,77.8383446863988,-573.887147809941)
(15079.6451177857,51.8787008069819,-830.965170837364)
(15004.5336179385,12.4881074840012,-1022.69814959622)
(14893.8400862808,9.51007442283989,-1178.16075340576)
(14780.0433144052,38.7295843873548,-1304.62693657529)
(14513.7747715878,17.1908704892517,-1293.693831143)
(14047.2673523085,-10.592162512624,-1060.3751218742)
(12997.1710899713,-52.3241348597224,-181.721877591523)
(10043.1359090417,-51.3824993749942,3127.43470616622)
(0,0,0)
(0,0,0)
(0,0,0)
(0,0,0)
(0,0,0)
(0,0,0)
(15003.8090564879,146.005281832027,-268.963395191404)
(15047.2735859542,116.330119430185,-516.741054738192)
(15038.5632069123,72.7598051148551,-732.23797006525)
(14963.5071745816,43.6821208868714,-939.232309601713)
(14874.1416817913,39.3860362174035,-1115.65591294268)
(14775.7458840716,63.0817231638104,-1236.45063546498)
(14523.5709535162,42.4452495470312,-1244.60814821016)
(14053.3903765298,5.70301871846429,-1044.86597125015)
(12997.8176557131,-57.5777176591703,-227.948376737688)
(10056.4515382384,-73.110059695286,3032.94527136475)
(0,0,0)
(0,0,0)
(0,0,0)
(0,0,0)
(0,0,0)
(0,0,0)
(14939.4358467054,192.213894177441,-222.57843622263)
(14980.1556416343,151.415512310824,-437.10362999126)
(14987.982557579,104.042261640341,-639.333534942988)
(14925.3291777162,83.6878709182053,-840.269054731815)
(14863.5829413691,68.9637705717961,-999.708911049852)
(14786.7907377129,91.3017598676535,-1115.98615322317)
(14574.2649293579,80.2592253698394,-1151.04518990816)
(14115.0637625756,46.8597892586783,-1010.66584073565)
(13037.7635680025,-24.3219125791113,-257.501426378491)
(10078.1013817804,-66.5602552084708,2965.87000516591)
(0,0,0)
(0,0,0)
(0,0,0)
(0,0,0)
(0,0,0)
(0,0,0)
(14824.5708322753,269.734348122574,-201.69089157927)
(14864.0543552363,226.861458022314,-417.001188557229)
(14885.5671313288,180.592412782814,-627.532761023193)
(14838.5536563246,144.511951300021,-800.818125267444)
(14789.9997003044,115.827288775363,-929.717249504138)
(14739.7152790418,131.445927218037,-1024.36576102775)
(14583.6150028283,123.008308502828,-1060.73798146979)
(14191.2866613039,101.38865861262,-975.20005621573)
(13092.7137399581,7.91135716193701,-241.801365380191)
(10094.2098136623,-45.2476163276465,2970.01907699307)
(0,0,0)
(0,0,0)
(0,0,0)
(0,0,0)
(0,0,0)
(0,0,0)
(14724.06146588,368.428837190299,-180.258401001846)
(14737.5290799843,335.775568882583,-389.689762683198)
(14742.9814474649,300.417942038318,-602.433341037806)
(14722.4334998533,245.123101803433,-769.654288696439)
(14684.4783650341,190.189709584701,-886.218619250768)
(14647.4156236544,181.044508973231,-958.836338809961)
(14545.7256694372,157.558235029096,-984.712753334286)
(14297.1794131258,108.106925166715,-949.882950379306)
(13143.7023423522,6.91089211456882,-228.65147532555)
(10102.0453217823,-20.851201996994,2964.82765946751)
(0,0,0)
(0,0,0)
(0,0,0)
(0,0,0)
(0,0,0)
(0,0,0)
(14574.5484535183,498.535534998681,-137.502777869924)
(14604.5166790471,493.479217600238,-322.911502648531)
(14617.7926370417,466.830572139196,-521.862254869991)
(14598.4599408357,399.457233727181,-689.37542204746)
(14540.1347215998,342.569061778087,-827.965496735288)
(14481.6828391277,285.687904834368,-889.349902340791)
(14409.7387648425,211.232657153904,-881.996747004787)
(14240.6944760168,113.731581146917,-816.34297798572)
(13119.2567936432,15.0710946476051,-87.2115424001992)
(10091.614728169,4.67344855074022,3108.07154874197)
(0,0,0)
(0,0,0)
(0,0,0)
(0,0,0)
(0,0,0)
(0,0,0)
(14284.0764769938,696.343239647234,-78.2994595721912)
(14330.5466080784,716.020590146168,-199.163915126287)
(14367.3707079837,726.128303873757,-376.972061836448)
(14358.989459078,669.144520845206,-554.45855874249)
(14308.100904146,603.194678086448,-703.040252110764)
(14253.3881224533,477.208539416274,-762.592405393063)
(14169.7102147671,360.974211402579,-746.7349187358)
(13978.9186674372,246.155699928189,-656.362246097418)
(12922.4809287758,142.956777825093,67.2519873734571)
(9988.40095017817,81.8033208139784,3282.34375885716)
(0,0,0)
(0,0,0)
(0,0,0)
(0,0,0)
(0,0,0)
(0,0,0)
(13761.1914802832,1069.71094426536,-40.9188747234925)
(13839.428401487,1105.66532924908,-111.92886573873)
(13916.4972077483,1130.67500819553,-222.943748466371)
(13933.4503627187,1095.46894799735,-359.838518432744)
(13885.6360002647,1027.88342862381,-480.587727874702)
(13826.9594338471,880.88727339837,-559.320620499906)
(13709.1389513893,762.261604112636,-573.479228457198)
(13485.2306020235,634.396039876803,-472.390939938227)
(12529.6637414904,493.001401225584,239.732530027906)
(9764.96023078929,302.284993212543,3439.03524091276)
(0,0,0)
(0,0,0)
(0,0,0)
(0,0,0)
(0,0,0)
(0,0,0)
(12770.4326474297,1980.16265441173,-14.6818756886674)
(12820.0054699515,2019.30770531698,-31.8888577545192)
(12880.1217068873,2067.67402652392,-82.4741246861266)
(12919.0004039736,2084.18254698283,-194.801373745878)
(12891.0690915908,2024.16403664504,-304.324414785093)
(12835.4934418719,1874.54217252346,-381.614761722132)
(12728.5507547623,1760.08383514351,-408.68184633583)
(12513.4245227274,1601.30698243315,-298.770524498754)
(11710.0563560905,1398.1483984254,365.24313856533)
(9263.5912032214,967.859493420823,3447.76660836384)
(0,0,0)
(0,0,0)
(0,0,0)
(0,0,0)
(0,0,0)
(0,0,0)
(9900.12809126833,5276.10492573085,5.96045002719804)
(9923.42987225295,5327.04521564363,10.5822888058577)
(9953.86702651804,5402.88224338749,-7.44680985970226)
(9983.15618547742,5465.67674589439,-83.2696767986858)
(9973.0104829908,5406.25985037691,-155.018368858441)
(9935.22699791085,5255.87431652841,-193.99724870795)
(9876.83927367232,5155.39552239442,-216.069507767173)
(9742.89579036748,4956.90172467399,-136.568569091676)
(9232.1880635357,4647.71682723748,376.008605387128)
(7509.23767222102,3724.81900562694,3020.31359479899)
(0,0,0)
(0,0,0)
(0,0,0)
(0,0,0)
(0,0,0)
(0,0,0)
(0,0,0)
(0,0,0)
(0,0,0)
(0,0,0)
(0,0,0)
(0,0,0)
(0,0,0)
(0,0,0)
(0,0,0)
(0,0,0)
(0,0,0)
(0,0,0)
(0,0,0)
(0,0,0)
(0,0,0)
(0,0,0)
(0,0,0)
(0,0,0)
(0,0,0)
(0,0,0)
(0,0,0)
(0,0,0)
(0,0,0)
(0,0,0)
(0,0,0)
(0,0,0)
(0,0,0)
(0,0,0)
(0,0,0)
(0,0,0)
(0,0,0)
(0,0,0)
(0,0,0)
(0,0,0)
(0,0,0)
(0,0,0)
(0,0,0)
(0,0,0)
(0,0,0)
(0,0,0)
(0,0,0)
(0,0,0)
(0,0,0)
(0,0,0)
(0,0,0)
(0,0,0)
(0,0,0)
(0,0,0)
(0,0,0)
(0,0,0)
(0,0,0)
(0,0,0)
(0,0,0)
(0,0,0)
(0,0,0)
(0,0,0)
(0,0,0)
(0,0,0)
(0,0,0)
(0,0,0)
(0,0,0)
(0,0,0)
(0,0,0)
(0,0,0)
(0,0,0)
(0,0,0)
(0,0,0)
(0,0,0)
(0,0,0)
(0,0,0)
(0,0,0)
(0,0,0)
(0,0,0)
(0,0,0)
(0,0,0)
(0,0,0)
(0,0,0)
(0,0,0)
(0,0,0)
(0,0,0)
(0,0,0)
(0,0,0)
(0,0,0)
(0,0,0)
(0,0,0)
(0,0,0)
(0,0,0)
(0,0,0)
(0,0,0)
(0,0,0)
(0,0,0)
(0,0,0)
(0,0,0)
(0,0,0)
(0,0,0)
(0,0,0)
(640.565967588967,97.4744287376687,-290.759052807622)
(664.87107015192,71.7391727878365,-528.689405485158)
(633.924760720364,60.3435768496352,-742.253293912107)
(560.471896067186,35.2010555571758,-932.333296296579)
(439.469891813001,21.0134670915819,-1097.91723758251)
(269.396684304927,44.8576344134774,-1231.06891057602)
(-4.24891740729977,36.0206403787151,-1348.00653058517)
(-323.378313097062,21.1956194691382,-1597.49715339548)
(-839.536675415313,-27.6237522540327,-2332.10630449432)
(-1390.08201923905,-49.0081129167296,-5448.82093199454)
(0,0,0)
(0,0,0)
(0,0,0)
(0,0,0)
(0,0,0)
(0,0,0)
(592.164188640666,182.728975398105,-272.550347578825)
(611.162825337874,142.28734345192,-505.928426417073)
(589.250457877136,111.37483451918,-706.587603804866)
(515.232480375315,76.8546541597894,-898.907176977086)
(405.199781553353,63.0807842104011,-1070.9732626221)
(265.729241886316,78.4809567785306,-1193.52061156029)
(14.1949459668594,73.4854562753572,-1320.550088731)
(-303.784214714906,58.7903338910121,-1599.9108806325)
(-821.644134003941,-17.6578854233595,-2389.35562638415)
(-1371.79760370269,-54.0376701077983,-5555.0175958453)
(0,0,0)
(0,0,0)
(0,0,0)
(0,0,0)
(0,0,0)
(0,0,0)
(539.266579733332,208.272368460583,-224.314794699385)
(569.309069982935,172.187076045086,-442.308624344077)
(559.821673040888,132.566572667791,-634.280146740497)
(480.264856942963,112.524576163692,-823.826416835632)
(364.021550259111,115.178912688726,-975.303822976303)
(252.952504458782,126.44171406414,-1088.36701581946)
(53.5238761666916,133.053206785957,-1226.13438191763)
(-213.944854860619,145.850604408991,-1583.12670382396)
(-769.476304986465,52.3639990930331,-2444.84938390753)
(-1355.17304603748,-16.3578987492567,-5648.19539628218)
(0,0,0)
(0,0,0)
(0,0,0)
(0,0,0)
(0,0,0)
(0,0,0)
(377.028812856702,279.457125431279,-222.58340625112)
(417.462488331113,237.380932869307,-440.126064926402)
(413.785869191748,194.192080843605,-628.910979714626)
(343.323364216161,176.30820123099,-796.404981473709)
(248.254798759283,166.829250090341,-905.251086125772)
(174.282424540279,161.458376079584,-973.775562345593)
(41.3278547892377,179.018522139792,-1076.39439847935)
(-26.8423667922416,253.089531600895,-1564.44496640878)
(-665.98773596484,95.5071876311629,-2447.82734764073)
(-1322.41121448016,-5.32091084096916,-5641.18397627647)
(0,0,0)
(0,0,0)
(0,0,0)
(0,0,0)
(0,0,0)
(0,0,0)
(231.072898829534,382.180528919665,-208.67550517349)
(253.748529019748,336.751929538666,-423.206619592621)
(232.801592058593,290.784901765546,-608.560253986577)
(194.993047662534,258.797831136292,-762.550100376808)
(133.305244671992,220.308367418239,-863.79676621162)
(78.0901505533377,174.534859262773,-906.488445139927)
(-5.51268898954364,137.66623371502,-912.838467107338)
(552.046268340749,83.0328923801021,-1596.58935186375)
(-479.220086256142,-19.598457443494,-2457.50194680818)
(-1274.52211990556,-45.7973927797738,-5639.39869186902)
(0,0,0)
(0,0,0)
(0,0,0)
(0,0,0)
(0,0,0)
(0,0,0)
(60.7029550164159,471.60804574161,-174.522686960518)
(87.111423946708,446.505881093265,-365.812052120368)
(80.6718670419364,407.824845647585,-544.671894778083)
(50.3417824040005,355.763175887917,-692.459749993516)
(-26.0546283390671,306.521096389454,-811.423797759232)
(-104.208456672133,215.743435582793,-865.681746958472)
(-196.292075675915,98.8951624701751,-819.820504034403)
(419.397359261894,-70.243013132857,-1444.1881505609)
(-543.102749744776,-103.016168192101,-2297.35156527927)
(-1290.34223192128,-66.2007476396737,-5493.93191893074)
(0,0,0)
(0,0,0)
(0,0,0)
(0,0,0)
(0,0,0)
(0,0,0)
(-247.714470703001,530.64525224875,-126.186927568957)
(-209.043661779739,521.814954985587,-260.84640032953)
(-177.513685576179,510.799311840122,-417.87714179931)
(-190.149609889973,452.863796162798,-564.779361789137)
(-247.487188967919,387.611452769786,-689.222293804237)
(-314.53260821842,256.112752602431,-760.611548788423)
(-489.623987149158,96.5771950354877,-697.900048093753)
(-105.401296920828,-88.8163490306777,-1193.94741655533)
(-788.43420433134,-108.038767849658,-2076.95035234264)
(-1414.7844930679,-56.667962622727,-5282.23836292339)
(0,0,0)
(0,0,0)
(0,0,0)
(0,0,0)
(0,0,0)
(0,0,0)
(-654.867065641869,423.294779605005,-75.5316502051814)
(-588.773867662607,441.806335771937,-166.261430545482)
(-514.688095032643,442.079988822986,-265.297473523111)
(-495.179516687466,397.096989320705,-379.841455991908)
(-546.564704874065,338.623599364574,-497.593566076837)
(-630.205136489296,207.993176732685,-591.250088721083)
(-878.993253503512,94.5306444401894,-600.012001999093)
(-783.244866602072,-51.6379232053416,-967.655627869631)
(-1189.38194243389,-100.281777245285,-1855.30760321535)
(-1601.14826767799,-76.2045774057255,-5068.60315858235)
(0,0,0)
(0,0,0)
(0,0,0)
(0,0,0)
(0,0,0)
(0,0,0)
(-1101.42276462472,-263.170554150252,-40.6199230033339)
(-1050.41129167719,-247.487391342006,-79.8501030443605)
(-988.05111128698,-232.554203948713,-135.983760801494)
(-949.196802160437,-226.272574475324,-243.357659575272)
(-985.895933431381,-263.866614395415,-362.84308947399)
(-1073.92682460376,-413.074156675519,-431.296158469633)
(-1207.17859540129,-515.766592396855,-484.210240266812)
(-1264.47575400745,-606.695223030511,-750.193332522874)
(-1555.37675110566,-616.961567220514,-1567.02110408996)
(-1770.65892696905,-490.04992610415,-4717.86629398377)
(0,0,0)
(0,0,0)
(0,0,0)
(0,0,0)
(0,0,0)
(0,0,0)
(-1546.59648782587,-3385.86807116657,-29.5185726218564)
(-1523.22582005633,-3391.94804266984,-37.3428977746561)
(-1504.82211409525,-3353.87283466824,-56.2757951633984)
(-1476.4295630149,-3301.70792225261,-120.195367758962)
(-1484.40915620452,-3339.5843766277,-185.998635086531)
(-1536.56564667567,-3506.56404100921,-219.656774997464)
(-1592.55144997603,-3583.26324207792,-281.710070435745)
(-1643.33508991295,-3644.87293917694,-456.24214292995)
(-1805.40680476936,-3588.07898118497,-1046.47052946265)
(-1829.33661676294,-3065.17469986733,-3731.71213555088)
(0,0,0)
(0,0,0)
(0,0,0)
(0,0,0)
(0,0,0)
(0,0,0)
(0,0,0)
(0,0,0)
(0,0,0)
(0,0,0)
(0,0,0)
(0,0,0)
(0,0,0)
(0,0,0)
(0,0,0)
(0,0,0)
(0,0,0)
(0,0,0)
(0,0,0)
(0,0,0)
(0,0,0)
(0,0,0)
(0,0,0)
(0,0,0)
(0,0,0)
(0,0,0)
(0,0,0)
(0,0,0)
(0,0,0)
(0,0,0)
(0,0,0)
(0,0,0)
(0,0,0)
(0,0,0)
(0,0,0)
(0,0,0)
(0,0,0)
(0,0,0)
(0,0,0)
(0,0,0)
(0,0,0)
(0,0,0)
(0,0,0)
(0,0,0)
(0,0,0)
(0,0,0)
(0,0,0)
(0,0,0)
(0,0,0)
(0,0,0)
(0,0,0)
(0,0,0)
(0,0,0)
(0,0,0)
(0,0,0)
(0,0,0)
(0,0,0)
(0,0,0)
(0,0,0)
(0,0,0)
(0,0,0)
(0,0,0)
(0,0,0)
(0,0,0)
(0,0,0)
(0,0,0)
(0,0,0)
(0,0,0)
(0,0,0)
(0,0,0)
(0,0,0)
(0,0,0)
(0,0,0)
(0,0,0)
(0,0,0)
(0,0,0)
(0,0,0)
(0,0,0)
(0,0,0)
(0,0,0)
(0,0,0)
(0,0,0)
(0,0,0)
(0,0,0)
(0,0,0)
(0,0,0)
(0,0,0)
(0,0,0)
(0,0,0)
(0,0,0)
(0,0,0)
(0,0,0)
(0,0,0)
(0,0,0)
(0,0,0)
(0,0,0)
(0,0,0)
(0,0,0)
(0,0,0)
(0,0,0)
(0,0,0)
(0,0,0)
(828.710101687179,63.5800657424224,-251.724199841128)
(813.79785887152,34.409330609843,-435.060319166391)
(761.283771793413,49.3737017902787,-611.793032027837)
(674.753586121899,48.9595795758744,-775.034301661706)
(564.136814754438,33.6858319053364,-933.387056509586)
(385.077980571692,22.2063731750618,-1071.27472595139)
(148.640873652269,17.9740349767596,-1242.13855198749)
(-48.5341614702977,27.4744353290016,-1544.45713894156)
(-285.441819339622,-9.39033192023891,-2089.16166306127)
(-422.045571410999,-30.2362426698238,-3026.96186819654)
(0,0,0)
(0,0,0)
(0,0,0)
(0,0,0)
(0,0,0)
(0,0,0)
(768.112774434755,120.482434196658,-232.850954250194)
(757.258090407502,87.8275804909267,-432.364469199162)
(716.959779578076,104.562437180646,-615.262526286374)
(637.782193459467,83.8309314333691,-772.683591234238)
(538.538578543188,55.1903374863551,-927.526893810735)
(382.726912094797,29.4584221824654,-1051.7766130217)
(148.142426499721,44.0557797402102,-1211.80583831682)
(-35.5240639751995,98.165712878826,-1550.7572666046)
(-270.174924011839,28.621178524107,-2140.23798702398)
(-403.931780402896,-21.6934506823937,-3116.64660239193)
(0,0,0)
(0,0,0)
(0,0,0)
(0,0,0)
(0,0,0)
(0,0,0)
(684.796469531293,181.807744551331,-206.855200147075)
(695.677084658124,149.199705142596,-394.595339475294)
(663.344109716535,160.94796656487,-554.503305537177)
(566.764178320368,144.669104060309,-701.840799541275)
(446.229022374122,119.724423846382,-848.582358017802)
(315.997611586643,82.6485186780693,-964.817561657391)
(116.509825344739,109.237093437985,-1092.98482453306)
(16.758283654664,323.740282578456,-1549.26253276551)
(-249.547935774344,171.079120558195,-2211.6488440076)
(-406.699228131426,42.373566749224,-3224.18967936521)
(0,0,0)
(0,0,0)
(0,0,0)
(0,0,0)
(0,0,0)
(0,0,0)
(496.899284313274,275.45718461749,-213.519911514007)
(516.680817031764,229.146751369263,-392.685286436426)
(497.214466973281,231.459266501385,-546.625184149811)
(410.168931368947,216.618793252189,-685.420440493814)
(290.410478910917,175.28028854642,-783.131985343225)
(188.158930603144,114.445654034549,-828.805626769263)
(-32.523912123512,117.831618129593,-763.548384551233)
(319.02207954334,817.869641193183,-1603.54218950978)
(-125.209859058736,297.967254916375,-2271.20820078765)
(-367.3564700305,55.150964226371,-3239.04034277728)
(0,0,0)
(0,0,0)
(0,0,0)
(0,0,0)
(0,0,0)
(0,0,0)
(330.746738423166,374.732325171217,-198.948980147542)
(346.843793831673,319.282285095481,-382.179778683642)
(325.492096778357,295.182581404478,-538.593598299081)
(273.755584646895,251.72565160314,-652.462993633098)
(183.904287155402,192.614925692629,-720.396673269035)