/*--------------------------------*- C++ -*----------------------------------*\
| =========                 |                                                 |
| \\      /  F ield         | foam-extend: Open Source CFD                    |
|  \\    /   O peration     | Version:     4.0                                |
|   \\  /    A nd           | Web:         http://www.foam-extend.org         |
|    \\/     M anipulation  |                                                 |
\*---------------------------------------------------------------------------*/
FoamFile
{
    version 2.0;
    format ascii;
    class volVectorField;
    location "977";
    object      E;
}
// * * * * * * * * * * * * * * * * * * * * * * * * * * * * * * * * * * * * * //

dimensions      [0 1 -1 0 0 0 0];

internalField   nonuniform List<vector>
4096
(
(0,0,0)
(0,0,0)
(0,0,0)
(0,0,0)
(0,0,0)
(0,0,0)
(0,0,0)
(0,0,0)
(0,0,0)
(0,0,0)
(0,0,0)
(0,0,0)
(0,0,0)
(0,0,0)
(0,0,0)
(0,0,0)
(0,0,0)
(0,0,0)
(0,0,0)
(0,0,0)
(0,0,0)
(0,0,0)
(0,0,0)
(0,0,0)
(0,0,0)
(0,0,0)
(0,0,0)
(0,0,0)
(0,0,0)
(0,0,0)
(0,0,0)
(0,0,0)
(0,0,0)
(0,0,0)
(0,0,0)
(0,0,0)
(0,0,0)
(0,0,0)
(0,0,0)
(0,0,0)
(0,0,0)
(0,0,0)
(0,0,0)
(0,0,0)
(0,0,0)
(0,0,0)
(0,0,0)
(0,0,0)
(0,0,0)
(0,0,0)
(0,0,0)
(0,0,0)
(0,0,0)
(0,0,0)
(0,0,0)
(0,0,0)
(0,0,0)
(0,0,0)
(0,0,0)
(0,0,0)
(0,0,0)
(0,0,0)
(0,0,0)
(0,0,0)
(0,0,0)
(0,0,0)
(0,0,0)
(0,0,0)
(0,0,0)
(0,0,0)
(0,0,0)
(0,0,0)
(0,0,0)
(0,0,0)
(0,0,0)
(0,0,0)
(0,0,0)
(0,0,0)
(0,0,0)
(0,0,0)
(0,0,0)
(0,0,0)
(0,0,0)
(0,0,0)
(0,0,0)
(0,0,0)
(0,0,0)
(0,0,0)
(0,0,0)
(0,0,0)
(0,0,0)
(0,0,0)
(0,0,0)
(0,0,0)
(0,0,0)
(0,0,0)
(0,0,0)
(0,0,0)
(0,0,0)
(0,0,0)
(0,0,0)
(0,0,0)
(0,0,0)
(0,0,0)
(0,0,0)
(0,0,0)
(0,0,0)
(0,0,0)
(0,0,0)
(0,0,0)
(0,0,0)
(0,0,0)
(0,0,0)
(0,0,0)
(0,0,0)
(0,0,0)
(0,0,0)
(0,0,0)
(0,0,0)
(0,0,0)
(0,0,0)
(0,0,0)
(0,0,0)
(0,0,0)
(0,0,0)
(0,0,0)
(0,0,0)
(0,0,0)
(0,0,0)
(0,0,0)
(0,0,0)
(0,0,0)
(0,0,0)
(0,0,0)
(0,0,0)
(0,0,0)
(0,0,0)
(0,0,0)
(0,0,0)
(0,0,0)
(0,0,0)
(0,0,0)
(0,0,0)
(0,0,0)
(0,0,0)
(0,0,0)
(0,0,0)
(0,0,0)
(0,0,0)
(0,0,0)
(0,0,0)
(0,0,0)
(0,0,0)
(0,0,0)
(0,0,0)
(0,0,0)
(0,0,0)
(0,0,0)
(0,0,0)
(0,0,0)
(0,0,0)
(0,0,0)
(0,0,0)
(0,0,0)
(0,0,0)
(0,0,0)
(0,0,0)
(0,0,0)
(0,0,0)
(0,0,0)
(0,0,0)
(0,0,0)
(0,0,0)
(0,0,0)
(0,0,0)
(0,0,0)
(0,0,0)
(0,0,0)
(0,0,0)
(0,0,0)
(0,0,0)
(0,0,0)
(0,0,0)
(0,0,0)
(0,0,0)
(0,0,0)
(0,0,0)
(0,0,0)
(0,0,0)
(0,0,0)
(0,0,0)
(0,0,0)
(0,0,0)
(0,0,0)
(0,0,0)
(0,0,0)
(0,0,0)
(0,0,0)
(0,0,0)
(0,0,0)
(0,0,0)
(0,0,0)
(0,0,0)
(0,0,0)
(0,0,0)
(0,0,0)
(0,0,0)
(0,0,0)
(0,0,0)
(0,0,0)
(0,0,0)
(0,0,0)
(0,0,0)
(0,0,0)
(0,0,0)
(0,0,0)
(0,0,0)
(0,0,0)
(0,0,0)
(0,0,0)
(0,0,0)
(0,0,0)
(0,0,0)
(0,0,0)
(0,0,0)
(0,0,0)
(0,0,0)
(0,0,0)
(0,0,0)
(0,0,0)
(0,0,0)
(0,0,0)
(0,0,0)
(0,0,0)
(0,0,0)
(0,0,0)
(0,0,0)
(0,0,0)
(0,0,0)
(0,0,0)
(0,0,0)
(0,0,0)
(0,0,0)
(0,0,0)
(0,0,0)
(0,0,0)
(0,0,0)
(0,0,0)
(0,0,0)
(0,0,0)
(0,0,0)
(0,0,0)
(0,0,0)
(0,0,0)
(0,0,0)
(0,0,0)
(0,0,0)
(0,0,0)
(0,0,0)
(0,0,0)
(0,0,0)
(0,0,0)
(0,0,0)
(0,0,0)
(0,0,0)
(0,0,0)
(0,0,0)
(0,0,0)
(0,0,0)
(0,0,0)
(0,0,0)
(0,0,0)
(0,0,0)
(0,0,0)
(0,0,0)
(0,0,0)
(0,0,0)
(0,0,0)
(0,0,0)
(0,0,0)
(0,0,0)
(0,0,0)
(0,0,0)
(0,0,0)
(0,0,0)
(0,0,0)
(0,0,0)
(0,0,0)
(0,0,0)
(0,0,0)
(0,0,0)
(0,0,0)
(0,0,0)
(0,0,0)
(0,0,0)
(0,0,0)
(0,0,0)
(0,0,0)
(0,0,0)
(0,0,0)
(0,0,0)
(0,0,0)
(0,0,0)
(0,0,0)
(0,0,0)
(0,0,0)
(0,0,0)
(0,0,0)
(0,0,0)
(0,0,0)
(0,0,0)
(0,0,0)
(0,0,0)
(0,0,0)
(0,0,0)
(0,0,0)
(0,0,0)
(0,0,0)
(0,0,0)
(0,0,0)
(0,0,0)
(0,0,0)
(0,0,0)
(0,0,0)
(0,0,0)
(0,0,0)
(0,0,0)
(0,0,0)
(0,0,0)
(0,0,0)
(0,0,0)
(0,0,0)
(0,0,0)
(0,0,0)
(0,0,0)
(0,0,0)
(0,0,0)
(0,0,0)
(0,0,0)
(0,0,0)
(0,0,0)
(0,0,0)
(0,0,0)
(0,0,0)
(0,0,0)
(0,0,0)
(0,0,0)
(0,0,0)
(0,0,0)
(0,0,0)
(0,0,0)
(0,0,0)
(0,0,0)
(0,0,0)
(0,0,0)
(0,0,0)
(0,0,0)
(0,0,0)
(0,0,0)
(0,0,0)
(0,0,0)
(0,0,0)
(0,0,0)
(0,0,0)
(0,0,0)
(0,0,0)
(0,0,0)
(0,0,0)
(0,0,0)
(0,0,0)
(0,0,0)
(0,0,0)
(0,0,0)
(0,0,0)
(0,0,0)
(0,0,0)
(0,0,0)
(0,0,0)
(0,0,0)
(0,0,0)
(0,0,0)
(0,0,0)
(0,0,0)
(0,0,0)
(0,0,0)
(0,0,0)
(0,0,0)
(0,0,0)
(0,0,0)
(0,0,0)
(0,0,0)
(0,0,0)
(0,0,0)
(0,0,0)
(0,0,0)
(0,0,0)
(0,0,0)
(0,0,0)
(0,0,0)
(0,0,0)
(0,0,0)
(0,0,0)
(0,0,0)
(0,0,0)
(0,0,0)
(0,0,0)
(0,0,0)
(0,0,0)
(0,0,0)
(0,0,0)
(0,0,0)
(0,0,0)
(0,0,0)
(0,0,0)
(0,0,0)
(0,0,0)
(0,0,0)
(0,0,0)
(0,0,0)
(0,0,0)
(0,0,0)
(0,0,0)
(0,0,0)
(0,0,0)
(0,0,0)
(0,0,0)
(0,0,0)
(0,0,0)
(0,0,0)
(0,0,0)
(0,0,0)
(0,0,0)
(0,0,0)
(0,0,0)
(0,0,0)
(0,0,0)
(0,0,0)
(0,0,0)
(0,0,0)
(0,0,0)
(0,0,0)
(0,0,0)
(0,0,0)
(0,0,0)
(0,0,0)
(0,0,0)
(0,0,0)
(0,0,0)
(0,0,0)
(0,0,0)
(0,0,0)
(0,0,0)
(0,0,0)
(0,0,0)
(0,0,0)
(0,0,0)
(0,0,0)
(0,0,0)
(0,0,0)
(0,0,0)
(0,0,0)
(0,0,0)
(0,0,0)
(0,0,0)
(0,0,0)
(0,0,0)
(0,0,0)
(0,0,0)
(0,0,0)
(0,0,0)
(0,0,0)
(0,0,0)
(0,0,0)
(0,0,0)
(0,0,0)
(0,0,0)
(0,0,0)
(0,0,0)
(0,0,0)
(0,0,0)
(0,0,0)
(0,0,0)
(0,0,0)
(0,0,0)
(0,0,0)
(0,0,0)
(0,0,0)
(0,0,0)
(0,0,0)
(0,0,0)
(0,0,0)
(0,0,0)
(0,0,0)
(0,0,0)
(0,0,0)
(0,0,0)
(0,0,0)
(0,0,0)
(0,0,0)
(0,0,0)
(0,0,0)
(0,0,0)
(0,0,0)
(0,0,0)
(0,0,0)
(0,0,0)
(0,0,0)
(0,0,0)
(0,0,0)
(0,0,0)
(0,0,0)
(0,0,0)
(0,0,0)
(0,0,0)
(0,0,0)
(0,0,0)
(0,0,0)
(0,0,0)
(0,0,0)
(0,0,0)
(0,0,0)
(0,0,0)
(0,0,0)
(0,0,0)
(0,0,0)
(0,0,0)
(0,0,0)
(0,0,0)
(0,0,0)
(0,0,0)
(0,0,0)
(0,0,0)
(0,0,0)
(0,0,0)
(0,0,0)
(0,0,0)
(0,0,0)
(0,0,0)
(0,0,0)
(0,0,0)
(0,0,0)
(0,0,0)
(0,0,0)
(0,0,0)
(0,0,0)
(0,0,0)
(0,0,0)
(0,0,0)
(0,0,0)
(0,0,0)
(0,0,0)
(0,0,0)
(0,0,0)
(0,0,0)
(0,0,0)
(0,0,0)
(0,0,0)
(0,0,0)
(0,0,0)
(0,0,0)
(0,0,0)
(0,0,0)
(0,0,0)
(0,0,0)
(0,0,0)
(0,0,0)
(0,0,0)
(0,0,0)
(0,0,0)
(0,0,0)
(0,0,0)
(0,0,0)
(0,0,0)
(0,0,0)
(0,0,0)
(0,0,0)
(0,0,0)
(0,0,0)
(0,0,0)
(0,0,0)
(0,0,0)
(0,0,0)
(0,0,0)
(0,0,0)
(0,0,0)
(0,0,0)
(0,0,0)
(0,0,0)
(0,0,0)
(0,0,0)
(0,0,0)
(0,0,0)
(0,0,0)
(0,0,0)
(0,0,0)
(0,0,0)
(0,0,0)
(0,0,0)
(0,0,0)
(0,0,0)
(0,0,0)
(0,0,0)
(0,0,0)
(0,0,0)
(0,0,0)
(0,0,0)
(0,0,0)
(0,0,0)
(0,0,0)
(0,0,0)
(0,0,0)
(0,0,0)
(0,0,0)
(0,0,0)
(0,0,0)
(0,0,0)
(0,0,0)
(0,0,0)
(0,0,0)
(0,0,0)
(0,0,0)
(0,0,0)
(0,0,0)
(0,0,0)
(0,0,0)
(0,0,0)
(0,0,0)
(0,0,0)
(0,0,0)
(0,0,0)
(0,0,0)
(0,0,0)
(0,0,0)
(0,0,0)
(0,0,0)
(0,0,0)
(0,0,0)
(0,0,0)
(0,0,0)
(0,0,0)
(0,0,0)
(0,0,0)
(0,0,0)
(0,0,0)
(0,0,0)
(0,0,0)
(0,0,0)
(0,0,0)
(0,0,0)
(0,0,0)
(0,0,0)
(0,0,0)
(0,0,0)
(0,0,0)
(0,0,0)
(0,0,0)
(0,0,0)
(0,0,0)
(0,0,0)
(0,0,0)
(0,0,0)
(0,0,0)
(0,0,0)
(0,0,0)
(0,0,0)
(0,0,0)
(0,0,0)
(0,0,0)
(0,0,0)
(0,0,0)
(0,0,0)
(0,0,0)
(0,0,0)
(0,0,0)
(0,0,0)
(0,0,0)
(0,0,0)
(0,0,0)
(0,0,0)
(0,0,0)
(0,0,0)
(0,0,0)
(0,0,0)
(0,0,0)
(0,0,0)
(0,0,0)
(0,0,0)
(0,0,0)
(0,0,0)
(0,0,0)
(0,0,0)
(0,0,0)
(0,0,0)
(0,0,0)
(0,0,0)
(0,0,0)
(0,0,0)
(0,0,0)
(0,0,0)
(0,0,0)
(0,0,0)
(0,0,0)
(0,0,0)
(0,0,0)
(0,0,0)
(0,0,0)
(0,0,0)
(0,0,0)
(0,0,0)
(0,0,0)
(0,0,0)
(0,0,0)
(0,0,0)
(0,0,0)
(0,0,0)
(0,0,0)
(0,0,0)
(0,0,0)
(0,0,0)
(0,0,0)
(0,0,0)
(0,0,0)
(0,0,0)
(0,0,0)
(0,0,0)
(0,0,0)
(0,0,0)
(0,0,0)
(0,0,0)
(0,0,0)
(0,0,0)
(0,0,0)
(0,0,0)
(0,0,0)
(0,0,0)
(0,0,0)
(0,0,0)
(0,0,0)
(0,0,0)
(0,0,0)
(0,0,0)
(0,0,0)
(0,0,0)
(0,0,0)
(0,0,0)
(0,0,0)
(0,0,0)
(0,0,0)
(0,0,0)
(0,0,0)
(0,0,0)
(0,0,0)
(0,0,0)
(0,0,0)
(0,0,0)
(0,0,0)
(0,0,0)
(0,0,0)
(0,0,0)
(0,0,0)
(0,0,0)
(0,0,0)
(0,0,0)
(0,0,0)
(0,0,0)
(0,0,0)
(0,0,0)
(0,0,0)
(0,0,0)
(0,0,0)
(0,0,0)
(0,0,0)
(0,0,0)
(0,0,0)
(0,0,0)
(0,0,0)
(0,0,0)
(0,0,0)
(0,0,0)
(0,0,0)
(0,0,0)
(0,0,0)
(0,0,0)
(0,0,0)
(0,0,0)
(0,0,0)
(0,0,0)
(0,0,0)
(0,0,0)
(0,0,0)
(0,0,0)
(0,0,0)
(0,0,0)
(0,0,0)
(0,0,0)
(0,0,0)
(0,0,0)
(0,0,0)
(0,0,0)
(0,0,0)
(0,0,0)
(0,0,0)
(0,0,0)
(0,0,0)
(0,0,0)
(0,0,0)
(0,0,0)
(0,0,0)
(0,0,0)
(0,0,0)
(0,0,0)
(0,0,0)
(0,0,0)
(0,0,0)
(0,0,0)
(0,0,0)
(0,0,0)
(0,0,0)
(0,0,0)
(-7471.08559090036,3840.73703823114,3630.34855266912)
(-7899.07832261867,3738.63604476213,7790.79083052576)
(-8838.39247084266,3462.01001944141,13167.1732819272)
(-10667.6305668588,2983.92048889512,20850.8833598933)
(-13990.6068077382,2305.61540392362,32535.8747637133)
(-20009.905485135,1512.67586142733,51033.1043874077)
(-30957.3429518046,744.246513977317,81246.2008252681)
(-50754.2425099926,249.730085648944,131750.713249606)
(-83835.4714075112,73.4467092738288,215512.737947897)
(-116986.973995173,26.2646950048047,332473.447248072)
(0,0,0)
(0,0,0)
(0,0,0)
(0,0,0)
(0,0,0)
(0,0,0)
(-7881.88641305698,8263.77649679154,3458.84695449604)
(-8293.41280201345,8049.44426231575,7441.45153895892)
(-9249.45432689928,7526.64959576627,12626.26628953)
(-11125.5359109343,6617.94997403329,20117.7727153298)
(-14554.8470997969,5270.38140570665,31707.8538133416)
(-20724.6771912528,3626.69727036987,50318.5095956581)
(-31808.1863081952,2002.58497393532,80868.3574438631)
(-51534.435581321,905.817405791138,131746.705705014)
(-84346.3335402064,460.309778374935,215706.17617618)
(-117209.547715526,242.836836690323,332699.151749931)
(0,0,0)
(0,0,0)
(0,0,0)
(0,0,0)
(0,0,0)
(0,0,0)
(-8803.80619039218,13949.3399876481,3118.24269953515)
(-9211.1631312987,13652.8702675167,6725.97982563339)
(-10220.6358137638,12932.1918445289,11541.0733906391)
(-12192.6083003422,11659.4820221202,18692.1496428963)
(-15847.3133397265,9745.69240394792,30064.1519843812)
(-22406.2287034286,7276.16638859035,48820.9115695897)
(-33877.2918212148,4713.7866444446,79987.0017202978)
(-53437.9265512159,2824.57338915268,131506.172288125)
(-85565.1039251993,1823.8084209656,215707.777570804)
(-117753.998186671,1008.99133945731,332695.621254691)
(0,0,0)
(0,0,0)
(0,0,0)
(0,0,0)
(0,0,0)
(0,0,0)
(-10596.3083707598,21870.9858164176,2674.66254199073)
(-11028.119154536,21533.3806097082,5822.27135433692)
(-12089.5202816768,20714.1593489931,10129.8241315433)
(-14160.8130372538,19219.4301259159,16730.6890649969)
(-18136.7681162179,16979.1917970149,27633.9577881508)
(-25405.4429134669,13933.648366878,46381.9187233244)
(-37775.9821688826,10493.9104516369,78377.7770850261)
(-57100.6410555005,7576.53415802495,130726.457371622)
(-87828.4880393106,5336.52100410947,215042.232827748)
(-118759.636306061,2897.01725502589,331913.84321834)
(0,0,0)
(0,0,0)
(0,0,0)
(0,0,0)
(0,0,0)
(0,0,0)
(-13877.6900828587,33510.5767950813,2238.099104194)
(-14305.3959727347,33162.2827532403,4914.59293339556)
(-15352.5157473904,32354.9891638979,8626.27886587997)
(-17502.8929740602,30858.4696037448,14490.1323621159)
(-21839.3731730739,28637.4592541527,24671.2380780576)
(-30016.6746556701,25534.3923513711,43087.1687492199)
(-43794.4082581632,21671.9998664715,75703.4875925516)
(-62720.3677486636,17351.4521297034,128648.937369563)
(-91117.6293140378,12432.7563491932,212670.331338563)
(-120199.605877765,6599.29216517843,329167.662306194)
(0,0,0)
(0,0,0)
(0,0,0)
(0,0,0)
(0,0,0)
(0,0,0)
(-19789.8338113573,51454.5181658204,1845.89244061883)
(-20198.8401934732,51164.2548255692,4042.7605617621)
(-21207.6184303177,50454.4765695372,7150.8915864405)
(-23355.7122448812,49101.6831978213,12263.3902372424)
(-27734.8743047696,47019.8483630866,21615.875433078)
(-36049.9104154586,43887.067511316,39313.1106885993)
(-49850.3018750462,39363.2063995506,71472.206030592)
(-67930.6669224483,32987.0954455447,123767.22963718)
(-94726.7388126965,24118.1650080609,206808.559791045)
(-122033.012938507,12865.982193897,322574.882700749)
(0,0,0)
(0,0,0)
(0,0,0)
(0,0,0)
(0,0,0)
(0,0,0)
(-30625.4388530143,80636.6141260155,1443.34289282201)
(-30994.5766138284,80412.5549964304,3189.61933578705)
(-31899.4442788927,79819.3085525392,5724.23163168152)
(-33870.0128215695,78613.5103063466,10082.4173447289)
(-37946.030015502,76626.6012751973,18421.6944481215)
(-45744.432181352,73292.3625978268,34760.8315429552)
(-58664.4614512885,67697.6232862705,65090.8761075268)
(-75108.6572046302,58321.7152499268,114864.91350777)
(-100082.46726731,43599.8648471803,195465.680935897)
(-124986.737894926,23732.1201179976,309586.280906771)
(0,0,0)
(0,0,0)
(0,0,0)
(0,0,0)
(0,0,0)
(0,0,0)
(-50431.6760972826,130009.943925342,1058.3462979462)
(-50733.3265626479,129808.350212065,2395.8776449624)
(-51454.6130503637,129263.827259068,4405.97198880725)
(-53051.8977196281,128106.635088217,7964.74492655061)
(-56422.655930321,126020.430830932,14993.5713011315)
(-62912.7734081817,122112.127598535,29086.5797086026)
(-73703.8295711992,114780.533592972,55707.4989730853)
(-87027.2906114526,100885.732968612,100170.771865869)
(-109822.936670905,78023.840904528,175569.732479425)
(-130639.045334449,44219.5163633201,285721.381568487)
(0,0,0)
(0,0,0)
(0,0,0)
(0,0,0)
(0,0,0)
(0,0,0)
(-83575.6553274631,212899.571226043,686.028026751807)
(-83805.2454436533,212672.018408887,1627.60527359437)
(-84313.3084659116,212107.946417191,3096.79458134881)
(-85405.9147203618,210851.162350812,5758.18203912327)
(-87640.6606399781,208350.755366888,11068.5181431572)
(-91847.1401314835,203355.624572129,21672.1613010359)
(-98913.9660529062,193623.951559644,41742.7093872677)
(-109533.755278406,174858.962421648,77303.2352126328)
(-127808.295678218,141460.324715592,141675.04707976)
(-140503.561542426,85097.9214789594,241300.203506548)
(0,0,0)
(0,0,0)
(0,0,0)
(0,0,0)
(0,0,0)
(0,0,0)
(-116835.928954795,329410.375269377,325.124911447358)
(-116961.180035867,329145.680888585,812.642467617105)
(-117215.648587137,328537.16586414,1599.07160783235)
(-117757.552714481,327155.147413669,3052.63925946688)
(-118847.735192907,324302.773419774,5948.35639950561)
(-120875.01741053,318464.072231876,11714.9261502857)
(-124422.79699238,306959.183886873,22802.4908154293)
(-130449.883037143,284291.358499904,43819.9777742774)
(-140465.072587074,240627.849313056,85117.5257638804)
(-141527.727949442,155783.688761126,155959.486431163)
(0,0,0)
(0,0,0)
(0,0,0)
(0,0,0)
(0,0,0)
(0,0,0)
(0,0,0)
(0,0,0)
(0,0,0)
(0,0,0)
(0,0,0)
(0,0,0)
(0,0,0)
(0,0,0)
(0,0,0)
(0,0,0)
(0,0,0)
(0,0,0)
(0,0,0)
(0,0,0)
(0,0,0)
(0,0,0)
(0,0,0)
(0,0,0)
(0,0,0)
(0,0,0)
(0,0,0)
(0,0,0)
(0,0,0)
(0,0,0)
(0,0,0)
(0,0,0)
(0,0,0)
(0,0,0)
(0,0,0)
(0,0,0)
(0,0,0)
(0,0,0)
(0,0,0)
(0,0,0)
(0,0,0)
(0,0,0)
(0,0,0)
(0,0,0)
(0,0,0)
(0,0,0)
(0,0,0)
(0,0,0)
(0,0,0)
(0,0,0)
(0,0,0)
(0,0,0)
(0,0,0)
(0,0,0)
(0,0,0)
(0,0,0)
(0,0,0)
(0,0,0)
(0,0,0)
(0,0,0)
(0,0,0)
(0,0,0)
(0,0,0)
(0,0,0)
(0,0,0)
(0,0,0)
(0,0,0)
(0,0,0)
(0,0,0)
(0,0,0)
(0,0,0)
(0,0,0)
(0,0,0)
(0,0,0)
(0,0,0)
(0,0,0)
(0,0,0)
(0,0,0)
(0,0,0)
(0,0,0)
(0,0,0)
(0,0,0)
(0,0,0)
(0,0,0)
(0,0,0)
(0,0,0)
(0,0,0)
(0,0,0)
(0,0,0)
(0,0,0)
(0,0,0)
(0,0,0)
(0,0,0)
(0,0,0)
(0,0,0)
(0,0,0)
(0,0,0)
(0,0,0)
(0,0,0)
(0,0,0)
(0,0,0)
(0,0,0)
(1099194.64130037,3417.99436126164,3176.54972890908)
(1098465.4557986,3304.59739181783,6767.6891972721)
(1096869.75829287,3026.68634685915,11293.1230680728)
(1093865.10444908,2508.77802158604,17511.8810119163)
(1088491.17559541,1739.35406617447,26551.0155240052)
(1078833.61312286,781.928246449412,40185.8396508806)
(1061026.56831428,-92.9268664134146,61555.1262325827)
(1025742.71832689,-509.170391936761,98827.6067689646)
(946037.739419618,-449.161376456453,182663.828299668)
(729252.022479563,-228.466148612278,449913.568954945)
(0,0,0)
(0,0,0)
(0,0,0)
(0,0,0)
(0,0,0)
(0,0,0)
(1098495.33419412,7305.49833573635,2995.54639979078)
(1097797.29182642,7078.05492552042,6391.65521909358)
(1096208.41520336,6531.20689104908,10689.5361260487)
(1093131.54727608,5522.69528298297,16678.8066590075)
(1087588.24078841,3956.22150581444,25579.1223125805)
(1077645.18144652,1918.29102191811,39333.1718807162)
(1059549.72482904,-73.3433578506222,61215.9482164224)
(1024405.01168515,-994.360667022917,99021.9622064596)
(945200.364583892,-784.821024733682,183071.194711977)
(728887.14075425,-335.463486350708,450341.774561262)
(0,0,0)
(0,0,0)
(0,0,0)
(0,0,0)
(0,0,0)
(0,0,0)
(1096920.68176017,12183.0648272159,2658.21653934366)
(1096237.18004066,11875.2357548373,5672.96351950891)
(1094607.94595718,11104.0950060479,9531.76461501465)
(1091401.09121223,9667.36673679242,15053.6646300801)
(1085475.97825064,7371.00337039181,23575.862156478)
(1074713.34831152,4164.91366035254,37469.9334845015)
(1055571.72468626,709.49697339483,60498.3476272009)
(1020747.92360716,-873.464781581962,99451.8725649069)
(943054.050839853,-437.50022377335,183745.667980252)
(727978.092224346,13.1127241308052,450925.272340218)
(0,0,0)
(0,0,0)
(0,0,0)
(0,0,0)
(0,0,0)
(0,0,0)
(1093920.35931612,18706.6523476765,2220.01577405099)
(1093241.36217853,18345.7002426359,4740.34093465715)
(1091552.09651453,17468.4747638281,7994.6153620888)
(1088177.16614597,15836.1398283791,12748.1340687389)
(1081600.51629225,13200.1716029021,20441.9524091339)
(1069051.38815807,9244.35601755526,34165.9499618155)
(1046776.89335556,4392.44000118321,59190.4023910229)
(1012409.58908653,1923.8514822021,100143.126966625)
(938689.952442495,2054.96818410996,184392.489058287)
(726265.731253811,1467.34654119325,451173.158662838)
(0,0,0)
(0,0,0)
(0,0,0)
(0,0,0)
(0,0,0)
(0,0,0)
(1088574.93719412,27730.0039374453,1784.29211465857)
(1087908.89817694,27380.607506015,3795.36168299203)
(1086239.82203195,26567.2951076947,6364.4745412438)
(1082729.89532934,25092.7314263866,10135.3656212393)
(1075361.29923362,22819.6849716363,16575.4508272327)
(1060067.21781815,19545.1370825833,29451.0482698349)
(1030755.56537564,15618.755033621,56935.0305850052)
(996802.841952218,12151.7391487635,100444.204199011)
(931848.082186603,8879.48042670159,183914.251437073)
(723762.121945614,4810.85852088415,449869.282615477)
(0,0,0)
(0,0,0)
(0,0,0)
(0,0,0)
(0,0,0)
(0,0,0)
(1079048.08623421,40727.8307978912,1424.52407536817)
(1078424.74104731,40476.02353172,2965.79779026564)
(1076841.03710904,39827.0139362461,4917.69440378996)
(1073377.60235549,38679.6339918122,7857.74821948384)
(1065926.81122818,36922.3137250293,13353.7049145358)
(1050192.97656873,34285.6213816298,25630.6046127366)
(1020505.14877972,30586.2130626033,53567.9669104149)
(988015.507511214,25829.145573949,97204.6570329363)
(925941.090104347,18808.2245911107,179868.354932893)
(720859.685192581,9934.09949499714,445112.686809181)
(0,0,0)
(0,0,0)
(0,0,0)
(0,0,0)
(0,0,0)
(0,0,0)
(1061355.18043013,60914.8992743955,1092.58322178048)
(1060808.60277225,60772.3086156939,2253.38973312537)
(1059418.88090158,60318.7554534848,3703.59401686031)
(1056264.86851977,59511.349451391,5997.26819734712)
(1049295.2801923,58269.0453462347,10669.497349743)
(1034269.75979473,56266.7189811117,21934.4787555879)
(1005532.83456515,52753.9988389678,48829.6679441733)
(976179.800470778,46474.6541874027,90155.9726367692)
(917212.863075505,33946.233525782,170982.904340684)
(715929.598517506,18128.0350582634,435132.903346473)
(0,0,0)
(0,0,0)
(0,0,0)
(0,0,0)
(0,0,0)
(0,0,0)
(1026041.0840849,96918.3819092857,784.028164396322)
(1025602.49204801,96821.8286466318,1658.96050422282)
(1024507.63002945,96501.8434903228,2773.90036893711)
(1021971.55294844,95908.7201130535,4613.35002070655)
(1016195.70163104,94971.0150278381,8553.29375909003)
(1003440.75595743,93381.0676447892,18345.6867112622)
(978351.287616217,89775.7523142938,42529.0870298622)
(959088.441844957,78550.4942404766,77597.7855017391)
(899652.869754683,60184.3941168329,155144.089466423)
(704559.125322351,34425.2230883217,416909.001760964)
(0,0,0)
(0,0,0)
(0,0,0)
(0,0,0)
(0,0,0)
(0,0,0)
(946189.064615829,179922.330238943,491.602708443917)
(945873.555532749,179783.243059616,1111.65830050949)
(945117.461025133,179452.407917222,1990.59536397184)
(943434.226102228,178773.545593392,3545.90004239514)
(939813.240720105,177432.506866127,6890.77782541196)
(932418.226429835,174650.44025758,14616.3096327115)
(919075.56827226,168463.866199381,31198.9324038953)
(900033.346275521,154275.932777162,59166.6632947327)
(846421.940289562,129095.655110429,129285.437314776)
(669926.056169347,84238.555578482,382302.758094184)
(0,0,0)
(0,0,0)
(0,0,0)
(0,0,0)
(0,0,0)
(0,0,0)
(729327.685029659,446782.246349071,236.740886773746)
(729160.552836434,446601.769669594,556.752385902748)
(728776.589564419,446217.282157155,1059.9109757791)
(727952.102098158,445386.074366426,1997.99837158188)
(726259.18445798,443633.568376422,3950.28819186198)
(722936.485236789,439858.784150074,8190.71263354404)
(716758.19034916,431908.703293641,16825.1591791471)
(704785.395846144,415254.677863853,33871.4061905777)
(669958.658799735,381574.703281579,84228.8976140263)
(544744.481736722,297626.965179928,297828.54930779)
(0,0,0)
(0,0,0)
(0,0,0)
(0,0,0)
(0,0,0)
(0,0,0)
(0,0,0)
(0,0,0)
(0,0,0)
(0,0,0)
(0,0,0)
(0,0,0)
(0,0,0)
(0,0,0)
(0,0,0)
(0,0,0)
(0,0,0)
(0,0,0)
(0,0,0)
(0,0,0)
(0,0,0)
(0,0,0)
(0,0,0)
(0,0,0)
(0,0,0)
(0,0,0)
(0,0,0)
(0,0,0)
(0,0,0)
(0,0,0)
(0,0,0)
(0,0,0)
(0,0,0)
(0,0,0)
(0,0,0)
(0,0,0)
(0,0,0)
(0,0,0)
(0,0,0)
(0,0,0)
(0,0,0)
(0,0,0)
(0,0,0)
(0,0,0)
(0,0,0)
(0,0,0)
(0,0,0)
(0,0,0)
(0,0,0)
(0,0,0)
(0,0,0)
(0,0,0)
(0,0,0)
(0,0,0)
(0,0,0)
(0,0,0)
(0,0,0)
(0,0,0)
(0,0,0)
(0,0,0)
(0,0,0)
(0,0,0)
(0,0,0)
(0,0,0)
(0,0,0)
(0,0,0)
(0,0,0)
(0,0,0)
(0,0,0)
(0,0,0)
(0,0,0)
(0,0,0)
(0,0,0)
(0,0,0)
(0,0,0)
(0,0,0)
(0,0,0)
(0,0,0)
(0,0,0)
(0,0,0)
(0,0,0)
(0,0,0)
(0,0,0)
(0,0,0)
(0,0,0)
(0,0,0)
(0,0,0)
(0,0,0)
(0,0,0)
(0,0,0)
(0,0,0)
(0,0,0)
(0,0,0)
(0,0,0)
(0,0,0)
(0,0,0)
(0,0,0)
(0,0,0)
(0,0,0)
(0,0,0)
(0,0,0)
(0,0,0)
(-19227.4989160657,2752.68814849214,2409.18108650364)
(-20026.2095568601,2610.54473047444,5030.03073008738)
(-21771.0922255418,2279.75657454871,8130.85369257592)
(-24947.5323908109,1690.91710037816,11992.3024507234)
(-30378.2941755609,785.182928276051,16816.3183120095)
(-39533.595548816,-432.714949175161,22355.9709515271)
(-54646.9853998622,-1560.46458468962,26329.7182689744)
(-78639.7602158796,-1827.0937762096,19279.0196066207)
(-113072.410883355,-1260.77990740502,-33610.3211644331)
(-138865.851937259,-577.103827811771,-278175.613901168)
(0,0,0)
(0,0,0)
(0,0,0)
(0,0,0)
(0,0,0)
(0,0,0)
(-20000.4780278864,5763.81496408026,2224.41442497591)
(-20763.5174581533,5485.5115148493,4649.98594373619)
(-22464.6333709055,4843.3849791176,7499.13513202738)
(-25663.6270653059,3675.42403662668,11049.5315557936)
(-31194.4381670765,1744.37627695907,15612.7461811852)
(-40617.1281829579,-1075.541393976,21257.6112740789)
(-56088.3766422523,-4056.19420278381,26131.1713819764)
(-79866.1459924544,-4632.22358007469,19947.1878820211)
(-113706.405601675,-2883.70709164977,-32783.3857294871)
(-139101.744335519,-1204.41197058466,-277427.46347839)
(0,0,0)
(0,0,0)
(0,0,0)
(0,0,0)
(0,0,0)
(0,0,0)
(-21754.2924234141,9283.28479568011,1895.23337059778)
(-22485.2647564933,8912.49827514443,3930.42042601402)
(-24155.2522158317,8033.51667715063,6243.2159195404)
(-27374.9879760443,6359.90433011404,9074.54383287912)
(-33186.3613998195,3381.75736510108,12839.2314138474)
(-43573.8892462768,-1614.52946495801,18405.1860612145)
(-60901.6835531773,-8179.85715203143,25741.9862684855)
(-84090.0141378444,-9213.05409902664,21900.4835509265)
(-115602.757154777,-4710.4027978387,-30876.2837295971)
(-139749.392099823,-1626.73536762382,-275986.746989824)
(0,0,0)
(0,0,0)
(0,0,0)
(0,0,0)
(0,0,0)
(0,0,0)
(-25046.2401710545,13504.3325619361,1485.28073952729)
(-25724.8968400823,13113.6920070182,2990.07504479721)
(-27366.5672002672,12160.4058513773,4521.57860395006)
(-30599.9878115765,10312.1289151316,6086.23699501712)
(-37007.6713602062,6889.51907354868,7926.39195765001)
(-50173.7619637223,236.641447835405,12040.1001852384)
(-75995.7489436844,-11640.8620972446,25013.4764482722)
(-98074.7637447586,-13665.0214555689,26689.5256546912)
(-120350.079390367,-4718.71198217129,-27522.4043094802)
(-141095.463426083,-999.178469527451,-274049.037509141)
(0,0,0)
(0,0,0)
(0,0,0)
(0,0,0)
(0,0,0)
(0,0,0)
(-30628.5464068728,18374.5800837865,1072.96509773319)
(-31251.7489683722,18049.8825605526,2037.15070811881)
(-32794.3340122674,17260.7384829806,2710.70313927288)
(-35987.7634199484,15807.6057765415,2672.61404574779)
(-43147.7504219452,13460.0747216478,1350.83707179299)
(-61724.7343750469,9774.80682111629,344.352910264978)
(-122549.269526944,5468.05976321364,23279.9949709677)
(-146156.910132761,3441.85623771073,35872.5983812258)
(-129732.647860518,3065.19690356625,-23590.8514387188)
(-143245.634433753,1963.79683805483,-272806.34134827)
(0,0,0)
(0,0,0)
(0,0,0)
(0,0,0)
(0,0,0)
(0,0,0)
(-39855.2834094701,23264.1541530715,753.524593015887)
(-40394.3292957921,23070.516930402,1291.68958488569)
(-41769.0171477899,22559.8291988935,1342.3821443709)
(-44759.4133869841,21706.0165349679,320.716146930497)
(-51719.2974424705,20469.5028514517,-2302.87429361506)
(-70277.1417848243,18531.0688641457,-3849.28896451969)
(-128280.360556958,15723.7592423067,21420.2499116136)
(-150054.843649386,14096.3918511682,35575.7944773849)
(-134274.987666376,10178.950348974,-24582.1521787522)
(-145457.518410813,5058.36809205123,-274619.790810728)
(0,0,0)
(0,0,0)
(0,0,0)
(0,0,0)
(0,0,0)
(0,0,0)
(-54979.7423358687,25825.4209501759,513.384987454614)
(-55421.4070745816,25767.8476152444,785.793168045546)
(-56548.8791302453,25561.9528551496,491.1585621638)
(-59162.8916459213,25355.4521462819,-990.787864866335)
(-65567.318688348,25355.3856589546,-4274.3427731179)
(-83730.0754858866,25647.7502851083,-6651.45989486089)
(-144222.614809571,25749.9109620418,19817.5667787469)
(-164400.511978747,29562.7539932923,31671.2461046996)
(-141101.406729255,16539.575739292,-29635.3804622537)
(-149096.602861837,6833.35013364038,-279644.432105961)
(0,0,0)
(0,0,0)
(0,0,0)
(0,0,0)
(0,0,0)
(0,0,0)
(-79021.1656760221,17293.8311062574,333.568623377786)
(-79386.215089474,17325.0239883621,504.828406326217)
(-80242.1082959222,17367.3985560557,188.850049428524)
(-82275.7575268206,17664.7758590643,-1133.43416959786)
(-87600.5335346294,18888.0974633995,-4130.181789732)
(-104280.597712006,22683.6248889609,-6704.97370558055)
(-170220.432334218,30855.0774782842,23501.3087472708)
(-139487.591836208,19837.4182181678,18542.4072221736)
(-146404.630349695,7229.88213749788,-39350.6700529732)
(-154622.860287234,-68.3608593644903,-286527.244431711)
(0,0,0)
(0,0,0)
(0,0,0)
(0,0,0)
(0,0,0)
(0,0,0)
(-113518.631191279,-36455.0458944032,196.301826375471)
(-113785.360039206,-36431.2708847777,351.241290008968)
(-114356.174041809,-36373.5572854374,305.561217028528)
(-115621.462273749,-36185.888578279,-48.3569510155199)
(-118548.691980289,-35583.5885852769,-475.009183337671)
(-125633.178176658,-34261.1738996996,1260.92323038122)
(-141135.343490004,-33237.8720380972,12304.5135275883)
(-146515.372923643,-40371.5893368953,5801.96930037087)
(-160216.298210947,-46853.7575833597,-46736.4234597035)
(-162912.772646271,-40641.7648774812,-286584.461607306)
(0,0,0)
(0,0,0)
(0,0,0)
(0,0,0)
(0,0,0)
(0,0,0)
(-139137.351901869,-281353.415982734,103.13603848604)
(-139282.797463844,-281344.493780785,199.43825331822)
(-139574.389474127,-281350.554338981,267.143364067327)
(-140170.560355124,-281399.726632726,343.372890344758)
(-141426.507100176,-281458.10694178,643.311823594779)
(-144089.092208819,-281869.633716907,2017.07810497708)
(-149050.478840088,-283621.149911312,4948.75418607976)
(-154697.392082119,-288362.765084229,-837.553119764242)
(-162943.322584396,-287334.679777446,-40714.9205229427)
(-157333.693078519,-246374.084005414,-246164.697561123)
(0,0,0)
(0,0,0)
(0,0,0)
(0,0,0)
(0,0,0)
(0,0,0)
(0,0,0)
(0,0,0)
(0,0,0)
(0,0,0)
(0,0,0)
(0,0,0)
(0,0,0)
(0,0,0)
(0,0,0)
(0,0,0)
(0,0,0)
(0,0,0)
(0,0,0)
(0,0,0)
(0,0,0)
(0,0,0)
(0,0,0)
(0,0,0)
(0,0,0)
(0,0,0)
(0,0,0)
(0,0,0)
(0,0,0)
(0,0,0)
(0,0,0)
(0,0,0)
(0,0,0)
(0,0,0)
(0,0,0)
(0,0,0)
(0,0,0)
(0,0,0)
(0,0,0)
(0,0,0)
(0,0,0)
(0,0,0)
(0,0,0)
(0,0,0)
(0,0,0)
(0,0,0)
(0,0,0)
(0,0,0)
(0,0,0)
(0,0,0)
(0,0,0)
(0,0,0)
(0,0,0)
(0,0,0)
(0,0,0)
(0,0,0)
(0,0,0)
(0,0,0)
(0,0,0)
(0,0,0)
(0,0,0)
(0,0,0)
(0,0,0)
(0,0,0)
(0,0,0)
(0,0,0)
(0,0,0)
(0,0,0)
(0,0,0)
(0,0,0)
(0,0,0)
(0,0,0)
(0,0,0)
(0,0,0)
(0,0,0)
(0,0,0)
(0,0,0)
(0,0,0)
(0,0,0)
(0,0,0)
(0,0,0)
(0,0,0)
(0,0,0)
(0,0,0)
(0,0,0)
(0,0,0)
(0,0,0)
(0,0,0)
(0,0,0)
(0,0,0)
(0,0,0)
(0,0,0)
(0,0,0)
(0,0,0)
(0,0,0)
(0,0,0)
(0,0,0)
(0,0,0)
(0,0,0)
(0,0,0)
(0,0,0)
(0,0,0)
(-22720.4476374164,1884.3770287168,1608.57169263475)
(-23389.1332799865,1744.17146678769,3227.32394897329)
(-24822.0190148607,1404.18317053865,4874.06756775583)
(-27314.548509974,809.512134862681,6431.57155205384)
(-31340.9295952821,-162.040474772784,7556.24744655066)
(-37639.8277624359,-1584.32663442191,7246.80629459471)
(-46787.8803767268,-3016.87261475451,2404.57388621638)
(-58141.2859250347,-3050.45089807759,-15043.4495065507)
(-67213.2827446134,-1867.69228691643,-59034.8853583682)
(-58488.6775941899,-783.470598449018,-138628.589103001)
(0,0,0)
(0,0,0)
(0,0,0)
(0,0,0)
(0,0,0)
(0,0,0)
(-23430.4066333355,3885.49298677293,1428.81264739355)
(-24058.2593532482,3605.39827006621,2862.3277392059)
(-25416.814639416,2956.32573355974,4262.36644469553)
(-27782.264082919,1752.81966929209,5437.69592787714)
(-31614.9963791178,-445.928355133383,6142.14202027942)
(-37726.9856604939,-4165.67141014318,5833.34427354368)
(-46806.070502677,-8913.94797478666,2448.11349400792)
(-57835.3834928283,-8859.43036750567,-13773.6695361834)
(-66788.8713696289,-4721.706845573,-57837.1892095757)
(-58240.9405022327,-1781.57471460431,-137699.888926734)
(0,0,0)
(0,0,0)
(0,0,0)
(0,0,0)
(0,0,0)
(0,0,0)
(-24990.3501159545,5988.82540195942,1132.72527735673)
(-25553.536556343,5614.07926576361,2192.31608150538)
(-26765.5619253756,4756.75702903046,3002.19449557611)
(-28848.8963148235,3018.6833595284,3210.23914412116)
(-32274.7419768338,-598.922457485404,2451.61382348506)
(-38093.7312810364,-8357.72976105303,1163.51420914502)
(-47997.5272745617,-23341.5480334535,2686.95798920299)
(-57643.0887784274,-23200.2139197024,-9419.18381802247)
(-65676.4284114194,-9392.86644553604,-54674.3529614228)
(-57596.6950714517,-2906.78831395687,-135701.836390464)
(0,0,0)
(0,0,0)
(0,0,0)
(0,0,0)
(0,0,0)
(0,0,0)
(-27815.9568604787,7982.05992933143,776.482162056122)
(-28263.609083515,7610.47310873287,1318.80056252261)
(-29249.1189779739,6740.5611825306,1217.54818673158)
(-30845.5566915713,4901.47680534326,-419.676379089682)
(-33472.5531601033,695.250932771683,-5248.96796944473)
(-38770.2426130365,-11331.3391793505,-13678.8779018396)
(-58023.5565556607,-58127.77255829,3135.15423496674)
(-61120.8765236774,-61718.4352766999,4699.4883708881)
(-63063.5440478811,-14091.6901168111,-47888.2233003227)
(-56258.9994252509,-3163.99275985682,-132467.482855244)
(0,0,0)
(0,0,0)
(0,0,0)
(0,0,0)
(0,0,0)
(0,0,0)
(-32352.1058122133,9281.89817373306,423.721160939748)
(-32670.435414916,9005.0070104822,447.873705733855)
(-33348.7360591801,8359.04162433224,-616.204689153876)
(-34223.3901751874,7132.70488692506,-4611.80601549534)
(-34784.8591123944,4957.14192945374,-17236.5883217304)
(-31267.4919166219,1332.74804400669,-60357.9180035141)
(3.04890251862653e-05,8.47671303688801e-06,-1.97701352822966e-05)