/*--------------------------------*- C++ -*----------------------------------*\
| =========                 |                                                 |
| \\      /  F ield         | foam-extend: Open Source Cstd::filesystem::create_directory();FD                    |
|  \\    /   O peration     | Version:     4.0                                |
|   \\  /    A nd           | Web:         http://www.foam-extend.org         |
|    \\/     M anipulation  |                                                 |
\*---------------------------------------------------------------------------*/
FoamFile
{
    version 2.0;
    format ascii;
    class volVectorField;
    location "Data/2481";
    object      H;
}
// * * * * * * * * * * * * * * * * * * * * * * * * * * * * * * * * * * * * * //

dimensions      [0 1 -1 0 0 0 0];

internalField   nonuniform List<vector>
4096
(
(0,0,0)
(0,0,0)
(0,0,0)
(0,0,0)
(0,0,0)
(0,0,0)
(0,0,0)
(0,0,0)
(0,0,0)
(0,0,0)
(0,0,0)
(0,0,0)
(0,0,0)
(0,0,0)
(0,0,0)
(0,0,0)
(0,0,0)
(0,0,0)
(0,0,0)
(0,0,0)
(0,0,0)
(0,0,0)
(0,0,0)
(0,0,0)
(0,0,0)
(0,0,0)
(0,0,0)
(0,0,0)
(0,0,0)
(0,0,0)
(0,0,0)
(0,0,0)
(0,0,0)
(0,0,0)
(0,0,0)
(0,0,0)
(0,0,0)
(0,0,0)
(0,0,0)
(0,0,0)
(0,0,0)
(0,0,0)
(0,0,0)
(0,0,0)
(0,0,0)
(0,0,0)
(0,0,0)
(0,0,0)
(0,0,0)
(0,0,0)
(0,0,0)
(0,0,0)
(0,0,0)
(0,0,0)
(0,0,0)
(0,0,0)
(0,0,0)
(0,0,0)
(0,0,0)
(0,0,0)
(0,0,0)
(0,0,0)
(0,0,0)
(0,0,0)
(0,0,0)
(0,0,0)
(0,0,0)
(0,0,0)
(0,0,0)
(0,0,0)
(0,0,0)
(0,0,0)
(0,0,0)
(0,0,0)
(0,0,0)
(0,0,0)
(0,0,0)
(0,0,0)
(0,0,0)
(0,0,0)
(0,0,0)
(0,0,0)
(0,0,0)
(0,0,0)
(0,0,0)
(0,0,0)
(0,0,0)
(0,0,0)
(0,0,0)
(0,0,0)
(0,0,0)
(0,0,0)
(0,0,0)
(0,0,0)
(0,0,0)
(0,0,0)
(0,0,0)
(0,0,0)
(0,0,0)
(0,0,0)
(0,0,0)
(0,0,0)
(0,0,0)
(0,0,0)
(0,0,0)
(0,0,0)
(0,0,0)
(0,0,0)
(0,0,0)
(0,0,0)
(0,0,0)
(0,0,0)
(0,0,0)
(0,0,0)
(0,0,0)
(0,0,0)
(0,0,0)
(0,0,0)
(0,0,0)
(0,0,0)
(0,0,0)
(0,0,0)
(0,0,0)
(0,0,0)
(0,0,0)
(0,0,0)
(0,0,0)
(0,0,0)
(0,0,0)
(0,0,0)
(0,0,0)
(0,0,0)
(0,0,0)
(0,0,0)
(0,0,0)
(0,0,0)
(0,0,0)
(0,0,0)
(0,0,0)
(0,0,0)
(0,0,0)
(0,0,0)
(0,0,0)
(0,0,0)
(0,0,0)
(0,0,0)
(0,0,0)
(0,0,0)
(0,0,0)
(0,0,0)
(0,0,0)
(0,0,0)
(0,0,0)
(0,0,0)
(0,0,0)
(0,0,0)
(0,0,0)
(0,0,0)
(0,0,0)
(0,0,0)
(0,0,0)
(0,0,0)
(0,0,0)
(0,0,0)
(0,0,0)
(0,0,0)
(0,0,0)
(0,0,0)
(0,0,0)
(0,0,0)
(0,0,0)
(0,0,0)
(0,0,0)
(0,0,0)
(0,0,0)
(0,0,0)
(0,0,0)
(0,0,0)
(0,0,0)
(0,0,0)
(0,0,0)
(0,0,0)
(0,0,0)
(0,0,0)
(0,0,0)
(0,0,0)
(0,0,0)
(0,0,0)
(0,0,0)
(0,0,0)
(0,0,0)
(0,0,0)
(0,0,0)
(0,0,0)
(0,0,0)
(0,0,0)
(0,0,0)
(0,0,0)
(0,0,0)
(0,0,0)
(0,0,0)
(0,0,0)
(0,0,0)
(0,0,0)
(0,0,0)
(0,0,0)
(0,0,0)
(0,0,0)
(0,0,0)
(0,0,0)
(0,0,0)
(0,0,0)
(0,0,0)
(0,0,0)
(0,0,0)
(0,0,0)
(0,0,0)
(0,0,0)
(0,0,0)
(0,0,0)
(0,0,0)
(0,0,0)
(0,0,0)
(0,0,0)
(0,0,0)
(0,0,0)
(0,0,0)
(0,0,0)
(0,0,0)
(0,0,0)
(0,0,0)
(0,0,0)
(0,0,0)
(0,0,0)
(0,0,0)
(0,0,0)
(0,0,0)
(0,0,0)
(0,0,0)
(0,0,0)
(0,0,0)
(0,0,0)
(0,0,0)
(0,0,0)
(0,0,0)
(0,0,0)
(0,0,0)
(0,0,0)
(0,0,0)
(0,0,0)
(0,0,0)
(0,0,0)
(0,0,0)
(0,0,0)
(0,0,0)
(0,0,0)
(0,0,0)
(0,0,0)
(0,0,0)
(0,0,0)
(0,0,0)
(0,0,0)
(0,0,0)
(0,0,0)
(0,0,0)
(0,0,0)
(0,0,0)
(0,0,0)
(0,0,0)
(0,0,0)
(0,0,0)
(0,0,0)
(0,0,0)
(0,0,0)
(0,0,0)
(0,0,0)
(0,0,0)
(0,0,0)
(0,0,0)
(0,0,0)
(0,0,0)
(0,0,0)
(0,0,0)
(0,0,0)
(0,0,0)
(0,0,0)
(0,0,0)
(0,0,0)
(0,0,0)
(0,0,0)
(0,0,0)
(0,0,0)
(0,0,0)
(0,0,0)
(0,0,0)
(0,0,0)
(0,0,0)
(0,0,0)
(0,0,0)
(0,0,0)
(0,0,0)
(0,0,0)
(0,0,0)
(0,0,0)
(0,0,0)
(0,0,0)
(0,0,0)
(0,0,0)
(0,0,0)
(0,0,0)
(0,0,0)
(0,0,0)
(0,0,0)
(0,0,0)
(0,0,0)
(0,0,0)
(0,0,0)
(0,0,0)
(0,0,0)
(0,0,0)
(0,0,0)
(0,0,0)
(0,0,0)
(0,0,0)
(0,0,0)
(0,0,0)
(0,0,0)
(0,0,0)
(0,0,0)
(0,0,0)
(0,0,0)
(0,0,0)
(0,0,0)
(0,0,0)
(0,0,0)
(0,0,0)
(0,0,0)
(0,0,0)
(0,0,0)
(0,0,0)
(0,0,0)
(0,0,0)
(0,0,0)
(0,0,0)
(0,0,0)
(0,0,0)
(0,0,0)
(0,0,0)
(0,0,0)
(0,0,0)
(0,0,0)
(0,0,0)
(0,0,0)
(0,0,0)
(0,0,0)
(0,0,0)
(0,0,0)
(0,0,0)
(0,0,0)
(0,0,0)
(0,0,0)
(0,0,0)
(0,0,0)
(0,0,0)
(0,0,0)
(0,0,0)
(0,0,0)
(0,0,0)
(0,0,0)
(0,0,0)
(0,0,0)
(0,0,0)
(0,0,0)
(0,0,0)
(0,0,0)
(0,0,0)
(0,0,0)
(0,0,0)
(0,0,0)
(0,0,0)
(0,0,0)
(0,0,0)
(0,0,0)
(0,0,0)
(0,0,0)
(0,0,0)
(0,0,0)
(0,0,0)
(0,0,0)
(0,0,0)
(0,0,0)
(0,0,0)
(0,0,0)
(0,0,0)
(0,0,0)
(0,0,0)
(0,0,0)
(0,0,0)
(0,0,0)
(0,0,0)
(0,0,0)
(0,0,0)
(0,0,0)
(0,0,0)
(0,0,0)
(0,0,0)
(0,0,0)
(0,0,0)
(0,0,0)
(0,0,0)
(0,0,0)
(0,0,0)
(0,0,0)
(0,0,0)
(0,0,0)
(0,0,0)
(0,0,0)
(0,0,0)
(0,0,0)
(0,0,0)
(0,0,0)
(0,0,0)
(0,0,0)
(0,0,0)
(0,0,0)
(0,0,0)
(0,0,0)
(0,0,0)
(0,0,0)
(0,0,0)
(0,0,0)
(0,0,0)
(0,0,0)
(0,0,0)
(0,0,0)
(0,0,0)
(0,0,0)
(0,0,0)
(0,0,0)
(0,0,0)
(0,0,0)
(0,0,0)
(0,0,0)
(0,0,0)
(0,0,0)
(0,0,0)
(0,0,0)
(0,0,0)
(0,0,0)
(0,0,0)
(0,0,0)
(0,0,0)
(0,0,0)
(0,0,0)
(0,0,0)
(0,0,0)
(0,0,0)
(0,0,0)
(0,0,0)
(0,0,0)
(0,0,0)
(0,0,0)
(0,0,0)
(0,0,0)
(0,0,0)
(0,0,0)
(0,0,0)
(0,0,0)
(0,0,0)
(0,0,0)
(0,0,0)
(0,0,0)
(0,0,0)
(0,0,0)
(0,0,0)
(0,0,0)
(0,0,0)
(0,0,0)
(0,0,0)
(0,0,0)
(0,0,0)
(0,0,0)
(0,0,0)
(0,0,0)
(0,0,0)
(0,0,0)
(0,0,0)
(0,0,0)
(0,0,0)
(0,0,0)
(0,0,0)
(0,0,0)
(0,0,0)
(0,0,0)
(0,0,0)
(0,0,0)
(0,0,0)
(0,0,0)
(0,0,0)
(0,0,0)
(0,0,0)
(0,0,0)
(0,0,0)
(0,0,0)
(0,0,0)
(0,0,0)
(0,0,0)
(0,0,0)
(0,0,0)
(0,0,0)
(0,0,0)
(0,0,0)
(0,0,0)
(0,0,0)
(0,0,0)
(0,0,0)
(0,0,0)
(0,0,0)
(0,0,0)
(0,0,0)
(0,0,0)
(0,0,0)
(0,0,0)
(0,0,0)
(0,0,0)
(0,0,0)
(0,0,0)
(0,0,0)
(0,0,0)
(0,0,0)
(0,0,0)
(0,0,0)
(0,0,0)
(0,0,0)
(0,0,0)
(0,0,0)
(0,0,0)
(0,0,0)
(0,0,0)
(0,0,0)
(0,0,0)
(0,0,0)
(0,0,0)
(0,0,0)
(0,0,0)
(0,0,0)
(0,0,0)
(0,0,0)
(0,0,0)
(0,0,0)
(0,0,0)
(0,0,0)
(0,0,0)
(0,0,0)
(0,0,0)
(0,0,0)
(0,0,0)
(0,0,0)
(0,0,0)
(0,0,0)
(0,0,0)
(0,0,0)
(0,0,0)
(0,0,0)
(0,0,0)
(0,0,0)
(0,0,0)
(0,0,0)
(0,0,0)
(0,0,0)
(0,0,0)
(0,0,0)
(0,0,0)
(0,0,0)
(0,0,0)
(0,0,0)
(0,0,0)
(0,0,0)
(0,0,0)
(0,0,0)
(0,0,0)
(0,0,0)
(0,0,0)
(0,0,0)
(0,0,0)
(0,0,0)
(0,0,0)
(0,0,0)
(0,0,0)
(0,0,0)
(0,0,0)
(0,0,0)
(0,0,0)
(0,0,0)
(0,0,0)
(0,0,0)
(0,0,0)
(0,0,0)
(0,0,0)
(0,0,0)
(0,0,0)
(0,0,0)
(0,0,0)
(0,0,0)
(0,0,0)
(0,0,0)
(0,0,0)
(0,0,0)
(0,0,0)
(0,0,0)
(0,0,0)
(0,0,0)
(0,0,0)
(0,0,0)
(0,0,0)
(0,0,0)
(0,0,0)
(0,0,0)
(0,0,0)
(0,0,0)
(0,0,0)
(0,0,0)
(0,0,0)
(0,0,0)
(0,0,0)
(0,0,0)
(0,0,0)
(0,0,0)
(0,0,0)
(0,0,0)
(0,0,0)
(0,0,0)
(0,0,0)
(0,0,0)
(0,0,0)
(0,0,0)
(0,0,0)
(0,0,0)
(0,0,0)
(0,0,0)
(0,0,0)
(0,0,0)
(0,0,0)
(0,0,0)
(0,0,0)
(0,0,0)
(0,0,0)
(0,0,0)
(0,0,0)
(0,0,0)
(0,0,0)
(0,0,0)
(0,0,0)
(0,0,0)
(0,0,0)
(0,0,0)
(0,0,0)
(0,0,0)
(0,0,0)
(0,0,0)
(0,0,0)
(0,0,0)
(0,0,0)
(0,0,0)
(0,0,0)
(0,0,0)
(0,0,0)
(0,0,0)
(0,0,0)
(0,0,0)
(0,0,0)
(0,0,0)
(0,0,0)
(0,0,0)
(0,0,0)
(0,0,0)
(0,0,0)
(0,0,0)
(0,0,0)
(0,0,0)
(0,0,0)
(0,0,0)
(0,0,0)
(0,0,0)
(0,0,0)
(0,0,0)
(0,0,0)
(0,0,0)
(0,0,0)
(0,0,0)
(0,0,0)
(0,0,0)
(0,0,0)
(0,0,0)
(0,0,0)
(0,0,0)
(0,0,0)
(0,0,0)
(0,0,0)
(0,0,0)
(0,0,0)
(0,0,0)
(0,0,0)
(0,0,0)
(0,0,0)
(0,0,0)
(0,0,0)
(0,0,0)
(0,0,0)
(0,0,0)
(0,0,0)
(0,0,0)
(0,0,0)
(0,0,0)
(0,0,0)
(0,0,0)
(0,0,0)
(0,0,0)
(0,0,0)
(0,0,0)
(0,0,0)
(0,0,0)
(0,0,0)
(0,0,0)
(0,0,0)
(0,0,0)
(0,0,0)
(0,0,0)
(0,0,0)
(0,0,0)
(0,0,0)
(0,0,0)
(0,0,0)
(0,0,0)
(0,0,0)
(0,0,0)
(0,0,0)
(0,0,0)
(0,0,0)
(0,0,0)
(0,0,0)
(0,0,0)
(0,0,0)
(0,0,0)
(0,0,0)
(0,0,0)
(0,0,0)
(0,0,0)
(0,0,0)
(0,0,0)
(0,0,0)
(0,0,0)
(0,0,0)
(0,0,0)
(0,0,0)
(0,0,0)
(0,0,0)
(0,0,0)
(0,0,0)
(0,0,0)
(0,0,0)
(0,0,0)
(0,0,0)
(0,0,0)
(0,0,0)
(0,0,0)
(0,0,0)
(0,0,0)
(0,0,0)
(0,0,0)
(0,0,0)
(0,0,0)
(0,0,0)
(0,0,0)
(0,0,0)
(0,0,0)
(0,0,0)
(0,0,0)
(0,0,0)
(0,0,0)
(0,0,0)
(0,0,0)
(0,0,0)
(0,0,0)
(0,0,0)
(0,0,0)
(0,0,0)
(0,0,0)
(0,0,0)
(0,0,0)
(0,0,0)
(0,0,0)
(0,0,0)
(0,0,0)
(0,0,0)
(0,0,0)
(0,0,0)
(0,0,0)
(0,0,0)
(0,0,0)
(0,0,0)
(0,0,0)
(0,0,0)
(0,0,0)
(0,0,0)
(0,0,0)
(0,0,0)
(0,0,0)
(0,0,0)
(0,0,0)
(0,0,0)
(0,0,0)
(0,0,0)
(0,0,0)
(0,0,0)
(0,0,0)
(0,0,0)
(0,0,0)
(0,0,0)
(6.39180810016918e-13,8.39207787224849e-12,-9.97679634004167e-12)
(9.1227801748727e-13,1.86263037443715e-11,-9.98680051822353e-12)
(9.69817751942911e-13,3.21760759211244e-11,-9.3319228197298e-12)
(9.63228356692142e-13,5.06683108561574e-11,-7.75776764856486e-12)
(-1.99582229315322e-13,7.84682916802656e-11,-5.63683035197308e-12)
(-2.79002989099701e-12,1.22213235635468e-10,-3.57375593300376e-12)
(-6.3256383336244e-12,1.92693403091544e-10,-1.58078391732071e-12)
(-7.89066449850888e-12,3.11167061913951e-10,-6.56106119797987e-13)
(-8.42709280722654e-12,5.08492551619043e-10,1.72542495549788e-13)
(-8.7258426855842e-12,7.83215557748882e-10,4.31090007497072e-13)
(0,0,0)
(0,0,0)
(0,0,0)
(0,0,0)
(0,0,0)
(0,0,0)
(2.70439210057133e-13,8.12714886657581e-12,-2.08386509151865e-11)
(1.06741441120199e-12,1.78669597776113e-11,-2.10862406939687e-11)
(2.21978640807826e-12,3.12266685136848e-11,-2.01589827917922e-11)
(1.75072109900197e-12,4.9233037946629e-11,-1.74674239671955e-11)
(-2.2397372494894e-13,7.66997781819705e-11,-1.36779665040181e-11)
(-4.6188196752635e-12,1.20232480529093e-10,-9.50795109939029e-12)
(-1.02289382021073e-11,1.91413695999551e-10,-5.7088395072174e-12)
(-1.38658517871834e-11,3.10306405420088e-10,-3.31672035025152e-12)
(-1.56845848869976e-11,5.08007951041289e-10,-1.33921880523186e-12)
(-1.54157352853759e-11,7.83257865254434e-10,-4.58173941667799e-13)
(0,0,0)
(0,0,0)
(0,0,0)
(0,0,0)
(0,0,0)
(0,0,0)
(9.4688953546602e-13,7.51148958225071e-12,-3.44672134496007e-11)
(2.45328199093988e-12,1.63556813806995e-11,-3.40057674816985e-11)
(3.67762371282752e-12,2.8996054063408e-11,-3.24213953819362e-11)
(3.21796714261811e-12,4.61177801999214e-11,-2.88753517670282e-11)
(6.9177422778225e-13,7.2954689664229e-11,-2.35432546433608e-11)
(-4.51317814599606e-12,1.16396027404468e-10,-1.75473912975566e-11)
(-1.02482213254722e-11,1.88828780600879e-10,-1.22459610774159e-11)
(-1.47125336850036e-11,3.08897375825628e-10,-8.16050251249232e-12)
(-1.87023995048533e-11,5.07182918469248e-10,-4.74869457458015e-12)
(-1.91789859479975e-11,7.82831441399525e-10,-2.36030774286224e-12)
(0,0,0)
(0,0,0)
(0,0,0)
(0,0,0)
(0,0,0)
(0,0,0)
(2.56799147632935e-12,6.3005042334528e-12,-5.29805090706958e-11)
(4.79399247344977e-12,1.40879603900945e-11,-5.21719447158469e-11)
(6.44831599615658e-12,2.52762215146564e-11,-4.99249745183815e-11)
(5.73697418421603e-12,4.0857618284421e-11,-4.57133978756288e-11)
(2.5939778281171e-12,6.67897133567639e-11,-3.95764311566179e-11)
(-2.26008749042384e-12,1.10425759644119e-10,-3.24195420758965e-11)
(-8.84940466194193e-12,1.84517109433373e-10,-2.54220576479352e-11)
(-1.4847453083821e-11,3.06878920318063e-10,-1.93156904945317e-11)
(-1.90102799752788e-11,5.05423505812593e-10,-1.33643866783794e-11)
(-1.97641542259535e-11,7.80654577175866e-10,-6.95058481818022e-12)
(0,0,0)
(0,0,0)
(0,0,0)
(0,0,0)
(0,0,0)
(0,0,0)
(2.80525956892455e-12,5.18923632174788e-12,-8.04773874538099e-11)
(5.28341171766686e-12,1.1699106625916e-11,-7.99016764906925e-11)
(8.04427806474282e-12,2.09765888543495e-11,-7.75355319008138e-11)
(8.36902945078574e-12,3.47026672003973e-11,-7.32811524322653e-11)
(6.6256446048005e-12,5.89457602841001e-11,-6.70727241771393e-11)
(2.29273009596297e-12,1.01710541390433e-10,-5.96846494710234e-11)
(-4.7137353704286e-12,1.77115507375306e-10,-5.18942406474951e-11)
(-1.11471342159444e-11,3.01876208298633e-10,-4.17793972776116e-11)
(-1.4942978446743e-11,4.99802927582905e-10,-2.98167832945114e-11)
(-1.50570896338953e-11,7.74145928359171e-10,-1.56310052197072e-11)
(0,0,0)
(0,0,0)
(0,0,0)
(0,0,0)
(0,0,0)
(0,0,0)
(3.41207338004591e-12,4.35732071068962e-12,-1.2275774588831e-10)
(5.32270532228001e-12,9.22886789198639e-12,-1.21835224615151e-10)
(7.91151507451008e-12,1.6475188044715e-11,-1.19600161845991e-10)
(8.70945934444664e-12,2.84622864449344e-11,-1.16171054486454e-10)
(7.54465024036242e-12,5.06272318786307e-11,-1.10666832944114e-10)
(4.52390027528061e-12,9.17722044376284e-11,-1.03122564882523e-10)
(-3.43067141992559e-13,1.67637446798701e-10,-9.31495798711489e-11)
(-4.39454167359078e-12,2.91413133624581e-10,-7.81882871559858e-11)
(-7.43515162048143e-12,4.8687076850484e-10,-5.70060361577692e-11)
(-8.04672712610286e-12,7.59385837843777e-10,-3.03358317725807e-11)
(0,0,0)
(0,0,0)
(0,0,0)
(0,0,0)
(0,0,0)
(0,0,0)
(4.45833934132077e-12,3.68995033754958e-12,-1.92119233489065e-10)
(6.36448372499416e-12,7.18601705672012e-12,-1.90757378611777e-10)
(7.74026185189497e-12,1.25213332254389e-11,-1.88579042878023e-10)
(8.42083973436285e-12,2.23058942172426e-11,-1.8598928455782e-10)
(7.73231325823709e-12,4.16582851213647e-11,-1.81498861873888e-10)
(6.10706084007871e-12,7.97332980100578e-11,-1.73763073386181e-10)
(4.51726910818431e-12,1.52888081023978e-10,-1.60035426743615e-10)
(3.32475195426314e-12,2.71355053727371e-10,-1.38407762843894e-10)
(6.69495748783842e-13,4.61282566351867e-10,-1.03155355751976e-10)
(-9.83852719889936e-13,7.296772590405e-10,-5.60601905473107e-11)
(0,0,0)
(0,0,0)
(0,0,0)
(0,0,0)
(0,0,0)
(0,0,0)
(5.07247963447827e-12,3.00289827444365e-12,-3.08707964767744e-10)
(7.43065180012541e-12,5.36253418394547e-12,-3.07381689376632e-10)
(8.26050475619384e-12,9.2242982217076e-12,-3.05670530799621e-10)
(9.82359366395784e-12,1.68186981994733e-11,-3.03293363408894e-10)
(1.01674394870139e-11,3.34570998390109e-11,-2.98872388701191e-10)
(9.3924384658123e-12,6.70789974136998e-11,-2.90150040806001e-10)
(1.01364313952347e-11,1.31056742523576e-10,-2.72888676858799e-10)
(1.01299547965825e-11,2.36373028122344e-10,-2.39962561651419e-10)
(7.87458711693118e-12,4.14189367845879e-10,-1.85113942682223e-10)
(6.40111493874093e-12,6.73163276151542e-10,-1.04699594631112e-10)
(0,0,0)
(0,0,0)
(0,0,0)
(0,0,0)
(0,0,0)
(0,0,0)
(4.89217563380491e-12,2.17318514338354e-12,-5.03448119013545e-10)
(8.88324702584959e-12,3.88372014910451e-12,-5.02826839608074e-10)
(1.01323819528996e-11,6.24251276373678e-12,-5.01370941924404e-10)
(1.17279314414667e-11,1.16104329175492e-11,-4.98528231824886e-10)
(1.3034363306685e-11,2.44154823270808e-11,-4.93156392899413e-10)
(1.33166814768948e-11,4.99600611073154e-11,-4.82144397549413e-10)
(1.43257786847942e-11,9.82045577166035e-11,-4.59495504924295e-10)
(1.4475241786972e-11,1.82070105546283e-10,-4.14822501187003e-10)
(1.36327490294168e-11,3.33873396623817e-10,-3.35254573741411e-10)
(1.24327956924671e-11,5.68276837638564e-10,-2.01376987712362e-10)
(0,0,0)
(0,0,0)
(0,0,0)
(0,0,0)
(0,0,0)
(0,0,0)
(6.34192346338783e-12,1.11396283339482e-12,-7.77847541115683e-10)
(1.20536606642779e-11,2.16269178244552e-12,-7.77396860287833e-10)
(1.30335839587419e-11,3.19580499319626e-12,-7.75552467171213e-10)
(1.32851517229949e-11,5.98963938510746e-12,-7.72264698941025e-10)
(1.3936704041962e-11,1.32554446584849e-11,-7.6632437618161e-10)
(1.57161162180856e-11,2.70612528946512e-11,-7.53301765943286e-10)
(1.7274286462329e-11,5.353040227406e-11,-7.26223811259159e-10)
(1.7107689505319e-11,1.02951425053904e-10,-6.72275388737403e-10)
(1.67130708247546e-11,2.00144784863563e-10,-5.68570629211893e-10)
(1.59324400385784e-11,3.66884668664492e-10,-3.6772463887486e-10)
(0,0,0)
(0,0,0)
(0,0,0)
(0,0,0)
(0,0,0)
(0,0,0)
(0,0,0)
(0,0,0)
(0,0,0)
(0,0,0)
(0,0,0)
(0,0,0)
(0,0,0)
(0,0,0)
(0,0,0)
(0,0,0)
(0,0,0)
(0,0,0)
(0,0,0)
(0,0,0)
(0,0,0)
(0,0,0)
(0,0,0)
(0,0,0)
(0,0,0)
(0,0,0)
(0,0,0)
(0,0,0)
(0,0,0)
(0,0,0)
(0,0,0)
(0,0,0)
(0,0,0)
(0,0,0)
(0,0,0)
(0,0,0)
(0,0,0)
(0,0,0)
(0,0,0)
(0,0,0)
(0,0,0)
(0,0,0)
(0,0,0)
(0,0,0)
(0,0,0)
(0,0,0)
(0,0,0)
(0,0,0)
(0,0,0)
(0,0,0)
(0,0,0)
(0,0,0)
(0,0,0)
(0,0,0)
(0,0,0)
(0,0,0)
(0,0,0)
(0,0,0)
(0,0,0)
(0,0,0)
(0,0,0)
(0,0,0)
(0,0,0)
(0,0,0)
(0,0,0)
(0,0,0)
(0,0,0)
(0,0,0)
(0,0,0)
(0,0,0)
(0,0,0)
(0,0,0)
(0,0,0)
(0,0,0)
(0,0,0)
(0,0,0)
(0,0,0)
(0,0,0)
(0,0,0)
(0,0,0)
(0,0,0)
(0,0,0)
(0,0,0)
(0,0,0)
(0,0,0)
(0,0,0)
(0,0,0)
(0,0,0)
(0,0,0)
(0,0,0)
(0,0,0)
(0,0,0)
(0,0,0)
(0,0,0)
(0,0,0)
(0,0,0)
(0,0,0)
(0,0,0)
(0,0,0)
(0,0,0)
(0,0,0)
(0,0,0)
(9.14113993869829e-13,1.55627283607226e-11,-1.88023583896732e-11)
(1.01674428575296e-12,3.46537725521642e-11,-1.78963895914231e-11)
(3.45069988196234e-13,5.93795390952119e-11,-1.62275888825129e-11)
(2.77563969625255e-13,9.22528497438625e-11,-1.38810710461087e-11)
(-4.94143150043998e-13,1.40385439951296e-10,-1.00787352936092e-11)
(-2.80224680028995e-12,2.15907198583478e-10,-5.77500090417555e-12)
(-5.97060903906936e-12,3.35654191336158e-10,-1.78569938731508e-12)
(-7.85865662013782e-12,5.4165570404434e-10,-1.60060970179017e-13)
(-8.20103974186394e-12,9.37256463405555e-10,4.72171382720287e-13)
(-8.3370601840834e-12,1.8401716088303e-09,4.73332656392352e-13)
(0,0,0)
(0,0,0)
(0,0,0)
(0,0,0)
(0,0,0)
(0,0,0)
(1.13368827316445e-12,1.48979677630971e-11,-3.94425521937873e-11)
(1.65143490594109e-12,3.32548384444186e-11,-3.82353002743309e-11)
(1.75884203376355e-12,5.74301720086838e-11,-3.52952553067808e-11)
(1.07652138251688e-12,8.95276074954193e-11,-3.0418655204316e-11)
(-6.48900611832661e-13,1.37125891795313e-10,-2.31373709514969e-11)
(-4.581478142854e-12,2.1263074455972e-10,-1.42649721687111e-11)
(-1.00361419605089e-11,3.34242846461065e-10,-6.18191448874581e-12)
(-1.44343237374733e-11,5.4132046032793e-10,-2.51227526476956e-12)
(-1.57405971781785e-11,9.37385413576894e-10,-1.26226825541959e-12)
(-1.544748537206e-11,1.84088429491892e-09,-8.30971168393612e-13)
(0,0,0)
(0,0,0)
(0,0,0)
(0,0,0)
(0,0,0)
(0,0,0)
(1.6964289163628e-12,1.37351395433072e-11,-6.46569850278353e-11)
(3.13663088178784e-12,3.04797884032488e-11,-6.27741828975859e-11)
(3.85141264668813e-12,5.29440802761918e-11,-5.83457058841295e-11)
(3.14603193445649e-12,8.32815434836028e-11,-5.11351504603005e-11)
(8.60887189403425e-13,1.294949635883e-10,-4.05711209483736e-11)
(-3.84434060576124e-12,2.05278971565357e-10,-2.72774355371391e-11)
(-1.00220087229035e-11,3.30886816232026e-10,-1.47789706407219e-11)
(-1.6105886115504e-11,5.41186587204579e-10,-8.93827796449825e-12)
(-1.93313736801373e-11,9.37892858826924e-10,-6.228742418594e-12)
(-1.9362429467491e-11,1.84126037021551e-09,-3.54927069387347e-12)
(0,0,0)
(0,0,0)
(0,0,0)
(0,0,0)
(0,0,0)
(0,0,0)
(2.87069503318474e-12,1.19490925470543e-11,-9.86110165958855e-11)
(4.93587604015949e-12,2.63205176783901e-11,-9.63708547389247e-11)
(6.53637201370272e-12,4.58412526284069e-11,-9.11570767822341e-11)
(5.75495854923298e-12,7.29804353333244e-11,-8.2542714560535e-11)
(3.28104182004069e-12,1.16417141516893e-10,-7.0162023263488e-11)
(-5.42353664693764e-13,1.92134282441258e-10,-5.39609510686252e-11)
(-7.55416975728947e-12,3.23958594431015e-10,-3.69295932489681e-11)
(-1.57960448804701e-11,5.40542778781338e-10,-2.74587680825539e-11)
(-1.98035036052421e-11,9.37199509338742e-10,-2.0325425053528e-11)
(-2.02060902265697e-11,1.83956298626511e-09,-1.107924606592e-11)
(0,0,0)
(0,0,0)
(0,0,0)
(0,0,0)
(0,0,0)
(0,0,0)
(3.06146421686563e-12,1.00158808376039e-11,-1.46794121243149e-10)
(5.38750586171603e-12,2.149842678147e-11,-1.44745109702339e-10)
(8.29129940582845e-12,3.7240979132061e-11,-1.3987331177634e-10)
(8.40098195111151e-12,6.02267265437608e-11,-1.31483925219637e-10)
(7.55609830417894e-12,9.88986739968816e-11,-1.19858237116531e-10)
(4.44065822523776e-12,1.71116826430046e-10,-1.05975404271821e-10)
(-5.35051816371308e-12,3.07817142212165e-10,-9.36192235538847e-11)
(-1.26466735248003e-11,5.35239063659469e-10,-7.27172731825938e-11)
(-1.61965974435399e-11,9.30387496609217e-10,-5.1651096701111e-11)
(-1.59280043388799e-11,1.83058902167583e-09,-2.73378474995397e-11)
(0,0,0)
(0,0,0)
(0,0,0)
(0,0,0)
(0,0,0)
(0,0,0)
(3.15692248002757e-12,7.90650544168101e-12,-2.19958049063321e-10)
(5.13049338838289e-12,1.63964312945414e-11,-2.17701307854372e-10)
(8.43626253424303e-12,2.83004163806339e-11,-2.13513389485025e-10)
(9.3616300298154e-12,4.71738209802369e-11,-2.06889966497993e-10)
(8.96932893605198e-12,8.09828178910353e-11,-1.9726969654101e-10)
(6.58982169144243e-12,1.50191351575782e-10,-1.8481488864429e-10)
(-5.54994082396858e-13,2.93257371968183e-10,-1.69484833238801e-10)
(-5.51871277454132e-12,5.19702293049319e-10,-1.41264702814218e-10)
(-8.51715385279728e-12,9.09512562156054e-10,-1.02090935687846e-10)
(-8.67398009498991e-12,1.80574843260443e-09,-5.41346099787297e-11)
(0,0,0)
(0,0,0)
(0,0,0)
(0,0,0)
(0,0,0)
(0,0,0)
(3.78353652713781e-12,6.10309475067885e-12,-3.36847456114288e-10)
(6.00963086401554e-12,1.21001979208558e-11,-3.34746849539517e-10)
(8.44753853542667e-12,2.04975324737881e-11,-3.31452396792501e-10)
(9.41761306818962e-12,3.49089003662734e-11,-3.27052066239659e-10)
(8.19771005290658e-12,6.32828680566287e-11,-3.20619131393206e-10)
(5.03371479389832e-12,1.26004909497764e-10,-3.09894918002946e-10)
(4.72094370886206e-12,2.6816471210808e-10,-2.83999376327393e-10)
(3.05437046729154e-12,4.85124568571069e-10,-2.49248943048806e-10)
(6.67529049896657e-13,8.64369873772653e-10,-1.84180060560595e-10)
(-5.30060377896848e-13,1.75319475007357e-09,-9.93407217713407e-11)
(0,0,0)
(0,0,0)
(0,0,0)
(0,0,0)
(0,0,0)
(0,0,0)
(4.57591737442606e-12,4.4912300258396e-12,-5.38013025735856e-10)
(7.19830725795636e-12,8.65000431455328e-12,-5.36441693190421e-10)
(8.86512282344072e-12,1.48967354735487e-11,-5.34111759531365e-10)
(1.06108842381804e-11,2.66793537019788e-11,-5.30713453830269e-10)
(1.04867091037257e-11,5.29248652139933e-11,-5.24878261173058e-10)
(9.25001082502194e-12,1.11523324317603e-10,-5.12844776004392e-10)
(1.00625009948496e-11,2.32600851806252e-10,-4.8490749465166e-10)
(9.58425840329264e-12,4.21057833708148e-10,-4.26070207458847e-10)
(7.77621028809856e-12,7.80239542378994e-10,-3.28068392882228e-10)
(6.58795882005925e-12,1.65388049092496e-09,-1.8661895661783e-10)
(0,0,0)
(0,0,0)
(0,0,0)
(0,0,0)
(0,0,0)
(0,0,0)
(5.330118538323e-12,3.09282783362783e-12,-9.27554515995993e-10)
(9.1483777088391e-12,5.90449184771548e-12,-9.26560059325223e-10)
(1.03363796239238e-11,1.01766551924284e-11,-9.24308547267228e-10)
(1.19768860484398e-11,1.90578119015357e-11,-9.20005607630508e-10)
(1.31824056252953e-11,4.01974685407672e-11,-9.12181940731316e-10)
(1.35665970644203e-11,8.53439525045067e-11,-8.94963095337381e-10)
(1.43269303900489e-11,1.72639353383679e-10,-8.57097838483862e-10)
(1.4025994833749e-11,3.22643378207304e-10,-7.79285717564791e-10)
(1.34837747606134e-11,6.38484843632041e-10,-6.40569257862486e-10)
(1.24479769542007e-11,1.46714722548731e-09,-4.00625072140161e-10)
(0,0,0)
(0,0,0)
(0,0,0)
(0,0,0)
(0,0,0)
(0,0,0)
(7.00520546893218e-12,1.49113273608598e-12,-1.82893673116067e-09)
(1.23719593301034e-11,3.0738760707714e-12,-1.82815238001065e-09)
(1.29416207217487e-11,5.25287355977378e-12,-1.82511140659474e-09)
(1.33344683486879e-11,1.00405894133931e-11,-1.81943546569652e-09)
(1.4169538462116e-11,2.20977937714083e-11,-1.80994433813811e-09)
(1.56994144285977e-11,4.6605220513042e-11,-1.78872326956495e-09)
(1.68562662146212e-11,9.35454961642868e-11,-1.74303584655944e-09)
(1.63543550337558e-11,1.83336215411647e-10,-1.65026768805672e-09)
(1.6011865351281e-11,3.9853498020612e-10,-1.46716477981143e-09)
(1.50924698282993e-11,1.06689092594667e-09,-1.06815563523765e-09)
(0,0,0)
(0,0,0)
(0,0,0)
(0,0,0)
(0,0,0)
(0,0,0)
(0,0,0)
(0,0,0)
(0,0,0)
(0,0,0)
(0,0,0)
(0,0,0)
(0,0,0)
(0,0,0)
(0,0,0)
(0,0,0)
(0,0,0)
(0,0,0)
(0,0,0)
(0,0,0)
(0,0,0)
(0,0,0)
(0,0,0)
(0,0,0)
(0,0,0)
(0,0,0)
(0,0,0)
(0,0,0)
(0,0,0)
(0,0,0)
(0,0,0)
(0,0,0)
(0,0,0)
(0,0,0)
(0,0,0)
(0,0,0)
(0,0,0)
(0,0,0)
(0,0,0)
(0,0,0)
(0,0,0)
(0,0,0)
(0,0,0)
(0,0,0)
(0,0,0)
(0,0,0)
(0,0,0)
(0,0,0)
(0,0,0)
(0,0,0)
(0,0,0)
(0,0,0)
(0,0,0)
(0,0,0)
(0,0,0)
(0,0,0)
(0,0,0)
(0,0,0)
(0,0,0)
(0,0,0)
(0,0,0)
(0,0,0)
(0,0,0)
(0,0,0)
(0,0,0)
(0,0,0)
(0,0,0)
(0,0,0)
(0,0,0)
(0,0,0)
(0,0,0)
(0,0,0)
(0,0,0)
(0,0,0)
(0,0,0)
(0,0,0)
(0,0,0)
(0,0,0)
(0,0,0)
(0,0,0)
(0,0,0)
(0,0,0)
(0,0,0)
(0,0,0)
(0,0,0)
(0,0,0)
(0,0,0)
(0,0,0)
(0,0,0)
(0,0,0)
(0,0,0)
(0,0,0)
(0,0,0)
(0,0,0)
(0,0,0)
(0,0,0)
(0,0,0)
(0,0,0)
(0,0,0)
(0,0,0)
(0,0,0)
(0,0,0)
(6.72905793086659e-13,2.09512451306251e-11,-2.41901660745054e-11)
(7.46877683938697e-13,4.68300600950337e-11,-2.31820920995688e-11)
(-5.20807607648355e-14,7.91795422652544e-11,-2.0782503034707e-11)
(-7.99529534347634e-13,1.20647237264593e-10,-1.71752905513468e-11)
(-1.53832938386476e-12,1.79387641502053e-10,-1.15282537551805e-11)
(-3.5150942932328e-12,2.66667354605181e-10,-4.48548204667299e-12)
(-6.18490258144604e-12,3.94420975231263e-10,1.687333737834e-12)
(-8.15564525685927e-12,5.83239545940685e-10,3.40790084810388e-12)
(-8.33115118645211e-12,8.5502782684696e-10,2.62795249588055e-12)
(-8.57641361644311e-12,1.18438858666778e-09,1.36027001507114e-12)
(0,0,0)
(0,0,0)
(0,0,0)
(0,0,0)
(0,0,0)
(0,0,0)
(1.08926457328897e-12,2.00211295789059e-11,-5.12255799233579e-11)
(1.48643997895775e-12,4.47258475233535e-11,-4.95816214917673e-11)
(1.36833366214647e-12,7.572392037185e-11,-4.5224182788333e-11)
(4.1301142252824e-14,1.15537684204473e-10,-3.78012796984066e-11)
(-1.89037118690719e-12,1.73478494313846e-10,-2.63851974893894e-11)
(-5.31276282865348e-12,2.61784920659863e-10,-1.10056299988447e-11)
(-1.03497509562956e-11,3.93908385872391e-10,3.56782298066276e-12)
(-1.55504576221152e-11,5.85369606060264e-10,6.71753963552193e-12)
(-1.66793395155651e-11,8.57322962613759e-10,3.9905834702547e-12)
(-1.66545318366393e-11,1.18640041733075e-09,1.35970070024206e-12)
(0,0,0)
(0,0,0)
(0,0,0)
(0,0,0)
(0,0,0)
(0,0,0)
(1.59967378054291e-12,1.8409644409692e-11,-8.36007715397e-11)
(2.8674245943361e-12,4.05840800284184e-11,-8.11937079213512e-11)
(3.7436848712342e-12,6.85650513217304e-11,-7.52037229793177e-11)
(2.88311057230904e-12,1.05103468442666e-10,-6.4487466266091e-11)
(6.45023849607148e-13,1.59944640313281e-10,-4.72319310400529e-11)
(-3.19811637800155e-12,2.49489690348284e-10,-2.21347887587189e-11)
(-8.93447959725092e-12,3.92742197318222e-10,5.14390313295243e-12)
(-1.8171613239454e-11,5.9098880935285e-10,7.69279800410911e-12)
(-2.13174959155101e-11,8.62603284279236e-10,2.29109305915279e-12)
(-2.12143162113846e-11,1.18996344007261e-09,-2.61264521077578e-13)
(0,0,0)
(0,0,0)
(0,0,0)
(0,0,0)
(0,0,0)
(0,0,0)
(2.56374488499238e-12,1.60425339653172e-11,-1.2714790129825e-10)
(4.54418898168004e-12,3.47900588084896e-11,-1.24226615673933e-10)
(6.52228328743206e-12,5.82302072433775e-11,-1.17108588787675e-10)
(6.1279760410088e-12,8.89489106245191e-11,-1.04226242628796e-10)
(4.59843714546361e-12,1.36797206541648e-10,-8.38198081365574e-11)
(3.44374452671384e-12,2.24341749998443e-10,-5.17715596544494e-11)
(-8.83542704511076e-13,3.88895953426812e-10,-8.27245702142778e-12)
(-1.76256727874712e-11,6.01683306740147e-10,-8.23888660021854e-12)
(-2.22376698630659e-11,8.69837702185447e-10,-1.22830794704806e-11)
(-2.23113717038954e-11,1.19337704377252e-09,-8.7228435155038e-12)
(0,0,0)
(0,0,0)
(0,0,0)
(0,0,0)
(0,0,0)
(0,0,0)
(3.12182807146433e-12,1.33849284557835e-11,-1.8723314917979e-10)
(5.61770342387221e-12,2.79844411683128e-11,-1.84138910146117e-10)
(8.84247559919147e-12,4.56225180649319e-11,-1.77236163751552e-10)
(9.82819941155589e-12,6.86830620161627e-11,-1.64971195735527e-10)
(1.15891215667118e-11,1.04304629326867e-10,-1.47414402067407e-10)
(1.30099523605368e-11,1.7522774463508e-10,-1.26137106909052e-10)
(-1.16926982918188e-11,3.47688554954909e-10,-1.282920338203e-10)
(-1.81760793963289e-11,6.13480838712512e-10,-8.35420099425523e-11)
(-1.96349121901977e-11,8.72979149177184e-10,-5.78777469853775e-11)
(-1.84252627673933e-11,1.18893048376693e-09,-3.09317172267724e-11)
(0,0,0)
(0,0,0)
(0,0,0)
(0,0,0)
(0,0,0)
(0,0,0)
(2.70359196229475e-12,1.02153648019562e-11,-2.71628891551386e-10)
(5.23880839248118e-12,2.08489866385704e-11,-2.69059066796452e-10)
(9.61572345394069e-12,3.27822370187161e-11,-2.63653404970307e-10)
(1.20062806881076e-11,4.83713733234064e-11,-2.547974679689e-10)
(1.4214470872688e-11,7.37076611660506e-11,-2.4261729448176e-10)
(1.54462083641815e-11,1.38062608796311e-10,-2.27424941819381e-10)
(-3.68246464664563e-12,3.47443046499608e-10,-2.24249568170099e-10)
(-1.01147554231714e-11,6.04665753759785e-10,-1.78880476495067e-10)
(-1.1330791177832e-11,8.53318187056057e-10,-1.25869523129549e-10)
(-1.0254907544019e-11,1.16198066524337e-09,-6.55046118355687e-11)
(0,0,0)
(0,0,0)
(0,0,0)
(0,0,0)
(0,0,0)
(0,0,0)
(3.29479467782727e-12,7.36542699274585e-12,-3.95437493899463e-10)
(6.16537172227727e-12,1.47772855129033e-11,-3.93738058556524e-10)
(9.6480049833506e-12,2.22304569992644e-11,-3.90231979757542e-10)
(1.12142248858966e-11,3.08764344678951e-11,-3.86197557533741e-10)
(7.83149950540417e-12,4.41761923177958e-11,-3.84596384126855e-10)
(-6.38024170148172e-12,8.45194853957767e-11,-3.87024200694254e-10)
(5.5343707322457e-12,3.1991196656437e-10,-3.33910995476184e-10)
(2.05222284124949e-12,5.65397405674546e-10,-3.22722708022687e-10)
(-4.14783451144154e-14,7.98851561501125e-10,-2.25311284512575e-10)
(-5.56523000222633e-13,1.09936641375139e-09,-1.16148735621801e-10)
(0,0,0)
(0,0,0)
(0,0,0)
(0,0,0)
(0,0,0)
(0,0,0)
(4.40298702155679e-12,5.06756324230663e-12,-5.77790140428655e-10)
(7.61388606594298e-12,1.00921972952381e-11,-5.76586655799554e-10)
(1.01868974024898e-11,1.55675845893854e-11,-5.74358473328885e-10)
(1.23972333825191e-11,2.40189680737362e-11,-5.72349294014484e-10)
(1.11806206075819e-11,4.44680831826924e-11,-5.72279070269606e-10)
(7.49210128592929e-12,1.06724632645119e-10,-5.73549540100016e-10)
(1.11867122245786e-11,2.9018101559466e-10,-5.57607468678761e-10)
(9.99689932628133e-12,4.6841698352148e-10,-4.75971667516686e-10)
(8.08147277112383e-12,6.91213151400003e-10,-3.47716479016825e-10)
(6.70226764051362e-12,9.8412536270253e-10,-1.87720223710437e-10)
(0,0,0)
(0,0,0)
(0,0,0)
(0,0,0)
(0,0,0)
(0,0,0)
(5.93735696509503e-12,3.35563089335259e-12,-8.41071049496264e-10)
(9.72748142760405e-12,6.51897998456724e-12,-8.39988596237008e-10)
(1.09572216206461e-11,1.06449046659407e-11,-8.37934271304911e-10)
(1.31704416371675e-11,1.874488701384e-11,-8.3508544925885e-10)
(1.40632350011663e-11,3.96543992050245e-11,-8.30582884313525e-10)
(1.44400722019008e-11,9.19976611240488e-11,-8.18562112781306e-10)
(1.56086666907662e-11,2.02921529931349e-10,-7.82272281042876e-10)
(1.46166979258455e-11,3.38298198112449e-10,-6.8772888139169e-10)
(1.34894524649309e-11,5.30628479196739e-10,-5.3289851112148e-10)
(1.2079204354338e-11,7.96250524684261e-10,-3.06325664736651e-10)
(0,0,0)
(0,0,0)
(0,0,0)
(0,0,0)
(0,0,0)
(0,0,0)
(7.7119870541908e-12,1.64496984845815e-12,-1.16666033274899e-09)
(1.24048619847711e-11,3.20637131009351e-12,-1.16560098009552e-09)
(1.25185533835104e-11,5.51487191378367e-12,-1.16302265284888e-09)
(1.38839302035838e-11,1.0455692903682e-11,-1.15844283596654e-09)
(1.50462636605527e-11,2.33014829428376e-11,-1.15022450818847e-09)
(1.6617211935574e-11,5.17677441897797e-11,-1.12968247442018e-09)
(1.76336038764276e-11,1.05397134975594e-10,-1.0804895334614e-09)
(1.65876621990243e-11,1.82199103862338e-10,-9.76395711397126e-10)