/*--------------------------------*- C++ -*----------------------------------*\
| =========                 |                                                 |
| \\      /  F ield         | foam-extend: Open Source CFD                    |
|  \\    /   O peration     | Version:     4.0                                |
|   \\  /    A nd           | Web:         http://www.foam-extend.org         |
|    \\/     M anipulation  |                                                 |
\*---------------------------------------------------------------------------*/
FoamFile
{
    version 2.0;
    format ascii;
    class volVectorField;
    location "Data/3464";
    object      E;
}
// * * * * * * * * * * * * * * * * * * * * * * * * * * * * * * * * * * * * * //

dimensions      [0 1 -1 0 0 0 0];

internalField   nonuniform List<vector>
4096
(
(0,0,0)
(0,0,0)
(0,0,0)
(0,0,0)
(0,0,0)
(0,0,0)
(0,0,0)
(0,0,0)
(0,0,0)
(0,0,0)
(0,0,0)
(0,0,0)
(0,0,0)
(0,0,0)
(0,0,0)
(0,0,0)
(0,0,0)
(0,0,0)
(0,0,0)
(0,0,0)
(0,0,0)
(0,0,0)
(0,0,0)
(0,0,0)
(0,0,0)
(0,0,0)
(0,0,0)
(0,0,0)
(0,0,0)
(0,0,0)
(0,0,0)
(0,0,0)
(0,0,0)
(0,0,0)
(0,0,0)
(0,0,0)
(0,0,0)
(0,0,0)
(0,0,0)
(0,0,0)
(0,0,0)
(0,0,0)
(0,0,0)
(0,0,0)
(0,0,0)
(0,0,0)
(0,0,0)
(0,0,0)
(0,0,0)
(0,0,0)
(0,0,0)
(0,0,0)
(0,0,0)
(0,0,0)
(0,0,0)
(0,0,0)
(0,0,0)
(0,0,0)
(0,0,0)
(0,0,0)
(0,0,0)
(0,0,0)
(0,0,0)
(0,0,0)
(0,0,0)
(0,0,0)
(0,0,0)
(0,0,0)
(0,0,0)
(0,0,0)
(0,0,0)
(0,0,0)
(0,0,0)
(0,0,0)
(0,0,0)
(0,0,0)
(0,0,0)
(0,0,0)
(0,0,0)
(0,0,0)
(0,0,0)
(0,0,0)
(0,0,0)
(0,0,0)
(0,0,0)
(0,0,0)
(0,0,0)
(0,0,0)
(0,0,0)
(0,0,0)
(0,0,0)
(0,0,0)
(0,0,0)
(0,0,0)
(0,0,0)
(0,0,0)
(0,0,0)
(0,0,0)
(0,0,0)
(0,0,0)
(0,0,0)
(0,0,0)
(0,0,0)
(0,0,0)
(0,0,0)
(0,0,0)
(0,0,0)
(0,0,0)
(0,0,0)
(0,0,0)
(0,0,0)
(0,0,0)
(0,0,0)
(0,0,0)
(0,0,0)
(0,0,0)
(0,0,0)
(0,0,0)
(0,0,0)
(0,0,0)
(0,0,0)
(0,0,0)
(0,0,0)
(0,0,0)
(0,0,0)
(0,0,0)
(0,0,0)
(0,0,0)
(0,0,0)
(0,0,0)
(0,0,0)
(0,0,0)
(0,0,0)
(0,0,0)
(0,0,0)
(0,0,0)
(0,0,0)
(0,0,0)
(0,0,0)
(0,0,0)
(0,0,0)
(0,0,0)
(0,0,0)
(0,0,0)
(0,0,0)
(0,0,0)
(0,0,0)
(0,0,0)
(0,0,0)
(0,0,0)
(0,0,0)
(0,0,0)
(0,0,0)
(0,0,0)
(0,0,0)
(0,0,0)
(0,0,0)
(0,0,0)
(0,0,0)
(0,0,0)
(0,0,0)
(0,0,0)
(0,0,0)
(0,0,0)
(0,0,0)
(0,0,0)
(0,0,0)
(0,0,0)
(0,0,0)
(0,0,0)
(0,0,0)
(0,0,0)
(0,0,0)
(0,0,0)
(0,0,0)
(0,0,0)
(0,0,0)
(0,0,0)
(0,0,0)
(0,0,0)
(0,0,0)
(0,0,0)
(0,0,0)
(0,0,0)
(0,0,0)
(0,0,0)
(0,0,0)
(0,0,0)
(0,0,0)
(0,0,0)
(0,0,0)
(0,0,0)
(0,0,0)
(0,0,0)
(0,0,0)
(0,0,0)
(0,0,0)
(0,0,0)
(0,0,0)
(0,0,0)
(0,0,0)
(0,0,0)
(0,0,0)
(0,0,0)
(0,0,0)
(0,0,0)
(0,0,0)
(0,0,0)
(0,0,0)
(0,0,0)
(0,0,0)
(0,0,0)
(0,0,0)
(0,0,0)
(0,0,0)
(0,0,0)
(0,0,0)
(0,0,0)
(0,0,0)
(0,0,0)
(0,0,0)
(0,0,0)
(0,0,0)
(0,0,0)
(0,0,0)
(0,0,0)
(0,0,0)
(0,0,0)
(0,0,0)
(0,0,0)
(0,0,0)
(0,0,0)
(0,0,0)
(0,0,0)
(0,0,0)
(0,0,0)
(0,0,0)
(0,0,0)
(0,0,0)
(0,0,0)
(0,0,0)
(0,0,0)
(0,0,0)
(0,0,0)
(0,0,0)
(0,0,0)
(0,0,0)
(0,0,0)
(0,0,0)
(0,0,0)
(0,0,0)
(0,0,0)
(0,0,0)
(0,0,0)
(0,0,0)
(0,0,0)
(0,0,0)
(0,0,0)
(0,0,0)
(0,0,0)
(0,0,0)
(0,0,0)
(0,0,0)
(0,0,0)
(0,0,0)
(0,0,0)
(0,0,0)
(0,0,0)
(0,0,0)
(0,0,0)
(0,0,0)
(0,0,0)
(0,0,0)
(0,0,0)
(0,0,0)
(0,0,0)
(0,0,0)
(0,0,0)
(0,0,0)
(0,0,0)
(0,0,0)
(0,0,0)
(0,0,0)
(0,0,0)
(0,0,0)
(0,0,0)
(0,0,0)
(0,0,0)
(0,0,0)
(0,0,0)
(0,0,0)
(0,0,0)
(0,0,0)
(0,0,0)
(0,0,0)
(0,0,0)
(0,0,0)
(0,0,0)
(0,0,0)
(0,0,0)
(0,0,0)
(0,0,0)
(0,0,0)
(0,0,0)
(0,0,0)
(0,0,0)
(0,0,0)
(0,0,0)
(0,0,0)
(0,0,0)
(0,0,0)
(0,0,0)
(0,0,0)
(0,0,0)
(0,0,0)
(0,0,0)
(0,0,0)
(0,0,0)
(0,0,0)
(0,0,0)
(0,0,0)
(0,0,0)
(0,0,0)
(0,0,0)
(0,0,0)
(0,0,0)
(0,0,0)
(0,0,0)
(0,0,0)
(0,0,0)
(0,0,0)
(0,0,0)
(0,0,0)
(0,0,0)
(0,0,0)
(0,0,0)
(0,0,0)
(0,0,0)
(0,0,0)
(0,0,0)
(0,0,0)
(0,0,0)
(0,0,0)
(0,0,0)
(0,0,0)
(0,0,0)
(0,0,0)
(0,0,0)
(0,0,0)
(0,0,0)
(0,0,0)
(0,0,0)
(0,0,0)
(0,0,0)
(0,0,0)
(0,0,0)
(0,0,0)
(0,0,0)
(0,0,0)
(0,0,0)
(0,0,0)
(0,0,0)
(0,0,0)
(0,0,0)
(0,0,0)
(0,0,0)
(0,0,0)
(0,0,0)
(0,0,0)
(0,0,0)
(0,0,0)
(0,0,0)
(0,0,0)
(0,0,0)
(0,0,0)
(0,0,0)
(0,0,0)
(0,0,0)
(0,0,0)
(0,0,0)
(0,0,0)
(0,0,0)
(0,0,0)
(0,0,0)
(0,0,0)
(0,0,0)
(0,0,0)
(0,0,0)
(0,0,0)
(0,0,0)
(0,0,0)
(0,0,0)
(0,0,0)
(0,0,0)
(0,0,0)
(0,0,0)
(0,0,0)
(0,0,0)
(0,0,0)
(0,0,0)
(0,0,0)
(0,0,0)
(0,0,0)
(0,0,0)
(0,0,0)
(0,0,0)
(0,0,0)
(0,0,0)
(0,0,0)
(0,0,0)
(0,0,0)
(0,0,0)
(0,0,0)
(0,0,0)
(0,0,0)
(0,0,0)
(0,0,0)
(0,0,0)
(0,0,0)
(0,0,0)
(0,0,0)
(0,0,0)
(0,0,0)
(0,0,0)
(0,0,0)
(0,0,0)
(0,0,0)
(0,0,0)
(0,0,0)
(0,0,0)
(0,0,0)
(0,0,0)
(0,0,0)
(0,0,0)
(0,0,0)
(0,0,0)
(0,0,0)
(0,0,0)
(0,0,0)
(0,0,0)
(0,0,0)
(0,0,0)
(0,0,0)
(0,0,0)
(0,0,0)
(0,0,0)
(0,0,0)
(0,0,0)
(0,0,0)
(0,0,0)
(0,0,0)
(0,0,0)
(0,0,0)
(0,0,0)
(0,0,0)
(0,0,0)
(0,0,0)
(0,0,0)
(0,0,0)
(0,0,0)
(0,0,0)
(0,0,0)
(0,0,0)
(0,0,0)
(0,0,0)
(0,0,0)
(0,0,0)
(0,0,0)
(0,0,0)
(0,0,0)
(0,0,0)
(0,0,0)
(0,0,0)
(0,0,0)
(0,0,0)
(0,0,0)
(0,0,0)
(0,0,0)
(0,0,0)
(0,0,0)
(0,0,0)
(0,0,0)
(0,0,0)
(0,0,0)
(0,0,0)
(0,0,0)
(0,0,0)
(0,0,0)
(0,0,0)
(0,0,0)
(0,0,0)
(0,0,0)
(0,0,0)
(0,0,0)
(0,0,0)
(0,0,0)
(0,0,0)
(0,0,0)
(0,0,0)
(0,0,0)
(0,0,0)
(0,0,0)
(0,0,0)
(0,0,0)
(0,0,0)
(0,0,0)
(0,0,0)
(0,0,0)
(0,0,0)
(0,0,0)
(0,0,0)
(0,0,0)
(0,0,0)
(0,0,0)
(0,0,0)
(0,0,0)
(0,0,0)
(0,0,0)
(0,0,0)
(0,0,0)
(0,0,0)
(0,0,0)
(0,0,0)
(0,0,0)
(0,0,0)
(0,0,0)
(0,0,0)
(0,0,0)
(0,0,0)
(0,0,0)
(0,0,0)
(0,0,0)
(0,0,0)
(0,0,0)
(0,0,0)
(0,0,0)
(0,0,0)
(0,0,0)
(0,0,0)
(0,0,0)
(0,0,0)
(0,0,0)
(0,0,0)
(0,0,0)
(0,0,0)
(0,0,0)
(0,0,0)
(0,0,0)
(0,0,0)
(0,0,0)
(0,0,0)
(0,0,0)
(0,0,0)
(0,0,0)
(0,0,0)
(0,0,0)
(0,0,0)
(0,0,0)
(0,0,0)
(0,0,0)
(0,0,0)
(0,0,0)
(0,0,0)
(0,0,0)
(0,0,0)
(0,0,0)
(0,0,0)
(0,0,0)
(0,0,0)
(0,0,0)
(0,0,0)
(0,0,0)
(0,0,0)
(0,0,0)
(0,0,0)
(0,0,0)
(0,0,0)
(0,0,0)
(0,0,0)
(0,0,0)
(0,0,0)
(0,0,0)
(0,0,0)
(0,0,0)
(0,0,0)
(0,0,0)
(0,0,0)
(0,0,0)
(0,0,0)
(0,0,0)
(0,0,0)
(0,0,0)
(0,0,0)
(0,0,0)
(0,0,0)
(0,0,0)
(0,0,0)
(0,0,0)
(0,0,0)
(0,0,0)
(0,0,0)
(0,0,0)
(0,0,0)
(0,0,0)
(0,0,0)
(0,0,0)
(0,0,0)
(0,0,0)
(0,0,0)
(0,0,0)
(0,0,0)
(0,0,0)
(0,0,0)
(0,0,0)
(0,0,0)
(0,0,0)
(0,0,0)
(0,0,0)
(0,0,0)
(0,0,0)
(0,0,0)
(0,0,0)
(0,0,0)
(0,0,0)
(0,0,0)
(0,0,0)
(0,0,0)
(0,0,0)
(0,0,0)
(0,0,0)
(0,0,0)
(0,0,0)
(0,0,0)
(0,0,0)
(0,0,0)
(0,0,0)
(0,0,0)
(0,0,0)
(0,0,0)
(0,0,0)
(0,0,0)
(0,0,0)
(0,0,0)
(0,0,0)
(0,0,0)
(0,0,0)
(0,0,0)
(0,0,0)
(0,0,0)
(0,0,0)
(0,0,0)
(0,0,0)
(0,0,0)
(0,0,0)
(0,0,0)
(0,0,0)
(0,0,0)
(0,0,0)
(0,0,0)
(0,0,0)
(0,0,0)
(0,0,0)
(0,0,0)
(0,0,0)
(0,0,0)
(0,0,0)
(0,0,0)
(0,0,0)
(0,0,0)
(0,0,0)
(0,0,0)
(0,0,0)
(0,0,0)
(0,0,0)
(0,0,0)
(0,0,0)
(0,0,0)
(0,0,0)
(0,0,0)
(0,0,0)
(0,0,0)
(0,0,0)
(0,0,0)
(0,0,0)
(0,0,0)
(0,0,0)
(0,0,0)
(0,0,0)
(0,0,0)
(0,0,0)
(0,0,0)
(0,0,0)
(0,0,0)
(0,0,0)
(0,0,0)
(0,0,0)
(0,0,0)
(0,0,0)
(0,0,0)
(0,0,0)
(0,0,0)
(0,0,0)
(0,0,0)
(0,0,0)
(0,0,0)
(0,0,0)
(0,0,0)
(0,0,0)
(0,0,0)
(0,0,0)
(0,0,0)
(0,0,0)
(0,0,0)
(0,0,0)
(0,0,0)
(0,0,0)
(0,0,0)
(0,0,0)
(0,0,0)
(0,0,0)
(0,0,0)
(0,0,0)
(0,0,0)
(0,0,0)
(0,0,0)
(0,0,0)
(0,0,0)
(0,0,0)
(0,0,0)
(0,0,0)
(0,0,0)
(0,0,0)
(0,0,0)
(0,0,0)
(0,0,0)
(0,0,0)
(0,0,0)
(0,0,0)
(0,0,0)
(0,0,0)
(0,0,0)
(0,0,0)
(0,0,0)
(0,0,0)
(0,0,0)
(0,0,0)
(0,0,0)
(0,0,0)
(0,0,0)
(0,0,0)
(0,0,0)
(0,0,0)
(0,0,0)
(0,0,0)
(0,0,0)
(0,0,0)
(0,0,0)
(0,0,0)
(0,0,0)
(0,0,0)
(0,0,0)
(0,0,0)
(0,0,0)
(0,0,0)
(0,0,0)
(0,0,0)
(0,0,0)
(0,0,0)
(0,0,0)
(0,0,0)
(0,0,0)
(0,0,0)
(0,0,0)
(0,0,0)
(0,0,0)
(0,0,0)
(0,0,0)
(0,0,0)
(0,0,0)
(0,0,0)
(0,0,0)
(0,0,0)
(0,0,0)
(0,0,0)
(0,0,0)
(0,0,0)
(0,0,0)
(0,0,0)
(0,0,0)
(0,0,0)
(0,0,0)
(0,0,0)
(0,0,0)
(0,0,0)
(0,0,0)
(0,0,0)
(0,0,0)
(0,0,0)
(0,0,0)
(0,0,0)
(0,0,0)
(0,0,0)
(0,0,0)
(0,0,0)
(0,0,0)
(0,0,0)
(0,0,0)
(0,0,0)
(0,0,0)
(0,0,0)
(0,0,0)
(0,0,0)
(0,0,0)
(0,0,0)
(0,0,0)
(0,0,0)
(0,0,0)
(0,0,0)
(0,0,0)
(-167017.964225476,88753.3837746037,78264.5804508718)
(-176627.124483356,85085.2238152998,169806.481118927)
(-198905.420297069,77454.2137421539,291257.687673838)
(-241051.226399962,65503.727994771,466805.186079039)
(-317053.764089945,49380.286853,734478.663315984)
(-453464.455116898,30782.440983533,1157160.67744936)
(-700476.911006138,13888.9341549773,1843748.65430053)
(-1146860.45092203,3535.78883932154,2987073.31638326)
(-1891636.64421116,101.799204038387,4878608.16139034)
(-2635651.13000605,-208.5795701894,7514467.87096666)
(0,0,0)
(0,0,0)
(0,0,0)
(0,0,0)
(0,0,0)
(0,0,0)
(-176624.058730978,190760.3872178,74617.0552877801)
(-186350.718800579,183864.188676744,162188.809226916)
(-208987.88372605,169340.637171513,279290.269523605)
(-252109.22218918,146251.541852222,450651.677855333)
(-330216.086035797,114370.580997811,715877.469746317)
(-469906.199464187,76360.1424498781,1140205.96774415)
(-719636.894120835,40409.9401651099,1833321.85585485)
(-1164317.96552209,17628.8368535907,2983546.77336263)
(-1903278.3531733,8678.13644565858,4878248.78929436)
(-2641097.77008673,4435.86420654383,7514702.11560424)
(0,0,0)
(0,0,0)
(0,0,0)
(0,0,0)
(0,0,0)
(0,0,0)
(-198626.655770328,321652.101736176,67734.9412519523)
(-208525.163077135,312410.101709467,147714.191296369)
(-231892.06812774,292760.936547359,256185.960048268)
(-277165.478227591,260912.079943672,418690.90018441)
(-360244.308560481,215473.549559657,677832.240183031)
(-508579.823261876,158568.926986473,1104203.27890831)
(-766884.927409854,100965.368859722,1810532.77762357)
(-1207810.06732159,61407.995029531,2974563.68676916)
(-1931297.35045348,40537.9536833263,4874001.21998505)
(-2653797.53829452,22005.046548663,7510229.57593747)
(0,0,0)
(0,0,0)
(0,0,0)
(0,0,0)
(0,0,0)
(0,0,0)
(-239741.913215196,502942.934534528,58451.0804168443)
(-249809.467620997,492638.48174527,128032.16800204)
(-274072.669197034,470634.900235469,224230.873510955)
(-322444.181518219,434440.38083144,373146.754141397)
(-413738.581452377,381416.005251118,620942.879902326)
(-578685.287444371,311587.02035626,1046610.0739769)
(-857479.840794123,234056.685110498,1770998.59852024)
(-1292056.03046114,170742.92475489,2953719.699256)
(-1982681.90674393,121403.478226101,4855536.08145708)
(-2676200.26403165,65390.7906168382,7488350.60142075)
(0,0,0)
(0,0,0)
(0,0,0)
(0,0,0)
(0,0,0)
(0,0,0)
(-313470.823559107,768291.646957709,48122.1111359196)
(-323494.562645447,758271.239496641,105983.916029993)
(-348220.567492124,736877.760122873,187961.623634713)
(-399198.656813639,701590.354619571,320010.306660222)
(-498983.315007233,649330.396662736,551079.230255836)
(-684504.417997614,578153.912788283,969016.755821408)
(-995523.431252894,490930.696717016,1707666.17546779)
(-1420378.65921257,394423.883472676,2904363.8759626)
(-2057370.08114181,283621.362469169,4799516.07286145)
(-2708591.63162443,150398.757721203,7423099.73738152)
(0,0,0)
(0,0,0)
(0,0,0)
(0,0,0)
(0,0,0)
(0,0,0)
(-446539.222287816,1176745.63645061,38085.2327949204)
(-456046.039286137,1167826.21081413,84576.3007635663)
(-479963.197459876,1148770.51797777,152646.740368552)
(-530435.318454031,1117033.7004162,267638.713025942)
(-631255.539121057,1068375.49110241,479849.157707331)
(-820279.693159825,996577.041005415,881705.722650034)
(-1132214.69500616,893737.554920176,1611113.55945303)
(-1537793.0431874,749806.638562193,2793523.84755093)
(-2138306.50435571,549139.381816003,4666312.33255985)
(-2749390.41126177,293214.312069608,7272887.18947318)
(0,0,0)
(0,0,0)
(0,0,0)
(0,0,0)
(0,0,0)
(0,0,0)
(-690775.859019831,1838399.51528244,29121.9801879994)
(-699185.073021619,1830695.68598103,65437.5780427221)
(-720649.958007701,1814093.50850903,120764.545519163)
(-766753.324006141,1785744.70703368,218806.862907825)
(-860403.456099995,1739641.29996609,407944.51014414)
(-1037997.34505954,1663774.70061348,778744.195595629)
(-1330697.31992076,1536111.93095774,1467067.13947884)
(-1699500.27432244,1323592.7736496,2592781.27871386)
(-2258981.10615236,990456.726719749,4410445.03996243)
(-2815959.85521301,539709.309186239,6979909.8980589)
(0,0,0)
(0,0,0)
(0,0,0)
(0,0,0)
(0,0,0)
(0,0,0)
(-1137359.33662078,2954415.54443342,21343.3074697942)
(-1144092.32792363,2947407.5145356,48723.80683886)
(-1161382.41488844,2931954.80007911,92244.9301572317)
(-1198866.42154918,2904342.81142263,172513.247317448)
(-1275825.20329398,2856057.43860125,331922.311976268)
(-1423453.16741163,2768214.24440079,650935.935600574)
(-1668558.13092318,2601184.72123171,1254421.27624973)
(-1967170.22851238,2285628.10136422,2259556.17704753)
(-2478109.83070004,1768381.02253056,3959741.71193674)
(-2943273.95524415,1002389.57164338,6440335.40472371)
(0,0,0)
(0,0,0)
(0,0,0)
(0,0,0)
(0,0,0)
(0,0,0)
(-1885125.25076941,4825270.30809546,14270.4871073679)
(-1889725.75282803,4818235.92043464,33167.8340363617)
(-1901489.39637499,4802137.33378949,64474.6967009185)
(-1926698.52986618,4771497.44227577,124018.59571394)
(-1977531.24389164,4713711.2943844,243895.983822434)
(-2073058.53377586,4601405.62410943,483763.137889669)
(-2233520.24337959,4379718.32644845,938749.776052531)
(-2472038.93696005,3954183.31708342,1742233.49729341)
(-2882250.64178246,3199104.83793157,3193760.32367475)
(-3165331.76062328,1923515.03842641,5437966.61751501)
(0,0,0)
(0,0,0)
(0,0,0)
(0,0,0)
(0,0,0)
(0,0,0)
(-2632696.44409388,7450731.90450243,7234.84768689583)
(-2634985.26942885,7443400.11272601,17055.9248243547)
(-2640823.28377861,7426222.35324596,33794.1891464962)
(-2653194.73164588,7392339.09447701,66147.268591187)
(-2677806.900224,7326163.72128984,131501.741909751)
(-2723808.43942649,7194697.44927805,262018.35616757)
(-2804111.4298935,6932713.34504753,513134.767461958)
(-2939488.91887558,6419666.34597901,987140.657441932)
(-3164582.01000913,5432596.85275761,1918230.65262495)
(-3187105.10193141,3514394.1448279,3514456.64815493)
(0,0,0)
(0,0,0)
(0,0,0)
(0,0,0)
(0,0,0)
(0,0,0)
(0,0,0)
(0,0,0)
(0,0,0)
(0,0,0)
(0,0,0)
(0,0,0)
(0,0,0)
(0,0,0)
(0,0,0)
(0,0,0)
(0,0,0)
(0,0,0)
(0,0,0)
(0,0,0)
(0,0,0)
(0,0,0)
(0,0,0)
(0,0,0)
(0,0,0)
(0,0,0)
(0,0,0)
(0,0,0)
(0,0,0)
(0,0,0)
(0,0,0)
(0,0,0)
(0,0,0)
(0,0,0)
(0,0,0)
(0,0,0)
(0,0,0)
(0,0,0)
(0,0,0)
(0,0,0)
(0,0,0)
(0,0,0)
(0,0,0)
(0,0,0)
(0,0,0)
(0,0,0)
(0,0,0)
(0,0,0)
(0,0,0)
(0,0,0)
(0,0,0)
(0,0,0)
(0,0,0)
(0,0,0)
(0,0,0)
(0,0,0)
(0,0,0)
(0,0,0)
(0,0,0)
(0,0,0)
(0,0,0)
(0,0,0)
(0,0,0)
(0,0,0)
(0,0,0)
(0,0,0)
(0,0,0)
(0,0,0)
(0,0,0)
(0,0,0)
(0,0,0)
(0,0,0)
(0,0,0)
(0,0,0)
(0,0,0)
(0,0,0)
(0,0,0)
(0,0,0)
(0,0,0)
(0,0,0)
(0,0,0)
(0,0,0)
(0,0,0)
(0,0,0)
(0,0,0)
(0,0,0)
(0,0,0)
(0,0,0)
(0,0,0)
(0,0,0)
(0,0,0)
(0,0,0)
(0,0,0)
(0,0,0)
(0,0,0)
(0,0,0)
(0,0,0)
(0,0,0)
(0,0,0)
(0,0,0)
(0,0,0)
(0,0,0)
(24718731.9106832,79062.3663732955,68637.1583632755)
(24702589.4217149,75333.902689243,147536.109121135)
(24665544.3461387,67358.7729318073,249176.969398759)
(24596281.6909564,54426.6755633093,390866.776124299)
(24472937.6067735,36184.2034177444,598140.601488256)
(24253542.928203,14314.2760343748,910268.341779207)
(23851041.6787774,-5300.40953658108,1397499.56117738)
(23055691.8797422,-13965.2186932324,2242361.84885157)
(21261215.9667052,-11596.2290679569,4134554.86664844)
(16387971.6662098,-5669.98696215218,10150051.45704)
(0,0,0)
(0,0,0)
(0,0,0)
(0,0,0)
(0,0,0)
(0,0,0)
(24702344.3930367,168640.009002826,64903.3052481087)
(24686165.7295842,161607.136202047,139563.022995874)
(24648781.4207882,146393.518664886,236208.372393824)
(24578207.2821079,121169.89475883,372598.048546479)
(24451470.0161829,84283.122444768,576262.426946053)
(24225913.2309198,37606.1837125832,890600.488529069)
(23817271.6865228,-6934.66432299384,1388775.56231726)
(23025238.5533726,-25980.5749763827,2244683.79935092)
(21242281.3471755,-19447.7394718709,4140425.00905123)
(16379663.7832372,-8303.18870204562,10155746.0571123)
(0,0,0)
(0,0,0)
(0,0,0)
(0,0,0)
(0,0,0)
(0,0,0)
(24665128.228875,280503.591558228,57830.9324443683)
(24648922.9270431,271101.887191814,124337.490979553)
(24610790.3718237,250568.41482144,210929.554516847)
(24537120.0240907,215614.431474146,335648.915128651)
(24401614.5676033,161941.500757762,529581.06029718)
(24157589.3780193,88414.6181022338,846052.824271699)
(23725577.5866269,10334.5200378549,1369770.52551942)
(22941084.4739807,-22897.2080881581,2251242.01697429)
(21193341.1115503,-10928.1334803032,4151533.34862402)
(16359355.6573094,-456.974197486011,10163983.3381609)
(0,0,0)
(0,0,0)
(0,0,0)
(0,0,0)
(0,0,0)
(0,0,0)
(24596601.3519708,429218.457837157,48391.2681802434)
(24580425.0164818,418944.789832954,103763.281081578)
(24541368.1827377,396480.938188618,175859.305424894)
(24462901.1851799,357705.802934167,281871.966912076)
(24311253.4019867,296203.655856834,456067.228019265)
(24025464.3164198,205805.641778067,767976.000124483)
(23521637.198793,96061.4413201315,1336581.43890039)
(22749381.9828638,42433.2097556687,2263262.40737704)
(21094381.73842,46674.3418851968,4162045.68649275)
(16321364.9157573,32948.6281724343,10164524.3039793)
(0,0,0)
(0,0,0)
(0,0,0)
(0,0,0)
(0,0,0)
(0,0,0)
(24475847.0799055,635242.246948608,38107.7070691451)
(24460049.852418,625714.762541035,81242.7189428241)
(24420818.733191,605150.553967324,136983.202126439)
(24338267.7278424,570411.630527626,220260.389522136)
(24168163.3977548,517123.503720467,365643.228541817)
(23819786.1442497,442449.745418152,658157.96229983)
(23154952.3230449,354271.715671345,1282921.33329612)
(22393925.7519344,277017.054353489,2267482.47719663)
(20939282.534012,202651.577981905,4148302.02559127)
(16264862.1790339,109580.499504779,10131665.7432457)
(0,0,0)
(0,0,0)
(0,0,0)
(0,0,0)
(0,0,0)
(0,0,0)
(24261034.3057603,932553.662669826,28564.4558758379)
(24246317.0067141,924727.80087928,60637.7711825871)
(24208956.9488573,908144.446383604,102173.132094403)
(24127938.5344524,880808.746665746,166851.562695289)
(23955926.4995032,839343.364983684,290899.062453125)
(23597645.1287884,778993.414604999,569879.970963266)
(22924472.8309134,695318.845633674,1205594.71472672)
(22197054.7189782,588127.876743689,2193085.52981616)
(20807176.7206647,428455.175893405,4055248.10652954)
(16200035.1090712,226631.879217014,10022220.6061294)
(0,0,0)
(0,0,0)
(0,0,0)
(0,0,0)
(0,0,0)
(0,0,0)
(23862706.2137413,1391836.50543567,20684.4841182312)
(23849889.3935455,1385821.35537911,43965.8626965093)
(23816799.6644968,1373411.05917543,74699.0270455579)
(23743282.8578734,1353685.69677653,125235.294700429)
(23582914.2411718,1324260.8563607,230449.505696872)
(23240381.7300583,1278382.6546421,486130.590187089)
(22587599.4913017,1198291.6041442,1098310.42009927)
(21931093.4197961,1055946.66634042,2033347.33602927)
(20611455.6238288,771344.176581467,3853471.00500515)
(16089383.0678837,412411.132961722,9795798.22780904)
(0,0,0)
(0,0,0)
(0,0,0)
(0,0,0)
(0,0,0)
(0,0,0)
(23066684.2263901,2206648.36066517,14593.9814049026)
(23056568.1764022,2201776.42667793,31427.8054254908)
(23030224.4986836,2191885.20853932,54796.1421348986)
(22970869.9662988,2176562.53639757,95632.3143111577)
(22838757.7389116,2154374.34698377,184385.28112766)
(22548239.7663825,2118638.32750153,405886.074119487)
(21976964.5384947,2036255.47635341,955848.932137673)
(21548662.2602732,1780770.09717554,1748642.41216205)
(20216525.0554299,1364252.60735934,3494548.49489945)
(15833255.3011208,780371.125915548,9383508.64522593)
(0,0,0)
(0,0,0)
(0,0,0)
(0,0,0)
(0,0,0)
(0,0,0)
(21267618.2311284,4077699.10176048,9655.17665223723)
(21260798.5421479,4072949.13762266,21407.5703769091)
(21243178.5770139,4062778.28193386,39295.9232387334)
(21204356.0344154,4044993.70934869,73259.585651243)
(21121686.9000199,4013421.15190655,148444.036462122)
(20953472.3103147,3950652.19202805,323348.727490451)
(20650159.5198756,3809105.44012097,700268.400113011)
(20223754.0951224,3486665.08052198,1332029.78432943)
(19020108.3980389,2916708.93687498,2910663.81463775)
(15054178.8700026,1901754.99802445,8603218.71154822)
(0,0,0)
(0,0,0)
(0,0,0)
(0,0,0)
(0,0,0)
(0,0,0)
(16390275.6470467,10083243.1058967,4933.30436844964)
(16386900.6012512,10078222.3915747,11223.5793815307)
(16378258.5804021,10066932.1512012,21437.2455787124)
(16359623.965663,10045476.32022,41585.3370439441)
(16321202.1797812,10003910.7879295,85536.0206611742)
(16245614.7568664,9918481.89656375,181732.51947798)
(16105598.8307452,9736803.29738304,377773.801222515)
(15837288.7746445,9359082.24762845,762028.340241434)
(15054805.9761775,8597100.51021845,1895698.18035668)
(12240861.664827,6701456.82291142,6701478.98835653)
(0,0,0)
(0,0,0)
(0,0,0)
(0,0,0)
(0,0,0)
(0,0,0)
(0,0,0)
(0,0,0)
(0,0,0)
(0,0,0)
(0,0,0)
(0,0,0)
(0,0,0)
(0,0,0)
(0,0,0)
(0,0,0)
(0,0,0)
(0,0,0)
(0,0,0)
(0,0,0)
(0,0,0)
(0,0,0)
(0,0,0)
(0,0,0)
(0,0,0)
(0,0,0)
(0,0,0)
(0,0,0)
(0,0,0)
(0,0,0)
(0,0,0)
(0,0,0)
(0,0,0)
(0,0,0)
(0,0,0)
(0,0,0)
(0,0,0)
(0,0,0)
(0,0,0)
(0,0,0)
(0,0,0)
(0,0,0)
(0,0,0)
(0,0,0)
(0,0,0)
(0,0,0)
(0,0,0)
(0,0,0)
(0,0,0)
(0,0,0)
(0,0,0)
(0,0,0)
(0,0,0)
(0,0,0)
(0,0,0)
(0,0,0)
(0,0,0)
(0,0,0)
(0,0,0)
(0,0,0)
(0,0,0)
(0,0,0)
(0,0,0)
(0,0,0)
(0,0,0)
(0,0,0)
(0,0,0)
(0,0,0)
(0,0,0)
(0,0,0)
(0,0,0)
(0,0,0)
(0,0,0)
(0,0,0)
(0,0,0)
(0,0,0)
(0,0,0)
(0,0,0)
(0,0,0)
(0,0,0)
(0,0,0)
(0,0,0)
(0,0,0)
(0,0,0)
(0,0,0)
(0,0,0)
(0,0,0)
(0,0,0)
(0,0,0)
(0,0,0)
(0,0,0)
(0,0,0)
(0,0,0)
(0,0,0)
(0,0,0)
(0,0,0)
(0,0,0)
(0,0,0)
(0,0,0)
(0,0,0)
(0,0,0)
(0,0,0)
(-429887.624330414,62617.7571008753,52552.3782674914)
(-447699.191719606,58865.8749376404,110525.717118995)
(-487918.647577623,50556.9889573188,179982.322232802)
(-561118.524930211,36313.1488896593,267619.989584539)
(-686440.733506284,14673.5686121301,378875.361607055)
(-895604.726122045,-13348.5747712988,507922.191058165)
(-1237634.12486373,-39127.6753733962,602276.270427524)
(-1778901.67678675,-44500.1572586173,447920.58456989)
(-2554924.69163003,-30605.362253828,-738782.794486295)
(-3132046.04118473,-14003.6022213304,-6238210.88451558)
(0,0,0)
(0,0,0)
(0,0,0)
(0,0,0)
(0,0,0)
(0,0,0)
(-448603.608263278,131325.393443118,48790.965312417)
(-466105.207161447,124245.288217098,102233.089133256)
(-505921.243702827,108319.884513514,165723.458422807)
(-579221.654771207,80014.5980919072,246001.546454413)
(-706471.066014814,34311.514273677,350855.283345301)
(-921308.913255659,-30843.2717678023,482122.724872049)
(-1271338.31075624,-98754.3387295526,596909.985861847)
(-1807391.32052618,-110272.061192893,461862.36404967)
(-2569224.27096376,-68511.1450126581,-722175.6346974)
(-3137118.90594928,-28666.1626998287,-6224179.78467754)
(0,0,0)
(0,0,0)
(0,0,0)
(0,0,0)
(0,0,0)
(0,0,0)
(-490564.65986887,211910.10041294,41658.7821289487)
(-507447.542570101,202544.936438414,86280.2038756435)
(-546565.072400912,181127.587911737,137378.545056743)
(-620594.178265177,141353.668864729,200304.276994399)
(-754422.701782989,71471.9759798521,285731.685029202)
(-991366.772891928,-43823.2249562491,414218.38948353)
(-1384191.8362174,-193686.722167476,585470.796120433)
(-1906176.38859238,-214697.271724126,503707.469579374)
(-2612563.0329757,-109997.641172467,-682351.289379899)
(-3151013.06168909,-38531.062229441,-6195567.07049711)
(0,0,0)
(0,0,0)
(0,0,0)
(0,0,0)
(0,0,0)
(0,0,0)
(-565684.086584367,308503.038212299,32243.1011106336)
(-581661.078267007,298628.083773088,64796.6488794956)
(-619666.537385378,276003.581848415,97505.9754206622)
(-695194.80190948,233132.568696105,130373.663033344)
(-843914.48327939,153110.300473024,170453.824160931)
(-1145774.77640451,95.2700311522973,264325.022352643)
(-1735026.64956535,-270654.290867333,564507.039765535)
(-2229643.9603674,-313089.415835935,608475.72746315)
(-2721181.27473196,-108539.058113627,-610869.242088885)
(-3180815.70885753,-23661.303837201,-6157007.77551162)
(0,0,0)
(0,0,0)
(0,0,0)
(0,0,0)
(0,0,0)
(0,0,0)
(-691943.491586325,420506.43247575,22337.7775831704)
(-706604.549739231,412080.228488444,42090.6353798344)
(-742470.218058552,393406.270126123,54527.4987062273)
(-817988.628464648,360200.985955109,50266.0381090779)
(-984266.366373159,304950.706349538,17405.996715182)
(-1409991.02283454,220335.537338783,-6506.50315361251)
(-2801448.83048473,123772.101283253,522018.858580099)
(-3323677.84733174,80119.3190538806,812964.323311166)
(-2934170.12327717,70498.1397366493,-526069.616895099)
(-3229661.19676369,44715.2343586428,-6133372.17893851)
(0,0,0)
(0,0,0)
(0,0,0)
(0,0,0)
(0,0,0)
(0,0,0)
(-900063.184769469,534292.703907191,13861.8194531589)
(-912907.460202802,528380.9126255,23336.2025877836)
(-945027.748936915,516064.945604461,21212.8252583845)
(-1015225.19630695,496241.840703609,-5113.69837619923)
(-1176822.65818605,466446.055833563,-67309.2898162816)
(-1601420.50488783,421817.306033192,-103174.82447967)
(-2925079.83115963,358457.968038345,478242.571192893)
(-3403470.75261469,322162.094489146,803275.867705216)
(-3033334.09109721,232709.413646362,-551873.994087949)
(-3278489.77020533,115955.694410773,-6178038.97450865)
(0,0,0)
(0,0,0)
(0,0,0)
(0,0,0)
(0,0,0)
(0,0,0)
(-1240195.53033579,595865.327424955,7879.72091411034)
(-1250776.50410586,592554.810256467,10922.3212892821)
(-1277777.9390461,586884.515641551,1230.95514969488)
(-1338923.35734738,581318.107829147,-35088.4964002556)
(-1487289.21679531,580168.987660798,-112057.369905621)
(-1903022.28011379,586299.298406779,-166584.751752264)
(-3283540.62902801,587682.326715488,441881.610255152)
(-3725612.4602351,673528.654197821,713771.530932452)
(-3183318.17016736,376408.205664084,-668602.866734176)
(-3359089.63237297,156258.706502477,-6293882.57821451)
(0,0,0)
(0,0,0)
(0,0,0)
(0,0,0)
(0,0,0)
(0,0,0)
(-1782952.16162692,407574.083329663,4478.23246702143)
(-1790945.7941515,406006.522701487,5091.09093046945)
(-1811565.71899904,404879.322912388,-4562.89830306168)
(-1859480.05292979,410122.44969007,-36466.6205806801)
(-1982243.26457268,437383.180062079,-106129.209142834)
(-2363623.58948212,523941.525930631,-165357.480447438)
(-3871302.90154546,709522.7777056,527620.108957346)
(-3156107.79990178,455922.310475607,416547.113209385)
(-3303045.65457491,167860.369034209,-888783.73980105)
(-3483893.06175988,1288.70644692219,-6450114.77650999)
(0,0,0)
(0,0,0)
(0,0,0)
(0,0,0)
(0,0,0)
(0,0,0)
(-2561406.7516078,-799688.289262374,2837.95568287242)
(-2566608.1753798,-801009.639663026,3811.43592977088)
(-2579843.20899379,-802203.625324117,466.770528717206)
(-2609316.53998817,-799781.680551533,-9405.92447133086)
(-2676930.79901753,-787093.635706732,-19760.8093102911)
(-2838632.48664769,-757243.380663487,20079.4946007874)
(-3192157.49652861,-735472.135183698,273942.024249025)
(-3308425.13180858,-899813.080162284,128407.242172562)
(-3613082.71942842,-1048650.08216848,-1055340.58880271)
(-3670395.90001418,-911615.695761465,-6451310.81622282)
(0,0,0)
(0,0,0)
(0,0,0)
(0,0,0)
(0,0,0)
(0,0,0)
(-3137062.87900308,-6307365.76584616,1566.60298829059)
(-3139591.80086106,-6309006.24871543,2606.21450765152)
(-3145928.09100144,-6311657.2253323,2797.08627418801)
(-3159547.36499787,-6314434.37365282,3171.71039098545)
(-3188586.24373288,-6317540.04367584,9957.14222885871)
(-3249490.20033126,-6327376.63024794,41745.9493655677)
(-3362079.83071161,-6369011.76469641,109514.840689799)
(-3487546.69085278,-6478444.82154049,-20467.3520801844)
(-3671473.48257952,-6457976.75415569,-918310.620981291)
(-3543184.49459181,-5539662.6069296,-5539666.9500397)
(0,0,0)
(0,0,0)
(0,0,0)
(0,0,0)
(0,0,0)
(0,0,0)
(0,0,0)
(0,0,0)
(0,0,0)
(0,0,0)
(0,0,0)
(0,0,0)
(0,0,0)
(0,0,0)
(0,0,0)
(0,0,0)
(0,0,0)
(0,0,0)
(0,0,0)
(0,0,0)
(0,0,0)
(0,0,0)
(0,0,0)
(0,0,0)
(0,0,0)
(0,0,0)
(0,0,0)
(0,0,0)
(0,0,0)
(0,0,0)
(0,0,0)
(0,0,0)
(0,0,0)
(0,0,0)
(0,0,0)
(0,0,0)
(0,0,0)
(0,0,0)
(0,0,0)
(0,0,0)
(0,0,0)
(0,0,0)
(0,0,0)
(0,0,0)
(0,0,0)
(0,0,0)
(0,0,0)
(0,0,0)
(0,0,0)
(0,0,0)
(0,0,0)
(0,0,0)
(0,0,0)
(0,0,0)
(0,0,0)
(0,0,0)
(0,0,0)
(0,0,0)
(0,0,0)
(0,0,0)
(0,0,0)
(0,0,0)
(0,0,0)
(0,0,0)
(0,0,0)
(0,0,0)
(0,0,0)
(0,0,0)
(0,0,0)
(0,0,0)
(0,0,0)
(0,0,0)
(0,0,0)
(0,0,0)
(0,0,0)
(0,0,0)
(0,0,0)
(0,0,0)
(0,0,0)
(0,0,0)
(0,0,0)
(0,0,0)
(0,0,0)
(0,0,0)
(0,0,0)
(0,0,0)
(0,0,0)
(0,0,0)
(0,0,0)
(0,0,0)
(0,0,0)
(0,0,0)
(0,0,0)
(0,0,0)
(0,0,0)
(0,0,0)
(0,0,0)
(0,0,0)
(0,0,0)
(0,0,0)
(0,0,0)
(0,0,0)
(-508463.877591596,43777.5888666128,34798.6643945691)
(-523573.758083411,40323.5276117535,70349.7031466249)
(-556825.501689938,32424.2364513564,106832.320807586)
(-614819.660569626,18121.3065711538,142412.149875845)
(-708504.31439415,-5425.83626347092,169901.567027182)
(-852656.425756919,-39142.8787922473,166096.145454302)
(-1059819.03438056,-72940.9134032203,61221.9683743546)
(-1316659.87642542,-73070.9110718463,-327948.92091513)
(-1522115.64474254,-44926.1704175216,-1315831.79738507)
(-1322743.44453361,-19061.2327800876,-3106073.16125608)
(0,0,0)
(0,0,0)
(0,0,0)
(0,0,0)
(0,0,0)
(0,0,0)
(-525446.096843558,89288.7642730886,31331.313173802)
(-539711.744279269,82784.0058719998,62477.3720313799)
(-571138.539203351,67599.2158656625,92519.6881176021)
(-626096.857519405,38605.7074437351,118910.489993214)
(-715528.140657386,-13700.6350051366,136242.363377446)
(-855533.510830136,-101011.318583905,132335.400743583)
(-1061349.68510092,-211730.362043741,61136.2237287892)
(-1310417.65476291,-209167.705777379,-299740.647328955)
(-1512029.00316874,-111924.978885437,-1289937.10665604)
(-1316544.41278557,-42600.6146141931,-3086972.21798573)
(0,0,0)
(0,0,0)
(0,0,0)
(0,0,0)
(0,0,0)
(0,0,0)
(-562818.458708159,136772.140180496,24770.4229318862)
(-575441.270864368,128308.276429634,47239.8806685165)
(-603247.024028811,108042.198220902,63478.8499411731)
(-651920.207989091,66764.3022894981,66646.2848193235)
(-732438.549332644,-18050.0377177666,49011.5350816062)
(-866718.914682931,-198288.573417537,21640.9317062239)
(-1093499.67129915,-544571.750463096,63790.155207324)
(-1310892.42731378,-538244.571214839,-202416.940633831)
(-1487576.93599098,-218712.628905978,-1220615.38759801)
(-1301412.3719838,-68413.399975705,-3044403.29194181)
(0,0,0)
(0,0,0)
(0,0,0)
(0,0,0)
(0,0,0)
(0,0,0)
(-627476.71716251,182327.718074241,16237.0526844068)
(-637761.065715969,173787.024152207,26858.2924108028)
(-660162.678386938,153300.020847031,22096.6107862372)
(-698562.089992171,110417.927909281,-18189.726750854)
(-761710.848952244,12756.8068011423,-131200.205596905)
(-886378.576572191,-264182.895460675,-324702.083386093)
(-1337268.41068188,-1337176.57135336,70144.498620694)
(-1407681.50448604,-1407229.69166802,117167.163192504)
(-1430761.11819845,-321634.250803688,-1070331.37144331)
(-1270917.48123677,-72597.669268995,-2976045.32977086)
(0,0,0)
(0,0,0)
(0,0,0)
(0,0,0)
(0,0,0)
(0,0,0)
(-729791.896713889,212522.497343592,7653.62585821228)
(-737375.425061726,205938.351298691,6273.17403422441)
(-753025.699417369,191026.773977364,-20898.0977372815)
(-775652.187785246,163114.719138409,-115931.329645812)
(-791696.865541207,112446.982437006,-408191.006113633)
(-713462.37306568,28881.9577790413,-1397784.50912221)
(-7.73524373414393e-05,-2.11833824326064e-05,5.15525873077769e-05)