/*--------------------------------*- C++ -*----------------------------------*\
| =========                 |                                                 |
| \\      /  F ield         | foam-extend: Open Source CFD                    |
|  \\    /   O peration     | Version:     4.0                                |
|   \\  /    A nd           | Web:         http://www.foam-extend.org         |
|    \\/     M anipulation  |                                                 |
\*---------------------------------------------------------------------------*/
FoamFile
{
    version 2.0;
    format ascii;
    class volVectorField;
    location "Data/1331";
    object      E;
}
// * * * * * * * * * * * * * * * * * * * * * * * * * * * * * * * * * * * * * //

dimensions      [0 1 -1 0 0 0 0];

internalField   nonuniform List<vector>
4096
(
(0,0,0)
(0,0,0)
(0,0,0)
(0,0,0)
(0,0,0)
(0,0,0)
(0,0,0)
(0,0,0)
(0,0,0)
(0,0,0)
(0,0,0)
(0,0,0)
(0,0,0)
(0,0,0)
(0,0,0)
(0,0,0)
(0,0,0)
(0,0,0)
(0,0,0)
(0,0,0)
(0,0,0)
(0,0,0)
(0,0,0)
(0,0,0)
(0,0,0)
(0,0,0)
(0,0,0)
(0,0,0)
(0,0,0)
(0,0,0)
(0,0,0)
(0,0,0)
(0,0,0)
(0,0,0)
(0,0,0)
(0,0,0)
(0,0,0)
(0,0,0)
(0,0,0)
(0,0,0)
(0,0,0)
(0,0,0)
(0,0,0)
(0,0,0)
(0,0,0)
(0,0,0)
(0,0,0)
(0,0,0)
(0,0,0)
(0,0,0)
(0,0,0)
(0,0,0)
(0,0,0)
(0,0,0)
(0,0,0)
(0,0,0)
(0,0,0)
(0,0,0)
(0,0,0)
(0,0,0)
(0,0,0)
(0,0,0)
(0,0,0)
(0,0,0)
(0,0,0)
(0,0,0)
(0,0,0)
(0,0,0)
(0,0,0)
(0,0,0)
(0,0,0)
(0,0,0)
(0,0,0)
(0,0,0)
(0,0,0)
(0,0,0)
(0,0,0)
(0,0,0)
(0,0,0)
(0,0,0)
(0,0,0)
(0,0,0)
(0,0,0)
(0,0,0)
(0,0,0)
(0,0,0)
(0,0,0)
(0,0,0)
(0,0,0)
(0,0,0)
(0,0,0)
(0,0,0)
(0,0,0)
(0,0,0)
(0,0,0)
(0,0,0)
(0,0,0)
(0,0,0)
(0,0,0)
(0,0,0)
(0,0,0)
(0,0,0)
(0,0,0)
(0,0,0)
(0,0,0)
(0,0,0)
(0,0,0)
(0,0,0)
(0,0,0)
(0,0,0)
(0,0,0)
(0,0,0)
(0,0,0)
(0,0,0)
(0,0,0)
(0,0,0)
(0,0,0)
(0,0,0)
(0,0,0)
(0,0,0)
(0,0,0)
(0,0,0)
(0,0,0)
(0,0,0)
(0,0,0)
(0,0,0)
(0,0,0)
(0,0,0)
(0,0,0)
(0,0,0)
(0,0,0)
(0,0,0)
(0,0,0)
(0,0,0)
(0,0,0)
(0,0,0)
(0,0,0)
(0,0,0)
(0,0,0)
(0,0,0)
(0,0,0)
(0,0,0)
(0,0,0)
(0,0,0)
(0,0,0)
(0,0,0)
(0,0,0)
(0,0,0)
(0,0,0)
(0,0,0)
(0,0,0)
(0,0,0)
(0,0,0)
(0,0,0)
(0,0,0)
(0,0,0)
(0,0,0)
(0,0,0)
(0,0,0)
(0,0,0)
(0,0,0)
(0,0,0)
(0,0,0)
(0,0,0)
(0,0,0)
(0,0,0)
(0,0,0)
(0,0,0)
(0,0,0)
(0,0,0)
(0,0,0)
(0,0,0)
(0,0,0)
(0,0,0)
(0,0,0)
(0,0,0)
(0,0,0)
(0,0,0)
(0,0,0)
(0,0,0)
(0,0,0)
(0,0,0)
(0,0,0)
(0,0,0)
(0,0,0)
(0,0,0)
(0,0,0)
(0,0,0)
(0,0,0)
(0,0,0)
(0,0,0)
(0,0,0)
(0,0,0)
(0,0,0)
(0,0,0)
(0,0,0)
(0,0,0)
(0,0,0)
(0,0,0)
(0,0,0)
(0,0,0)
(0,0,0)
(0,0,0)
(0,0,0)
(0,0,0)
(0,0,0)
(0,0,0)
(0,0,0)
(0,0,0)
(0,0,0)
(0,0,0)
(0,0,0)
(0,0,0)
(0,0,0)
(0,0,0)
(0,0,0)
(0,0,0)
(0,0,0)
(0,0,0)
(0,0,0)
(0,0,0)
(0,0,0)
(0,0,0)
(0,0,0)
(0,0,0)
(0,0,0)
(0,0,0)
(0,0,0)
(0,0,0)
(0,0,0)
(0,0,0)
(0,0,0)
(0,0,0)
(0,0,0)
(0,0,0)
(0,0,0)
(0,0,0)
(0,0,0)
(0,0,0)
(0,0,0)
(0,0,0)
(0,0,0)
(0,0,0)
(0,0,0)
(0,0,0)
(0,0,0)
(0,0,0)
(0,0,0)
(0,0,0)
(0,0,0)
(0,0,0)
(0,0,0)
(0,0,0)
(0,0,0)
(0,0,0)
(0,0,0)
(0,0,0)
(0,0,0)
(0,0,0)
(0,0,0)
(0,0,0)
(0,0,0)
(0,0,0)
(0,0,0)
(0,0,0)
(0,0,0)
(0,0,0)
(0,0,0)
(0,0,0)
(0,0,0)
(0,0,0)
(0,0,0)
(0,0,0)
(0,0,0)
(0,0,0)
(0,0,0)
(0,0,0)
(0,0,0)
(0,0,0)
(0,0,0)
(0,0,0)
(0,0,0)
(0,0,0)
(0,0,0)
(0,0,0)
(0,0,0)
(0,0,0)
(0,0,0)
(0,0,0)
(0,0,0)
(0,0,0)
(0,0,0)
(0,0,0)
(0,0,0)
(0,0,0)
(0,0,0)
(0,0,0)
(0,0,0)
(0,0,0)
(0,0,0)
(0,0,0)
(0,0,0)
(0,0,0)
(0,0,0)
(0,0,0)
(0,0,0)
(0,0,0)
(0,0,0)
(0,0,0)
(0,0,0)
(0,0,0)
(0,0,0)
(0,0,0)
(0,0,0)
(0,0,0)
(0,0,0)
(0,0,0)
(0,0,0)
(0,0,0)
(0,0,0)
(0,0,0)
(0,0,0)
(0,0,0)
(0,0,0)
(0,0,0)
(0,0,0)
(0,0,0)
(0,0,0)
(0,0,0)
(0,0,0)
(0,0,0)
(0,0,0)
(0,0,0)
(0,0,0)
(0,0,0)
(0,0,0)
(0,0,0)
(0,0,0)
(0,0,0)
(0,0,0)
(0,0,0)
(0,0,0)
(0,0,0)
(0,0,0)
(0,0,0)
(0,0,0)
(0,0,0)
(0,0,0)
(0,0,0)
(0,0,0)
(0,0,0)
(0,0,0)
(0,0,0)
(0,0,0)
(0,0,0)
(0,0,0)
(0,0,0)
(0,0,0)
(0,0,0)
(0,0,0)
(0,0,0)
(0,0,0)
(0,0,0)
(0,0,0)
(0,0,0)
(0,0,0)
(0,0,0)
(0,0,0)
(0,0,0)
(0,0,0)
(0,0,0)
(0,0,0)
(0,0,0)
(0,0,0)
(0,0,0)
(0,0,0)
(0,0,0)
(0,0,0)
(0,0,0)
(0,0,0)
(0,0,0)
(0,0,0)
(0,0,0)
(0,0,0)
(0,0,0)
(0,0,0)
(0,0,0)
(0,0,0)
(0,0,0)
(0,0,0)
(0,0,0)
(0,0,0)
(0,0,0)
(0,0,0)
(0,0,0)
(0,0,0)
(0,0,0)
(0,0,0)
(0,0,0)
(0,0,0)
(0,0,0)
(0,0,0)
(0,0,0)
(0,0,0)
(0,0,0)
(0,0,0)
(0,0,0)
(0,0,0)
(0,0,0)
(0,0,0)
(0,0,0)
(0,0,0)
(0,0,0)
(0,0,0)
(0,0,0)
(0,0,0)
(0,0,0)
(0,0,0)
(0,0,0)
(0,0,0)
(0,0,0)
(0,0,0)
(0,0,0)
(0,0,0)
(0,0,0)
(0,0,0)
(0,0,0)
(0,0,0)
(0,0,0)
(0,0,0)
(0,0,0)
(0,0,0)
(0,0,0)
(0,0,0)
(0,0,0)
(0,0,0)
(0,0,0)
(0,0,0)
(0,0,0)
(0,0,0)
(0,0,0)
(0,0,0)
(0,0,0)
(0,0,0)
(0,0,0)
(0,0,0)
(0,0,0)
(0,0,0)
(0,0,0)
(0,0,0)
(0,0,0)
(0,0,0)
(0,0,0)
(0,0,0)
(0,0,0)
(0,0,0)
(0,0,0)
(0,0,0)
(0,0,0)
(0,0,0)
(0,0,0)
(0,0,0)
(0,0,0)
(0,0,0)
(0,0,0)
(0,0,0)
(0,0,0)
(0,0,0)
(0,0,0)
(0,0,0)
(0,0,0)
(0,0,0)
(0,0,0)
(0,0,0)
(0,0,0)
(0,0,0)
(0,0,0)
(0,0,0)
(0,0,0)
(0,0,0)
(0,0,0)
(0,0,0)
(0,0,0)
(0,0,0)
(0,0,0)
(0,0,0)
(0,0,0)
(0,0,0)
(0,0,0)
(0,0,0)
(0,0,0)
(0,0,0)
(0,0,0)
(0,0,0)
(0,0,0)
(0,0,0)
(0,0,0)
(0,0,0)
(0,0,0)
(0,0,0)
(0,0,0)
(0,0,0)
(0,0,0)
(0,0,0)
(0,0,0)
(0,0,0)
(0,0,0)
(0,0,0)
(0,0,0)
(0,0,0)
(0,0,0)
(0,0,0)
(0,0,0)
(0,0,0)
(0,0,0)
(0,0,0)
(0,0,0)
(0,0,0)
(0,0,0)
(0,0,0)
(0,0,0)
(0,0,0)
(0,0,0)
(0,0,0)
(0,0,0)
(0,0,0)
(0,0,0)
(0,0,0)
(0,0,0)
(0,0,0)
(0,0,0)
(0,0,0)
(0,0,0)
(0,0,0)
(0,0,0)
(0,0,0)
(0,0,0)
(0,0,0)
(0,0,0)
(0,0,0)
(0,0,0)
(0,0,0)
(0,0,0)
(0,0,0)
(0,0,0)
(0,0,0)
(0,0,0)
(0,0,0)
(0,0,0)
(0,0,0)
(0,0,0)
(0,0,0)
(0,0,0)
(0,0,0)
(0,0,0)
(0,0,0)
(0,0,0)
(0,0,0)
(0,0,0)
(0,0,0)
(0,0,0)
(0,0,0)
(0,0,0)
(0,0,0)
(0,0,0)
(0,0,0)
(0,0,0)
(0,0,0)
(0,0,0)
(0,0,0)
(0,0,0)
(0,0,0)
(0,0,0)
(0,0,0)
(0,0,0)
(0,0,0)
(0,0,0)
(0,0,0)
(0,0,0)
(0,0,0)
(0,0,0)
(0,0,0)
(0,0,0)
(0,0,0)
(0,0,0)
(0,0,0)
(0,0,0)
(0,0,0)
(0,0,0)
(0,0,0)
(0,0,0)
(0,0,0)
(0,0,0)
(0,0,0)
(0,0,0)
(0,0,0)
(0,0,0)
(0,0,0)
(0,0,0)
(0,0,0)
(0,0,0)
(0,0,0)
(0,0,0)
(0,0,0)
(0,0,0)
(0,0,0)
(0,0,0)
(0,0,0)
(0,0,0)
(0,0,0)
(0,0,0)
(0,0,0)
(0,0,0)
(0,0,0)
(0,0,0)
(0,0,0)
(0,0,0)
(0,0,0)
(0,0,0)
(0,0,0)
(0,0,0)
(0,0,0)
(0,0,0)
(0,0,0)
(0,0,0)
(0,0,0)
(0,0,0)
(0,0,0)
(0,0,0)
(0,0,0)
(0,0,0)
(0,0,0)
(0,0,0)
(0,0,0)
(0,0,0)
(0,0,0)
(0,0,0)
(0,0,0)
(0,0,0)
(0,0,0)
(0,0,0)
(0,0,0)
(0,0,0)
(0,0,0)
(0,0,0)
(0,0,0)
(0,0,0)
(0,0,0)
(0,0,0)
(0,0,0)
(0,0,0)
(0,0,0)
(0,0,0)
(0,0,0)
(0,0,0)
(0,0,0)
(0,0,0)
(0,0,0)
(0,0,0)
(0,0,0)
(0,0,0)
(0,0,0)
(0,0,0)
(0,0,0)
(0,0,0)
(0,0,0)
(0,0,0)
(0,0,0)
(0,0,0)
(0,0,0)
(0,0,0)
(0,0,0)
(0,0,0)
(0,0,0)
(0,0,0)
(0,0,0)
(0,0,0)
(0,0,0)
(0,0,0)
(0,0,0)
(0,0,0)
(0,0,0)
(0,0,0)
(0,0,0)
(0,0,0)
(0,0,0)
(0,0,0)
(0,0,0)
(0,0,0)
(0,0,0)
(0,0,0)
(0,0,0)
(0,0,0)
(0,0,0)
(0,0,0)
(0,0,0)
(0,0,0)
(0,0,0)
(0,0,0)
(0,0,0)
(0,0,0)
(0,0,0)
(0,0,0)
(0,0,0)
(0,0,0)
(0,0,0)
(0,0,0)
(0,0,0)
(0,0,0)
(0,0,0)
(0,0,0)
(0,0,0)
(0,0,0)
(0,0,0)
(0,0,0)
(0,0,0)
(0,0,0)
(0,0,0)
(0,0,0)
(0,0,0)
(0,0,0)
(0,0,0)
(0,0,0)
(0,0,0)
(0,0,0)
(0,0,0)
(0,0,0)
(0,0,0)
(0,0,0)
(0,0,0)
(0,0,0)
(0,0,0)
(0,0,0)
(0,0,0)
(0,0,0)
(0,0,0)
(0,0,0)
(0,0,0)
(0,0,0)
(0,0,0)
(0,0,0)
(0,0,0)
(0,0,0)
(0,0,0)
(0,0,0)
(0,0,0)
(0,0,0)
(0,0,0)
(0,0,0)
(0,0,0)
(0,0,0)
(0,0,0)
(0,0,0)
(0,0,0)
(0,0,0)
(0,0,0)
(0,0,0)
(0,0,0)
(0,0,0)
(0,0,0)
(0,0,0)
(0,0,0)
(0,0,0)
(0,0,0)
(0,0,0)
(0,0,0)
(0,0,0)
(0,0,0)
(0,0,0)
(0,0,0)
(0,0,0)
(0,0,0)
(0,0,0)
(0,0,0)
(0,0,0)
(0,0,0)
(0,0,0)
(0,0,0)
(0,0,0)
(0,0,0)
(0,0,0)
(0,0,0)
(0,0,0)
(0,0,0)
(0,0,0)
(0,0,0)
(0,0,0)
(0,0,0)
(0,0,0)
(0,0,0)
(0,0,0)
(0,0,0)
(0,0,0)
(0,0,0)
(0,0,0)
(0,0,0)
(0,0,0)
(0,0,0)
(0,0,0)
(0,0,0)
(0,0,0)
(0,0,0)
(0,0,0)
(0,0,0)
(0,0,0)
(0,0,0)
(0,0,0)
(0,0,0)
(0,0,0)
(0,0,0)
(0,0,0)
(0,0,0)
(0,0,0)
(0,0,0)
(0,0,0)
(0,0,0)
(0,0,0)
(0,0,0)
(0,0,0)
(-132794.987232709,70390.8167384976,62404.1704942113)
(-140388.477774129,67472.6776785604,135319.97058978)
(-157979.575404605,61429.1416391347,231870.40435525)
(-191319.704142958,51968.5661650179,371221.542333193)
(-251480.429612727,39147.2382435029,583554.733702424)
(-359515.991737698,24390.1569529883,918680.56848712)
(-555240.537426588,10973.0268502379,1462948.07906351)
(-908983.557441363,2761.03521046753,2369170.60129439)
(-1499227.37720495,26.4216752658761,3868371.55682413)
(-2088970.20395643,-213.55175278196,5957555.31253334)
(0,0,0)
(0,0,0)
(0,0,0)
(0,0,0)
(0,0,0)
(0,0,0)
(-140350.016923816,151217.220788403,59523.61287391)
(-148016.618329608,145747.10217232,129265.806709762)
(-165886.285236655,134268.835044037,222312.398541512)
(-200023.205373647,115985.429247094,358318.740833087)
(-261876.245814191,90638.9367645048,568703.288126274)
(-372551.515488748,60486.3027187752,905158.657849241)
(-570432.025117752,31949.5014019956,1454614.2084152)
(-922823.162125187,13875.3187643698,2366323.08698646)
(-1508459.42986656,6759.1356552674,3868049.80287308)
(-2093277.59918461,3429.0595898255,5957684.790715)
(0,0,0)
(0,0,0)
(0,0,0)
(0,0,0)
(0,0,0)
(0,0,0)
(-157742.241053061,254945.748481946,54013.7133595182)
(-165549.344503802,247636.531328891,117673.62870675)
(-184011.981875384,232109.448424327,203844.997201848)
(-219864.008837183,206877.528133253,332816.907152874)
(-285688.576926024,170784.146934466,538360.273908937)
(-403245.329708989,125644.243534266,876447.662802435)
(-607926.003546554,79921.2120340101,1436401.95571698)
(-957335.570979704,48511.6070897077,2359101.23837131)
(-1530691.25504338,31951.2191069004,3864600.40996314)
(-2103353.1001332,17304.9046838543,5954077.66500227)
(0,0,0)
(0,0,0)
(0,0,0)
(0,0,0)
(0,0,0)
(0,0,0)
(-190271.084084092,398636.980872126,46579.8516939125)
(-198235.295619617,390514.235892791,101937.442749632)
(-217428.432853047,373117.780793277,178357.543233722)
(-255751.170548953,344457.214695946,296529.027219978)
(-328103.627837686,302373.414669578,493043.387322555)
(-458840.227205164,246970.669344337,830557.188717642)
(-679769.188650895,185427.23951885,1404820.34988371)
(-1024161.1695372,135179.343022172,2342313.78348842)
(-1571463.98530393,96036.8533191627,3849692.13458004)
(-2121139.28444299,51674.9163146008,5936461.40739237)
(0,0,0)
(0,0,0)
(0,0,0)
(0,0,0)
(0,0,0)
(0,0,0)
(-248690.643247652,609048.361000775,38279.2631190019)
(-256650.42068324,601136.117212419,84307.8024826124)
(-276214.704592212,584227.009439705,149413.278428397)
(-316602.436220205,556298.157613695,254174.771730859)
(-395684.84761413,514811.845845778,437421.188168793)
(-542713.436055253,458317.12027889,768788.173289479)
(-789187.597278548,389073.228456881,1354329.78163)
(-1125905.97996792,312506.61235043,2302908.49226968)
(-1630701.66604481,224628.929209662,3805018.08242405)
(-2146838.70297951,119079.577788073,5884452.12393008)
(0,0,0)
(0,0,0)
(0,0,0)
(0,0,0)
(0,0,0)
(0,0,0)
(-354108.414124131,932894.421712973,30262.3534119345)
(-361682.665591404,925881.253693964,67199.8825217908)
(-380614.266518871,910817.664658469,121223.493821897)
(-420595.01393687,885672.323814578,212444.341557881)
(-500498.544551014,847048.46362482,380706.268329854)
(-650301.990579337,790038.689122497,699286.69006559)
(-897518.079020297,708400.974327455,1277477.02321534)
(-1218970.79273178,594238.650174633,2214715.7781229)
(-1694861.20748648,435130.131608784,3699075.7832103)
(-2179173.5111508,232320.239901997,5765008.63224709)
(0,0,0)
(0,0,0)
(0,0,0)
(0,0,0)
(0,0,0)
(0,0,0)
(-547683.260606937,1457455.24460652,23122.4377133955)
(-554365.950597151,1451393.58863262,51976.0533718853)
(-571352.157537075,1438270.60745543,95875.2681120048)
(-607867.046631721,1415811.21746104,173603.421097264)
(-682074.525213378,1379200.97032933,323525.439606137)
(-822828.303029015,1318954.2307313,617438.201026337)
(-1054832.12772718,1217635.23515641,1163036.06792457)
(-1347137.00541565,1049106.40046346,2055305.32305139)
(-1790495.71907979,784990.377928545,3495940.79581136)
(-2231932.29549642,427724.06873236,5532469.26247745)
(0,0,0)
(0,0,0)
(0,0,0)
(0,0,0)
(0,0,0)
(0,0,0)
(-901605.227075606,2342090.29581481,16970.1758673069)
(-906944.778746177,2336607.66475935,38700.8784867609)
(-920647.48684732,2324406.1159764,73212.8568131123)
(-950356.082850175,2302535.9945746,136844.162549715)
(-1011321.01812293,2264172.81718014,263193.333821822)
(-1128321.15504121,2194426.16638324,516042.553211097)
(-1322611.09010909,2061932.21342326,994356.665053311)
(-1559251.70808169,1811705.19045984,1791009.58313863)
(-1964144.0946178,1401633.8636856,3138510.19199937)
(-2332833.62884015,794489.825927966,5104578.06364385)
(0,0,0)
(0,0,0)
(0,0,0)
(0,0,0)
(0,0,0)
(0,0,0)
(-1494219.45026749,3824915.61898576,11394.1270965202)
(-1497876.11493359,3819472.75313054,26405.1536589358)
(-1507213.83319226,3806786.7627326,51238.3400949759)
(-1527212.79132294,3782541.24335752,98445.8826350073)
(-1567475.52947408,3736661.92152774,193432.307761508)
(-1643186.79760507,3647525.96238461,383519.309365193)
(-1770372.69553015,3471715.85120699,744108.367111619)
(-1959379.39612848,3134291.60503559,1380901.34866435)
(-2284484.17074187,2535693.20164066,2531326.18145113)
(-2508861.46192882,1524632.37315106,4310045.09615688)
(0,0,0)
(0,0,0)
(0,0,0)
(0,0,0)
(0,0,0)
(0,0,0)
(-2086691.61086374,5905819.36591885,5787.86393063417)
(-2088527.13285285,5900172.34752783,13615.4023861957)
(-2093185.86226465,5886685.88075562,26902.1466278395)
(-2103011.1149978,5859916.90058238,52537.6044007898)
(-2122486.72287708,5807395.61689626,104290.631909365)
(-2158956.16883439,5703060.60910174,207712.154026623)
(-2222622.35814744,5495304.54131244,406745.822068588)
(-2329887.31683412,5088528.60468477,782396.139253485)
(-2508281.45878118,4306029.3699264,1520341.42974891)
(-2526114.43752533,2785581.41382322,2785506.82660208)
(0,0,0)
(0,0,0)
(0,0,0)
(0,0,0)
(0,0,0)
(0,0,0)
(0,0,0)
(0,0,0)
(0,0,0)
(0,0,0)
(0,0,0)
(0,0,0)
(0,0,0)
(0,0,0)
(0,0,0)
(0,0,0)
(0,0,0)
(0,0,0)
(0,0,0)
(0,0,0)
(0,0,0)
(0,0,0)
(0,0,0)
(0,0,0)
(0,0,0)
(0,0,0)
(0,0,0)
(0,0,0)
(0,0,0)
(0,0,0)
(0,0,0)
(0,0,0)
(0,0,0)
(0,0,0)
(0,0,0)
(0,0,0)
(0,0,0)
(0,0,0)
(0,0,0)
(0,0,0)
(0,0,0)
(0,0,0)
(0,0,0)
(0,0,0)
(0,0,0)
(0,0,0)
(0,0,0)
(0,0,0)
(0,0,0)
(0,0,0)
(0,0,0)
(0,0,0)
(0,0,0)
(0,0,0)
(0,0,0)
(0,0,0)
(0,0,0)
(0,0,0)
(0,0,0)
(0,0,0)
(0,0,0)
(0,0,0)
(0,0,0)
(0,0,0)
(0,0,0)
(0,0,0)
(0,0,0)
(0,0,0)
(0,0,0)
(0,0,0)
(0,0,0)
(0,0,0)
(0,0,0)
(0,0,0)
(0,0,0)
(0,0,0)
(0,0,0)
(0,0,0)
(0,0,0)
(0,0,0)
(0,0,0)
(0,0,0)
(0,0,0)
(0,0,0)
(0,0,0)
(0,0,0)
(0,0,0)
(0,0,0)
(0,0,0)
(0,0,0)
(0,0,0)
(0,0,0)
(0,0,0)
(0,0,0)
(0,0,0)
(0,0,0)
(0,0,0)
(0,0,0)
(0,0,0)
(0,0,0)
(0,0,0)
(0,0,0)
(19591610.3306276,62686.0677185659,54740.6154080765)
(19578909.2189618,59707.4071039903,117567.512555101)
(19549665.7835938,53399.2365105355,198354.918033105)
(19494824.316733,43172.9237133623,310869.974430699)
(19397182.5962281,28687.6818229086,475351.267753969)
(19223426.4707523,11351.4534077158,722889.352843159)
(18904552.0659637,-4224.67583951157,1109153.42627933)
(18274262.4612031,-11111.2196261799,1778850.62824797)
(16852047.3591583,-9228.1460755825,3278636.03894719)
(12989432.0936015,-4533.50152666487,8046599.24390287)
(0,0,0)
(0,0,0)
(0,0,0)
(0,0,0)
(0,0,0)
(0,0,0)
(19578725.7714653,133668.101219361,51774.1790970871)
(19565980.0582608,128075.519445641,111241.391152031)
(19536477.6958557,116061.811936304,188046.835620867)
(19480598.867677,96098.7490665777,296330.938203949)
(19380246.9153897,66804.9559925402,457922.50381735)
(19201559.9137444,29779.4134809737,707215.115497956)
(18877781.9974327,-5571.02708346699,1102179.44517854)
(18250110.8205531,-20675.2044688957,1780641.44833)
(16837025.724341,-15481.2061642162,3283241.35519793)
(12982859.0403514,-6632.48699011857,8051035.70211226)
(0,0,0)
(0,0,0)
(0,0,0)
(0,0,0)
(0,0,0)
(0,0,0)
(19549344.952979,222305.970308446,46106.9378657954)
(19536527.3433929,214865.676028343,99072.0943733522)
(19506413.102723,198657.930638278,167882.892059972)
(19448093.875446,170965.40800771,266890.349822641)
(19340749.7954821,128355.508813469,420733.425580491)
(19147377.9744192,70026.1861872015,671695.349733035)
(18805041.5785434,8062.22081113448,1086926.52073551)
(18183343.206081,-18295.9413696282,1785700.48156266)
(16798196.2138596,-8780.42201820675,3291944.22950062)
(12966756.4458868,-444.710502540748,8057478.90798003)
(0,0,0)
(0,0,0)
(0,0,0)
(0,0,0)
(0,0,0)
(0,0,0)
(19495088.4887582,340221.040370029,38557.358083077)
(19482261.2195272,332112.318752073,82646.2011995592)
(19451400.1021551,314346.528865041,139961.068951593)
(19389284.6375866,283612.126461472,224110.543349282)
(19269128.2236027,234798.909350247,362267.292359044)
(19042632.7009778,163081.148543165,609571.402807094)
(18643339.357669,75998.9474749928,1060358.13081029)
(18031302.7775967,33469.7437482517,1794960.49954545)
(16719692.7432164,36838.7541607575,3300016.59583302)
(12936611.6921992,26000.973709926,8057651.93596539)
(0,0,0)
(0,0,0)
(0,0,0)
(0,0,0)
(0,0,0)
(0,0,0)
(19399416.4177732,503621.997145083,30323.9831910925)
(19386870.2491448,496087.459711217,64660.1733908797)
(19355847.1917645,479809.406536601,108967.400349668)
(19290486.7663473,452273.722022707,175048.60320784)
(19155694.0598692,409954.246867767,290346.359194022)
(18879591.0741105,350689.778839245,522265.219719203)
(18352649.0384871,280711.422794512,1017548.10962104)
(17749438.6489313,219458.63969151,1798046.58576557)
(16596673.7492554,160489.832367451,3288852.09324551)
(12891773.2498546,86752.6881864314,8031320.4269219)
(0,0,0)
(0,0,0)
(0,0,0)
(0,0,0)
(0,0,0)
(0,0,0)
(19229240.5264127,739380.229497017,22724.8280981975)
(19217541.5084324,733191.744884554,48228.369888034)
(19187975.1039151,720061.257315485,81219.1496621566)
(19123825.556955,698380.500344035,132523.801435977)
(18987518.1623164,665437.892356129,230855.4500672)
(18703548.9841364,617508.705273706,452017.549903969)
(18169995.7031474,551087.590570368,955959.600947387)
(17593470.7670984,466065.400369433,1738743.28142623)
(16491983.9125907,339485.66295244,3214734.33175102)
(12840386.823305,179548.552327988,7944210.13414077)
(0,0,0)
(0,0,0)
(0,0,0)
(0,0,0)
(0,0,0)
(0,0,0)
(18913557.1657073,1103509.52396437,16462.2802053717)
(18903391.1098415,1098758.70881587,34970.2568223498)
(18877197.7118199,1088960.92374388,59352.7220240123)
(18818981.8743128,1073322.97368281,99393.3287277178)
(18691916.3859925,1049924.28644364,182748.024421284)
(18420392.7386223,1013455.70053357,385411.988497045)
(17902930.6963555,949859.838449479,870708.917522175)
(17382610.9245058,836965.443606358,1611892.94535083)
(16336854.1672564,611325.755493777,3054534.96746023)
(12752695.7884953,326818.704758825,7764468.73202479)
(0,0,0)
(0,0,0)
(0,0,0)
(0,0,0)
(0,0,0)
(0,0,0)
(18282710.2271054,1749394.66864042,11631.4021300383)
(18274687.78825,1745589.87129683,24999.673639855)
(18253809.3291783,1737813.04564044,43522.7367046004)
(18206779.0685063,1725666.14758826,75876.4124297623)
(18102116.1615572,1707999.41938821,146196.100791985)
(17871821.6373318,1679569.70566265,321771.304276949)
(17418917.7779299,1614201.09027023,757733.185404091)
(17079561.8097669,1411612.25978193,1386104.85236682)
(16023858.9657872,1081366.3901299,2769893.15831259)
(12549688.1715541,618511.404140872,7437510.6595232)
(0,0,0)
(0,0,0)
(0,0,0)
(0,0,0)
(0,0,0)
(0,0,0)
(16856870.4016163,3232413.3051575,7723.5125861004)
(16851442.4385228,3228753.25617387,17073.5752396735)
(16837477.5262178,3220761.57555901,31265.68689801)
(16806703.987462,3206675.1008349,58171.9558533518)
(16741203.8216077,3181601.31917948,117722.705967227)
(16607856.9697423,3131732.6044797,256348.040789807)
(16367416.079186,3019482.04171922,555110.315611639)
(16029532.1610335,2763818.31139888,1055824.70781976)
(15075582.6179256,2311939.35528766,2307016.95498156)
(11932168.7666135,1507380.31381315,6818949.81775382)
(0,0,0)
(0,0,0)
(0,0,0)
(0,0,0)
(0,0,0)
(0,0,0)
(12991131.9964073,7992465.0216955,3956.67717788415)
(12988428.551138,7988599.39575425,8986.85459362858)
(12981564.8036594,7979727.28933326,17102.4758822301)
(12966784.8503043,7962768.36659517,33045.245806937)
(12936345.902037,7929816.09925639,67829.8418029301)
(12876414.6433902,7861950.37493755,144073.260107544)
(12765421.7727214,7717873.2721772,299469.899767731)
(12552819.9781334,7418404.74427452,604008.172911604)
(11932647.9749924,6814314.58134402,1502535.51406864)
(9702311.3055799,5311681.60125991,5311640.48450357)
(0,0,0)
(0,0,0)
(0,0,0)
(0,0,0)
(0,0,0)
(0,0,0)
(0,0,0)
(0,0,0)
(0,0,0)
(0,0,0)
(0,0,0)
(0,0,0)
(0,0,0)
(0,0,0)
(0,0,0)
(0,0,0)
(0,0,0)
(0,0,0)
(0,0,0)
(0,0,0)
(0,0,0)
(0,0,0)
(0,0,0)
(0,0,0)
(0,0,0)
(0,0,0)
(0,0,0)
(0,0,0)
(0,0,0)
(0,0,0)
(0,0,0)
(0,0,0)
(0,0,0)
(0,0,0)
(0,0,0)
(0,0,0)
(0,0,0)
(0,0,0)
(0,0,0)
(0,0,0)
(0,0,0)
(0,0,0)
(0,0,0)
(0,0,0)
(0,0,0)
(0,0,0)
(0,0,0)
(0,0,0)
(0,0,0)
(0,0,0)
(0,0,0)
(0,0,0)
(0,0,0)
(0,0,0)
(0,0,0)
(0,0,0)
(0,0,0)
(0,0,0)
(0,0,0)
(0,0,0)
(0,0,0)
(0,0,0)
(0,0,0)
(0,0,0)
(0,0,0)
(0,0,0)
(0,0,0)
(0,0,0)
(0,0,0)
(0,0,0)
(0,0,0)
(0,0,0)
(0,0,0)
(0,0,0)
(0,0,0)
(0,0,0)
(0,0,0)
(0,0,0)
(0,0,0)
(0,0,0)
(0,0,0)
(0,0,0)
(0,0,0)
(0,0,0)
(0,0,0)
(0,0,0)
(0,0,0)
(0,0,0)
(0,0,0)
(0,0,0)
(0,0,0)
(0,0,0)
(0,0,0)
(0,0,0)
(0,0,0)
(0,0,0)
(0,0,0)
(0,0,0)
(0,0,0)
(0,0,0)
(0,0,0)
(0,0,0)
(-341720.60512189,49600.0986353928,41898.8361271477)
(-355743.690443409,46621.2550134725,88098.489531939)
(-387483.642288843,40053.434695507,143362.479732129)
(-445435.912446305,28764.2285327556,213026.479391767)
(-544625.442651522,11585.1121416613,301417.405142723)
(-710237.355919639,-10624.5522098766,403873.783037623)
(-981133.694322793,-31053.2048995274,478780.747236679)
(-1410015.95425536,-35314.3056429216,356541.467351141)
(-2024984.09589667,-24278.0883663696,-583980.990214471)
(-2482421.59260718,-11118.9554192572,-4942840.34957345)
(0,0,0)
(0,0,0)
(0,0,0)
(0,0,0)
(0,0,0)
(0,0,0)
(-356473.645881686,104051.506866216,38916.0081291654)
(-370280.376694268,98452.2189121419,81513.4781985599)
(-401681.062297108,85863.3201551513,132030.349904763)
(-459690.969651813,63420.9311637381,195831.483615647)
(-560436.458782618,27154.0813168967,279113.887625816)
(-730590.9154548,-24502.6257633538,383310.789391472)
(-1007860.85809993,-78365.035921622,474433.474959134)
(-1432604.99104007,-87487.8099149103,367490.789837261)
(-2036314.95335716,-54340.3895753802,-570938.232242409)
(-2486431.54146138,-22748.8966884112,-4931849.71014749)
(0,0,0)
(0,0,0)
(0,0,0)
(0,0,0)
(0,0,0)
(0,0,0)
(-389578.80431576,167937.367464223,33205.8957098103)
(-402943.36736713,160533.857268124,68762.967126896)
(-433802.189069672,143589.48299482,109420.095092918)
(-492379.930263639,112041.639144645,159441.191834664)
(-598395.030380301,56617.9091057393,227290.188921312)
(-786122.062580326,-34797.8940602721,329253.493230789)
(-1097371.1308493,-153674.405010899,465143.570725752)
(-1510986.97644769,-170326.358711253,400480.301063662)
(-2070711.62738562,-87247.5036281782,-539536.744625253)
(-2497456.51082712,-30572.5084520441,-4909332.17713466)
(0,0,0)
(0,0,0)
(0,0,0)
(0,0,0)
(0,0,0)
(0,0,0)
(-449069.619640393,244579.002993403,25684.4718824606)
(-461735.105277173,236762.407802764,51620.2451651665)
(-491726.338066661,218824.440202807,77679.7271919975)
(-551475.551087838,184816.92957913,103832.624444944)
(-669287.96473384,121344.660421255,135690.06047904)
(-908484.154236075,1.99558834883669,210175.025057326)
(-1375489.44529781,-214730.146738302,448227.568764602)
(-1767528.94943592,-248366.892556799,483267.828655842)
(-2156873.26012931,-86111.922174372,-483133.750439139)
(-2521098.77610108,-18789.9548894453,-4879037.83668847)
(0,0,0)
(0,0,0)
(0,0,0)
(0,0,0)
(0,0,0)
(0,0,0)
(-549084.641444981,333473.455857233,17774.6053673485)
(-560714.633635652,326782.293732081,33507.6012315075)
(-589060.311395525,311958.06542281,43449.478184468)
(-648817.987685446,285614.761467478,40124.3993419563)
(-780545.656518857,241747.853646229,14128.9215180074)
(-1117945.40731876,174623.285351876,-4787.88780326889)
(-2220986.78476656,98030.4693875334,414255.318337543)
(-2635242.03556076,63543.4282248019,645193.681060993)
(-2325821.13711659,55867.9704749378,-416123.326203194)
(-2559861.04356064,35419.2071498505,-4860530.19581413)
(0,0,0)
(0,0,0)
(0,0,0)
(0,0,0)
(0,0,0)
(0,0,0)
(-713944.912269099,423793.069565463,11033.823986608)
(-724135.363953469,419084.487983129,18576.5011344539)
(-749552.311748273,409302.434962438,16927.5462712229)
(-805094.215247949,393542.099348811,-3912.02039417809)
(-933118.270465901,369836.801274467,-53196.5362271117)
(-1269655.49334947,334410.791068028,-81611.5654443525)
(-2318885.89025815,284125.650932665,379342.845429068)
(-2697960.96473728,255316.16510511,637169.839397493)
(-2404347.34880948,184429.142842474,-436892.072556863)
(-2598557.4127407,91884.5564665995,-4896245.1868149)
(0,0,0)
(0,0,0)
(0,0,0)
(0,0,0)
(0,0,0)
(0,0,0)
(-983441.838059967,472678.911358762,6281.16098699088)
(-991840.596827818,470051.624914424,8713.72973807106)
(-1013217.57551603,465571.283687078,1028.16736232031)
(-1061611.19599403,461104.508862985,-27773.1728320206)
(-1179132.03237691,460105.993215724,-88825.9473908194)
(-1508703.26872115,464927.107636495,-132078.257602762)
(-2603194.86490557,465948.426597514,350392.527006548)
(-2953610.81832449,534011.997017433,566086.43693749)
(-2523269.97976555,298417.326651545,-529609.60083657)
(-2662431.81395886,123860.023202072,-4988289.46610495)
(0,0,0)
(0,0,0)
(0,0,0)
(0,0,0)
(0,0,0)
(0,0,0)
(-1413526.42703971,323464.568806099,3618.99571068744)
(-1419875.14378759,322267.02583529,4134.52584045804)
(-1436209.37164848,321424.36308324,-3531.85371584493)
(-1474167.43502688,325547.092500104,-28859.9348068835)
(-1571408.38953431,347097.707064784,-84159.0985513594)
(-1873769.1443976,415688.535179284,-131161.745351772)
(-3069314.64401806,562798.761941281,418388.340265545)
(-2501932.3945333,361681.466422163,330381.074174107)
(-2618128.91936948,133214.009019848,-704259.7240244)
(-2761358.47035776,1064.85162809497,-5112249.91152541)
(0,0,0)
(0,0,0)
(0,0,0)
(0,0,0)
(0,0,0)
(0,0,0)
(-2030407.61508978,-633412.112704509,2322.69722973388)
(-2034552.02489374,-634385.648231408,3137.83372595117)
(-2045027.11723303,-635264.241598734,499.080871777923)
(-2068378.02116217,-633333.780914094,-7370.03807679756)
(-2121948.43460314,-623289.250997838,-15662.8247902656)
(-2250153.51990715,-599673.204733083,15877.4037845196)
(-2530512.0791118,-582441.771861248,217214.094897885)
(-2622472.6594169,-712812.878582157,101881.25936554)
(-2863827.50528251,-830920.474659907,-836406.134733641)
(-2909191.92487382,-722472.446520057,-5113340.14608504)
(0,0,0)
(0,0,0)
(0,0,0)
(0,0,0)
(0,0,0)
(0,0,0)
(-2486536.16748588,-4998851.91443574,1275.96463746632)
(-2488564.86050927,-5000085.59291939,2137.31998569652)
(-2493586.48332661,-5002116.46122018,2308.82560628806)
(-2504385.90511678,-5004254.17852716,2567.97765336602)
(-2527408.59621849,-5006688.5973152,7889.82123928525)
(-2575698.54372955,-5014583.42961576,33081.2322547045)
(-2664974.27721092,-5047636.02064937,86839.5299881915)
(-2764338.55801058,-5134460.90889809,-16185.9045389413)
(-2910077.39335779,-5118369.13127655,-727843.880559062)
(-2808356.09061629,-4390700.91187366,-4390780.01999619)
(0,0,0)
(0,0,0)
(0,0,0)
(0,0,0)
(0,0,0)
(0,0,0)
(0,0,0)
(0,0,0)
(0,0,0)
(0,0,0)
(0,0,0)
(0,0,0)
(0,0,0)
(0,0,0)
(0,0,0)
(0,0,0)
(0,0,0)
(0,0,0)
(0,0,0)
(0,0,0)
(0,0,0)
(0,0,0)
(0,0,0)
(0,0,0)
(0,0,0)
(0,0,0)
(0,0,0)
(0,0,0)
(0,0,0)
(0,0,0)
(0,0,0)
(0,0,0)
(0,0,0)
(0,0,0)
(0,0,0)
(0,0,0)
(0,0,0)
(0,0,0)
(0,0,0)
(0,0,0)
(0,0,0)
(0,0,0)
(0,0,0)
(0,0,0)
(0,0,0)
(0,0,0)
(0,0,0)
(0,0,0)
(0,0,0)
(0,0,0)
(0,0,0)
(0,0,0)
(0,0,0)
(0,0,0)
(0,0,0)
(0,0,0)
(0,0,0)
(0,0,0)
(0,0,0)
(0,0,0)
(0,0,0)
(0,0,0)
(0,0,0)
(0,0,0)
(0,0,0)
(0,0,0)
(0,0,0)
(0,0,0)
(0,0,0)
(0,0,0)
(0,0,0)
(0,0,0)
(0,0,0)
(0,0,0)
(0,0,0)
(0,0,0)
(0,0,0)
(0,0,0)
(0,0,0)
(0,0,0)
(0,0,0)
(0,0,0)
(0,0,0)
(0,0,0)
(0,0,0)
(0,0,0)
(0,0,0)
(0,0,0)
(0,0,0)
(0,0,0)
(0,0,0)
(0,0,0)
(0,0,0)
(0,0,0)
(0,0,0)
(0,0,0)
(0,0,0)
(0,0,0)
(0,0,0)
(0,0,0)
(0,0,0)
(0,0,0)
(-404054.93029793,34618.9972273124,27715.3279487285)
(-415971.665303023,31873.6288058591,56069.6740024829)
(-442214.244438348,25639.8418535613,85160.4342984287)
(-488124.324667419,14318.707553985,113530.138965555)
(-562257.770402594,-4357.06322834647,135519.529944977)
(-676330.867772842,-31061.4815995298,132674.52339771)
(-840321.904452166,-57829.0688783111,49691.8024053964)
(-1043760.72879297,-57938.9376321998,-258624.485424793)
(-1206488.15413682,-35612.865493085,-1041507.56169155)
(-1048417.11434856,-15114.4333099527,-2460397.60664022)
(0,0,0)
(0,0,0)
(0,0,0)
(0,0,0)
(0,0,0)
(0,0,0)
(-417492.397863163,70648.7939731028,24988.9552356861)
(-428735.101801339,65504.0731096153,49813.2360389976)
(-453498.092454222,53494.5160852431,73775.59196443)
(-496975.377374712,30520.997514058,94857.7097272557)
(-567765.323231225,-10938.3865264765,108767.897473991)
(-678596.287896636,-80090.1375522092,105801.925868513)
(-841542.602668131,-167863.896141715,49518.4977001255)
(-1038811.90045634,-165844.367432011,-236369.16308379)
(-1198482.05260803,-88706.0348145858,-1021108.89451142)
(-1043504.9671838,-33758.9100133986,-2445390.99208558)
(0,0,0)
(0,0,0)
(0,0,0)
(0,0,0)
(0,0,0)
(0,0,0)
(-447030.254426862,108332.96332022,19767.280763988)
(-456967.643613877,101628.91096563,37666.7191547176)
(-478845.966327321,85553.2169620998,50651.7955355077)
(-517320.657876437,52811.9189758169,53301.6016865498)
(-581073.393258142,-14400.261685338,39441.83972325)
(-687395.16948199,-157210.812747256,17835.6218199517)
(-867005.6733699,-431779.077426412,51385.3456252488)
(-1039222.73930506,-426840.003418406,-159383.255530992)
(-1179114.23385731,-173364.311728271,-966322.372145613)
(-1031526.91334135,-54199.1225246486,-2411811.75712014)
(0,0,0)
(0,0,0)
(0,0,0)
(0,0,0)
(0,0,0)
(0,0,0)
(-498231.027155305,144525.807938821,12968.5628963157)
(-506338.611806712,137757.480377214,21443.5000142729)
(-523958.330355584,121478.954229341,17749.755035957)
(-554269.733513662,87468.5856834036,-14112.7292458068)
(-604218.969010756,10054.9146571055,-103636.901311329)
(-702900.753150093,-209470.096288108,-256961.018856465)
(-1060085.87820226,-1060224.17954632,56080.5161678909)
(-1116050.92274602,-1116038.96450485,93801.4505644348)
(-1134054.0384518,-254978.296740672,-847403.786100675)
(-1007329.98728275,-57501.6992197536,-2357869.9982239)
(0,0,0)
(0,0,0)
(0,0,0)
(0,0,0)
(0,0,0)
(0,0,0)
(-579264.502420432,168600.895265778,6104.77364849517)
(-585232.899371492,163364.268992035,5016.25076951418)
(-597554.439013441,151479.757083461,-16490.4244666891)
(-615381.176591642,129329.552521871,-91788.2023989601)
(-627968.835387269,89138.6955505805,-323448.804424025)
(-565802.138990869,22896.7849690895,-1107958.95400911)
(-8.71472222990963e-05,-2.27375513473124e-05,5.68922310102631e-05)