/*--------------------------------*- C++ -*----------------------------------*\
| =========                 |                                                 |
| \\      /  F ield         | foam-extend: Open Source CFD                    |
|  \\    /   O peration     | Version:     4.0                                |
|   \\  /    A nd           | Web:         http://www.foam-extend.org         |
|    \\/     M anipulation  |                                                 |
\*---------------------------------------------------------------------------*/
FoamFile
{
    version 2.0;
    format ascii;
    class volVectorField;
    location "Data/1706";
    object      E;
}
// * * * * * * * * * * * * * * * * * * * * * * * * * * * * * * * * * * * * * //

dimensions      [0 1 -1 0 0 0 0];

internalField   nonuniform List<vector>
4096
(
(0,0,0)
(0,0,0)
(0,0,0)
(0,0,0)
(0,0,0)
(0,0,0)
(0,0,0)
(0,0,0)
(0,0,0)
(0,0,0)
(0,0,0)
(0,0,0)
(0,0,0)
(0,0,0)
(0,0,0)
(0,0,0)
(0,0,0)
(0,0,0)
(0,0,0)
(0,0,0)
(0,0,0)
(0,0,0)
(0,0,0)
(0,0,0)
(0,0,0)
(0,0,0)
(0,0,0)
(0,0,0)
(0,0,0)
(0,0,0)
(0,0,0)
(0,0,0)
(0,0,0)
(0,0,0)
(0,0,0)
(0,0,0)
(0,0,0)
(0,0,0)
(0,0,0)
(0,0,0)
(0,0,0)
(0,0,0)
(0,0,0)
(0,0,0)
(0,0,0)
(0,0,0)
(0,0,0)
(0,0,0)
(0,0,0)
(0,0,0)
(0,0,0)
(0,0,0)
(0,0,0)
(0,0,0)
(0,0,0)
(0,0,0)
(0,0,0)
(0,0,0)
(0,0,0)
(0,0,0)
(0,0,0)
(0,0,0)
(0,0,0)
(0,0,0)
(0,0,0)
(0,0,0)
(0,0,0)
(0,0,0)
(0,0,0)
(0,0,0)
(0,0,0)
(0,0,0)
(0,0,0)
(0,0,0)
(0,0,0)
(0,0,0)
(0,0,0)
(0,0,0)
(0,0,0)
(0,0,0)
(0,0,0)
(0,0,0)
(0,0,0)
(0,0,0)
(0,0,0)
(0,0,0)
(0,0,0)
(0,0,0)
(0,0,0)
(0,0,0)
(0,0,0)
(0,0,0)
(0,0,0)
(0,0,0)
(0,0,0)
(0,0,0)
(0,0,0)
(0,0,0)
(0,0,0)
(0,0,0)
(0,0,0)
(0,0,0)
(0,0,0)
(0,0,0)
(0,0,0)
(0,0,0)
(0,0,0)
(0,0,0)
(0,0,0)
(0,0,0)
(0,0,0)
(0,0,0)
(0,0,0)
(0,0,0)
(0,0,0)
(0,0,0)
(0,0,0)
(0,0,0)
(0,0,0)
(0,0,0)
(0,0,0)
(0,0,0)
(0,0,0)
(0,0,0)
(0,0,0)
(0,0,0)
(0,0,0)
(0,0,0)
(0,0,0)
(0,0,0)
(0,0,0)
(0,0,0)
(0,0,0)
(0,0,0)
(0,0,0)
(0,0,0)
(0,0,0)
(0,0,0)
(0,0,0)
(0,0,0)
(0,0,0)
(0,0,0)
(0,0,0)
(0,0,0)
(0,0,0)
(0,0,0)
(0,0,0)
(0,0,0)
(0,0,0)
(0,0,0)
(0,0,0)
(0,0,0)
(0,0,0)
(0,0,0)
(0,0,0)
(0,0,0)
(0,0,0)
(0,0,0)
(0,0,0)
(0,0,0)
(0,0,0)
(0,0,0)
(0,0,0)
(0,0,0)
(0,0,0)
(0,0,0)
(0,0,0)
(0,0,0)
(0,0,0)
(0,0,0)
(0,0,0)
(0,0,0)
(0,0,0)
(0,0,0)
(0,0,0)
(0,0,0)
(0,0,0)
(0,0,0)
(0,0,0)
(0,0,0)
(0,0,0)
(0,0,0)
(0,0,0)
(0,0,0)
(0,0,0)
(0,0,0)
(0,0,0)
(0,0,0)
(0,0,0)
(0,0,0)
(0,0,0)
(0,0,0)
(0,0,0)
(0,0,0)
(0,0,0)
(0,0,0)
(0,0,0)
(0,0,0)
(0,0,0)
(0,0,0)
(0,0,0)
(0,0,0)
(0,0,0)
(0,0,0)
(0,0,0)
(0,0,0)
(0,0,0)
(0,0,0)
(0,0,0)
(0,0,0)
(0,0,0)
(0,0,0)
(0,0,0)
(0,0,0)
(0,0,0)
(0,0,0)
(0,0,0)
(0,0,0)
(0,0,0)
(0,0,0)
(0,0,0)
(0,0,0)
(0,0,0)
(0,0,0)
(0,0,0)
(0,0,0)
(0,0,0)
(0,0,0)
(0,0,0)
(0,0,0)
(0,0,0)
(0,0,0)
(0,0,0)
(0,0,0)
(0,0,0)
(0,0,0)
(0,0,0)
(0,0,0)
(0,0,0)
(0,0,0)
(0,0,0)
(0,0,0)
(0,0,0)
(0,0,0)
(0,0,0)
(0,0,0)
(0,0,0)
(0,0,0)
(0,0,0)
(0,0,0)
(0,0,0)
(0,0,0)
(0,0,0)
(0,0,0)
(0,0,0)
(0,0,0)
(0,0,0)
(0,0,0)
(0,0,0)
(0,0,0)
(0,0,0)
(0,0,0)
(0,0,0)
(0,0,0)
(0,0,0)
(0,0,0)
(0,0,0)
(0,0,0)
(0,0,0)
(0,0,0)
(0,0,0)
(0,0,0)
(0,0,0)
(0,0,0)
(0,0,0)
(0,0,0)
(0,0,0)
(0,0,0)
(0,0,0)
(0,0,0)
(0,0,0)
(0,0,0)
(0,0,0)
(0,0,0)
(0,0,0)
(0,0,0)
(0,0,0)
(0,0,0)
(0,0,0)
(0,0,0)
(0,0,0)
(0,0,0)
(0,0,0)
(0,0,0)
(0,0,0)
(0,0,0)
(0,0,0)
(0,0,0)
(0,0,0)
(0,0,0)
(0,0,0)
(0,0,0)
(0,0,0)
(0,0,0)
(0,0,0)
(0,0,0)
(0,0,0)
(0,0,0)
(0,0,0)
(0,0,0)
(0,0,0)
(0,0,0)
(0,0,0)
(0,0,0)
(0,0,0)
(0,0,0)
(0,0,0)
(0,0,0)
(0,0,0)
(0,0,0)
(0,0,0)
(0,0,0)
(0,0,0)
(0,0,0)
(0,0,0)
(0,0,0)
(0,0,0)
(0,0,0)
(0,0,0)
(0,0,0)
(0,0,0)
(0,0,0)
(0,0,0)
(0,0,0)
(0,0,0)
(0,0,0)
(0,0,0)
(0,0,0)
(0,0,0)
(0,0,0)
(0,0,0)
(0,0,0)
(0,0,0)
(0,0,0)
(0,0,0)
(0,0,0)
(0,0,0)
(0,0,0)
(0,0,0)
(0,0,0)
(0,0,0)
(0,0,0)
(0,0,0)
(0,0,0)
(0,0,0)
(0,0,0)
(0,0,0)
(0,0,0)
(0,0,0)
(0,0,0)
(0,0,0)
(0,0,0)
(0,0,0)
(0,0,0)
(0,0,0)
(0,0,0)
(0,0,0)
(0,0,0)
(0,0,0)
(0,0,0)
(0,0,0)
(0,0,0)
(0,0,0)
(0,0,0)
(0,0,0)
(0,0,0)
(0,0,0)
(0,0,0)
(0,0,0)
(0,0,0)
(0,0,0)
(0,0,0)
(0,0,0)
(0,0,0)
(0,0,0)
(0,0,0)
(0,0,0)
(0,0,0)
(0,0,0)
(0,0,0)
(0,0,0)
(0,0,0)
(0,0,0)
(0,0,0)
(0,0,0)
(0,0,0)
(0,0,0)
(0,0,0)
(0,0,0)
(0,0,0)
(0,0,0)
(0,0,0)
(0,0,0)
(0,0,0)
(0,0,0)
(0,0,0)
(0,0,0)
(0,0,0)
(0,0,0)
(0,0,0)
(0,0,0)
(0,0,0)
(0,0,0)
(0,0,0)
(0,0,0)
(0,0,0)
(0,0,0)
(0,0,0)
(0,0,0)
(0,0,0)
(0,0,0)
(0,0,0)
(0,0,0)
(0,0,0)
(0,0,0)
(0,0,0)
(0,0,0)
(0,0,0)
(0,0,0)
(0,0,0)
(0,0,0)
(0,0,0)
(0,0,0)
(0,0,0)
(0,0,0)
(0,0,0)
(0,0,0)
(0,0,0)
(0,0,0)
(0,0,0)
(0,0,0)
(0,0,0)
(0,0,0)
(0,0,0)
(0,0,0)
(0,0,0)
(0,0,0)
(0,0,0)
(0,0,0)
(0,0,0)
(0,0,0)
(0,0,0)
(0,0,0)
(0,0,0)
(0,0,0)
(0,0,0)
(0,0,0)
(0,0,0)
(0,0,0)
(0,0,0)
(0,0,0)
(0,0,0)
(0,0,0)
(0,0,0)
(0,0,0)
(0,0,0)
(0,0,0)
(0,0,0)
(0,0,0)
(0,0,0)
(0,0,0)
(0,0,0)
(0,0,0)
(0,0,0)
(0,0,0)
(0,0,0)
(0,0,0)
(0,0,0)
(0,0,0)
(0,0,0)
(0,0,0)
(0,0,0)
(0,0,0)
(0,0,0)
(0,0,0)
(0,0,0)
(0,0,0)
(0,0,0)
(0,0,0)
(0,0,0)
(0,0,0)
(0,0,0)
(0,0,0)
(0,0,0)
(0,0,0)
(0,0,0)
(0,0,0)
(0,0,0)
(0,0,0)
(0,0,0)
(0,0,0)
(0,0,0)
(0,0,0)
(0,0,0)
(0,0,0)
(0,0,0)
(0,0,0)
(0,0,0)
(0,0,0)
(0,0,0)
(0,0,0)
(0,0,0)
(0,0,0)
(0,0,0)
(0,0,0)
(0,0,0)
(0,0,0)
(0,0,0)
(0,0,0)
(0,0,0)
(0,0,0)
(0,0,0)
(0,0,0)
(0,0,0)
(0,0,0)
(0,0,0)
(0,0,0)
(0,0,0)
(0,0,0)
(0,0,0)
(0,0,0)
(0,0,0)
(0,0,0)
(0,0,0)
(0,0,0)
(0,0,0)
(0,0,0)
(0,0,0)
(0,0,0)
(0,0,0)
(0,0,0)
(0,0,0)
(0,0,0)
(0,0,0)
(0,0,0)
(0,0,0)
(0,0,0)
(0,0,0)
(0,0,0)
(0,0,0)
(0,0,0)
(0,0,0)
(0,0,0)
(0,0,0)
(0,0,0)
(0,0,0)
(0,0,0)
(0,0,0)
(0,0,0)
(0,0,0)
(0,0,0)
(0,0,0)
(0,0,0)
(0,0,0)
(0,0,0)
(0,0,0)
(0,0,0)
(0,0,0)
(0,0,0)
(0,0,0)
(0,0,0)
(0,0,0)
(0,0,0)
(0,0,0)
(0,0,0)
(0,0,0)
(0,0,0)
(0,0,0)
(0,0,0)
(0,0,0)
(0,0,0)
(0,0,0)
(0,0,0)
(0,0,0)
(0,0,0)
(0,0,0)
(0,0,0)
(0,0,0)
(0,0,0)
(0,0,0)
(0,0,0)
(0,0,0)
(0,0,0)
(0,0,0)
(0,0,0)
(0,0,0)
(0,0,0)
(0,0,0)
(0,0,0)
(0,0,0)
(0,0,0)
(0,0,0)
(0,0,0)
(0,0,0)
(0,0,0)
(0,0,0)
(0,0,0)
(0,0,0)
(0,0,0)
(0,0,0)
(0,0,0)
(0,0,0)
(0,0,0)
(0,0,0)
(0,0,0)
(0,0,0)
(0,0,0)
(0,0,0)
(0,0,0)
(0,0,0)
(0,0,0)
(0,0,0)
(0,0,0)
(0,0,0)
(0,0,0)
(0,0,0)
(0,0,0)
(0,0,0)
(0,0,0)
(0,0,0)
(0,0,0)
(0,0,0)
(0,0,0)
(0,0,0)
(0,0,0)
(0,0,0)
(0,0,0)
(0,0,0)
(0,0,0)
(0,0,0)
(0,0,0)
(0,0,0)
(0,0,0)
(0,0,0)
(0,0,0)
(0,0,0)
(0,0,0)
(0,0,0)
(0,0,0)
(0,0,0)
(0,0,0)
(0,0,0)
(0,0,0)
(0,0,0)
(0,0,0)
(0,0,0)
(0,0,0)
(0,0,0)
(0,0,0)
(0,0,0)
(0,0,0)
(0,0,0)
(0,0,0)
(0,0,0)
(0,0,0)
(0,0,0)
(0,0,0)
(0,0,0)
(0,0,0)
(0,0,0)
(0,0,0)
(0,0,0)
(0,0,0)
(0,0,0)
(0,0,0)
(0,0,0)
(0,0,0)
(0,0,0)
(0,0,0)
(0,0,0)
(0,0,0)
(0,0,0)
(0,0,0)
(0,0,0)
(0,0,0)
(0,0,0)
(0,0,0)
(0,0,0)
(0,0,0)
(0,0,0)
(0,0,0)
(0,0,0)
(0,0,0)
(0,0,0)
(0,0,0)
(0,0,0)
(0,0,0)
(0,0,0)
(0,0,0)
(0,0,0)
(0,0,0)
(0,0,0)
(0,0,0)
(0,0,0)
(0,0,0)
(0,0,0)
(0,0,0)
(0,0,0)
(0,0,0)
(0,0,0)
(0,0,0)
(0,0,0)
(0,0,0)
(0,0,0)
(0,0,0)
(0,0,0)
(0,0,0)
(0,0,0)
(0,0,0)
(0,0,0)
(0,0,0)
(0,0,0)
(0,0,0)
(0,0,0)
(0,0,0)
(0,0,0)
(0,0,0)
(0,0,0)
(0,0,0)
(0,0,0)
(0,0,0)
(0,0,0)
(0,0,0)
(0,0,0)
(0,0,0)
(0,0,0)
(0,0,0)
(0,0,0)
(0,0,0)
(0,0,0)
(0,0,0)
(0,0,0)
(0,0,0)
(0,0,0)
(0,0,0)
(0,0,0)
(0,0,0)
(0,0,0)
(0,0,0)
(0,0,0)
(0,0,0)
(0,0,0)
(0,0,0)
(0,0,0)
(0,0,0)
(0,0,0)
(0,0,0)
(0,0,0)
(0,0,0)
(0,0,0)
(0,0,0)
(0,0,0)
(0,0,0)
(0,0,0)
(0,0,0)
(0,0,0)
(0,0,0)
(0,0,0)
(0,0,0)
(0,0,0)
(0,0,0)
(0,0,0)
(0,0,0)
(0,0,0)
(0,0,0)
(0,0,0)
(0,0,0)
(0,0,0)
(0,0,0)
(0,0,0)
(0,0,0)
(0,0,0)
(0,0,0)
(0,0,0)
(0,0,0)
(0,0,0)
(0,0,0)
(0,0,0)
(0,0,0)
(0,0,0)
(0,0,0)
(0,0,0)
(0,0,0)
(0,0,0)
(0,0,0)
(0,0,0)
(0,0,0)
(0,0,0)
(0,0,0)
(0,0,0)
(0,0,0)
(0,0,0)
(0,0,0)
(0,0,0)
(0,0,0)
(0,0,0)
(0,0,0)
(0,0,0)
(0,0,0)
(0,0,0)
(0,0,0)
(0,0,0)
(0,0,0)
(0,0,0)
(0,0,0)
(0,0,0)
(0,0,0)
(0,0,0)
(0,0,0)
(-179269.985495115,95325.4467084347,83944.5387866786)
(-189568.869267543,91465.7877473209,182047.6203069)
(-213401.651427335,83320.1228335156,312129.148900721)
(-258475.538684901,70476.1662785846,500128.521307042)
(-339808.61263629,53136.1914481859,786800.942495152)
(-485829.293629415,33146.6503701002,1239483.58575446)
(-750233.761491975,14953.7886179214,1974763.55862854)
(-1228097.71701577,3810.79658964515,3199050.4790547)
(-2025510.96821583,86.5597746600984,5224474.88749584)
(-2822146.87360467,-245.096258906188,8046866.85735948)
(0,0,0)
(0,0,0)
(0,0,0)
(0,0,0)
(0,0,0)
(0,0,0)
(-189554.822110623,204883.075543263,79997.1932757918)
(-199955.579080568,197572.002962113,173846.557141573)
(-224155.465557364,182058.091956508,299264.05357594)
(-270268.857923149,157256.893496922,482752.184280757)
(-353875.261519258,122930.805579791,766832.8316684)
(-503415.828196052,82082.640680181,1221312.66955437)
(-770752.117302946,43414.072870948,1963604.50260429)
(-1246816.20354529,18919.0231341076,3195312.47960504)
(-2037990.76005098,9262.62287244782,5224127.17655828)
(-2827981.30997751,4730.41468466052,8047132.97559216)
(0,0,0)
(0,0,0)
(0,0,0)
(0,0,0)
(0,0,0)
(0,0,0)
(-213152.59516241,345469.88667661,72565.7840290635)
(-223716.038279088,335602.873633086,158250.951637181)
(-248671.051908803,314557.603675663,274422.491826833)
(-297083.814747505,280309.884313505,448453.315757756)
(-386026.442374587,231381.312533748,726029.251178376)
(-544837.040821198,170255.343481594,1182693.58919816)
(-821374.870468568,108347.185318562,1939135.34721913)
(-1293440.84618218,65820.8367668189,3185674.37976856)
(-2068023.03056945,43381.3857421488,5219578.64746835)
(-2841586.67373854,23503.7904173213,8042391.94547429)
(0,0,0)
(0,0,0)
(0,0,0)
(0,0,0)
(0,0,0)
(0,0,0)
(-257173.358144358,540055.045277356,62588.1995436142)
(-267908.342565862,528993.193618334,137106.22212423)
(-293832.920703376,505352.178283246,240144.568220015)
(-345597.424503917,466437.616210375,399614.260827055)
(-443350.147262264,409334.257698778,665011.462924294)
(-619967.289046367,334296.230752471,1120937.86469979)
(-918444.466994129,250997.139014927,1896732.37799755)
(-1383720.71130149,182993.449752664,3163280.47631314)
(-2123097.81938157,130031.289325473,5199728.39211133)
(-2865610.13243663,69949.2828384832,8018893.03212693)
(0,0,0)
(0,0,0)
(0,0,0)
(0,0,0)
(0,0,0)
(0,0,0)
(-336087.199260392,824639.0518083,51503.192729446)
(-346779.637736451,813810.859528836,113465.164555392)
(-373218.584968528,790748.236192952,201287.691614217)
(-427776.205846301,752769.06508949,342732.448581402)
(-534623.580848484,696464.347362513,590225.939766157)
(-733293.687125488,619961.458504052,1037854.39914004)
(-1066296.29259577,526252.718451176,1828895.11229957)
(-1521206.46294039,422680.969150848,3110414.05584178)
(-2203149.73866727,303846.3926842,5139748.6911504)
(-2900342.42937515,161036.936355172,7949003.46700886)
(0,0,0)
(0,0,0)
(0,0,0)
(0,0,0)
(0,0,0)
(0,0,0)
(-478510.697378131,1262390.02863831,40759.7205481234)
(-488658.627361692,1252721.83731521,90507.3701234409)
(-514229.86943704,1232102.05703886,163383.418714575)
(-568262.309322021,1197826.57044949,286588.222676598)
(-676246.551212762,1145374.94323764,513924.178014232)
(-878699.638203403,1068240.18518659,944345.089535112)
(-1212738.67583047,957837.28566193,1725499.19815485)
(-1647024.14336755,803455.511237406,2991748.79943584)
(-2289888.7953036,588317.181130071,4997166.80629363)
(-2944048.32888035,314064.649882496,7788187.4216465)
(0,0,0)
(0,0,0)
(0,0,0)
(0,0,0)
(0,0,0)
(0,0,0)
(-739904.738287887,1971125.04197027,31169.7249559293)
(-748903.452256525,1962755.4356237,70039.578903967)
(-771875.575751144,1944760.58418838,129256.627505594)
(-821251.440482778,1914074.4066419,234260.231795958)
(-921569.86327956,1864343.50496938,436861.533343781)
(-1111794.90295056,1782857.17070493,834039.450776004)
(-1425295.85162961,1645910.60936868,1571261.97869888)
(-1820195.7508143,1418099.51677621,2776813.72397438)
(-2419138.53890274,1061066.62115515,4723202.82285197)
(-3015366.22462649,578145.718774724,7474487.97858633)
(0,0,0)
(0,0,0)
(0,0,0)
(0,0,0)
(0,0,0)
(0,0,0)
(-1217987.83955372,3166255.81001041,22857.0715135719)
(-1225193.80147078,3158620.46305897,52185.8455490973)
(-1243719.35783253,3141873.24376438,98792.5438056406)
(-1283883.30513614,3112009.53487247,184740.720711204)
(-1366351.62155832,3059957.82390243,355478.023336475)
(-1524506.05641933,2965638.8851617,697202.365299017)
(-1787062.70221418,2786572.94806169,1343602.72882017)
(-2106748.71435505,2448425.18179909,2420025.77815235)
(-2653729.39986286,1894218.56652805,4240603.23264232)
(-3151677.27490085,1073691.27513735,6896734.95118049)
(0,0,0)
(0,0,0)
(0,0,0)
(0,0,0)
(0,0,0)
(0,0,0)
(-2018598.20318064,5169528.1132801,15325.8999109151)
(-2023519.69332989,5161868.08803588,35597.9682639078)
(-2036119.76001037,5144442.21957199,69148.7524666291)
(-2063119.81973342,5111368.29006782,132909.81700468)
(-2117609.8411987,5049216.36251912,261261.119586688)
(-2219976.45157261,4928695.48922125,518180.967099743)
(-2391863.04971742,4691106.94824896,1005510.0166299)
(-2647200.88539095,4235141.29788625,1865994.7859337)
(-3086362.79362369,3426261.17572709,3420314.97035828)
(-3389383.07489815,2060053.8001197,5823335.5202741)
(0,0,0)
(0,0,0)
(0,0,0)
(0,0,0)
(0,0,0)
(0,0,0)
(-2818957.88253793,7980700.34406113,7785.65175693385)
(-2821433.48767147,7972759.71304975,18327.5144145212)
(-2827699.42644443,7954208.34612112,36260.8143098682)
(-2840949.28644319,7917671.05507281,70907.3357481161)
(-2867340.98700066,7846595.91287915,140868.772388771)
(-2916646.73930893,7705556.51127864,280654.489640315)
(-3002672.262165,7424814.93975815,549618.760296123)
(-3147609.78940972,6875128.0406809,1057241.80691115)
(-3388591.83582847,5817822.9983318,2054271.82013486)
(-3412631.10785812,3763490.70770778,3763466.02040493)
(0,0,0)
(0,0,0)
(0,0,0)
(0,0,0)
(0,0,0)
(0,0,0)
(0,0,0)
(0,0,0)
(0,0,0)
(0,0,0)
(0,0,0)
(0,0,0)
(0,0,0)
(0,0,0)
(0,0,0)
(0,0,0)
(0,0,0)
(0,0,0)
(0,0,0)
(0,0,0)
(0,0,0)
(0,0,0)
(0,0,0)
(0,0,0)
(0,0,0)
(0,0,0)
(0,0,0)
(0,0,0)
(0,0,0)
(0,0,0)
(0,0,0)
(0,0,0)
(0,0,0)
(0,0,0)
(0,0,0)
(0,0,0)
(0,0,0)
(0,0,0)
(0,0,0)
(0,0,0)
(0,0,0)
(0,0,0)
(0,0,0)
(0,0,0)
(0,0,0)
(0,0,0)
(0,0,0)
(0,0,0)
(0,0,0)
(0,0,0)
(0,0,0)
(0,0,0)
(0,0,0)
(0,0,0)
(0,0,0)
(0,0,0)
(0,0,0)
(0,0,0)
(0,0,0)
(0,0,0)
(0,0,0)
(0,0,0)
(0,0,0)
(0,0,0)
(0,0,0)
(0,0,0)
(0,0,0)
(0,0,0)
(0,0,0)
(0,0,0)
(0,0,0)
(0,0,0)
(0,0,0)
(0,0,0)
(0,0,0)
(0,0,0)
(0,0,0)
(0,0,0)
(0,0,0)
(0,0,0)
(0,0,0)
(0,0,0)
(0,0,0)
(0,0,0)
(0,0,0)
(0,0,0)
(0,0,0)
(0,0,0)
(0,0,0)
(0,0,0)
(0,0,0)
(0,0,0)
(0,0,0)
(0,0,0)
(0,0,0)
(0,0,0)
(0,0,0)
(0,0,0)
(0,0,0)
(0,0,0)
(0,0,0)
(0,0,0)
(26466571.489932,84982.4193496974,73610.7594864767)
(26449369.3519646,81000.1632052239,158107.029312393)
(26409754.4411353,72476.2509061227,266909.340106805)
(26335648.5859062,58574.1278763732,418645.741902548)
(26203645.9648025,38982.7203429485,640643.09838405)
(25968838.9245534,15495.101745107,974914.432719262)
(25537989.7872864,-5602.27498417084,1496727.81318824)
(24686522.9146025,-14912.5023704109,2401454.33820359)
(22765203.6455528,-12394.547726029,4427568.92642423)
(17547259.5216464,-6079.2403424092,10868676.4257788)
(0,0,0)
(0,0,0)
(0,0,0)
(0,0,0)
(0,0,0)
(0,0,0)
(26449026.7760079,181259.3439018,69576.1315926961)
(26431794.6267432,173729.099744293,149531.643493106)
(26391836.3446251,157443.760721232,253006.977758751)
(26316360.0125467,130333.291291142,399053.598137334)
(26180727.3211653,90667.7421817562,617200.647877259)
(25939307.9172577,40548.8478810673,953857.810550854)
(25501845.2357456,-7297.17112802726,1487390.00790948)
(24653897.6835117,-27734.9629843959,2403933.23572968)
(22744919.5905817,-20788.7839988137,4433851.77563294)
(17538375.0441317,-8884.40490145468,10874735.240346)
(0,0,0)
(0,0,0)
(0,0,0)
(0,0,0)
(0,0,0)
(0,0,0)
(26409137.4624333,301432.282601243,61971.6579680125)
(26391873.7236721,291362.036606328,133183.613418053)
(26351163.1924684,269334.83627659,225892.947748858)
(26272405.4449031,231724.63182216,359447.001830524)
(26127389.7333541,173980.199231919,567153.023314908)
(25866166.9032511,95061.3286283435,906071.252758593)
(25403645.1741238,11243.5369121665,1466945.1543893)
(24563759.2766139,-24447.4867237274,2410892.20959593)
(22692489.3533751,-11698.9688898598,4445724.66480563)
(17516624.9337944,-514.438573948495,10883577.7452085)
(0,0,0)
(0,0,0)
(0,0,0)
(0,0,0)
(0,0,0)
(0,0,0)
(26335755.9053533,461116.369623226,51821.3037435882)
(26318518.5998024,450096.411622012,111094.640622985)
(26276819.0139299,425917.865108689,188294.331420891)
(26192895.2170425,384154.395496953,301806.580462996)
(26030577.5659654,317944.160956245,488349.559774263)
(25724605.8160389,220878.762904003,822393.674676658)
(25185169.1842799,103103.378543248,1431354.8360348)
(24358388.8858534,45522.666895139,2423709.73952434)
(22586455.0699483,49979.590983145,4456912.94458455)
(17475899.3987476,35235.5513042062,10884088.0777855)
(0,0,0)
(0,0,0)
(0,0,0)
(0,0,0)
(0,0,0)
(0,0,0)
(26206586.1369785,682115.603507419,40762.0841402114)
(26189742.9976346,671839.470074899,86931.0445794929)
(26147819.8364009,649621.043019557,146624.099562511)
(26059483.9436045,612140.436243447,235812.563628441)
(25877335.7194419,554717.144948118,391514.933609451)
(25504265.2684724,474468.847889333,704800.547289522)
(24792332.6887096,379783.532974339,1373926.06581628)
(23977528.0552302,296852.401766401,2428296.46703779)
(22420216.1527834,217087.909979112,4442256.91085424)
(17415298.7027879,117336.305244606,10848949.6790141)
(0,0,0)
(0,0,0)
(0,0,0)
(0,0,0)
(0,0,0)
(0,0,0)
(25976720.5235999,1000769.54570368,30549.4910889629)
(25961031.7244236,992285.295527347,64847.9681145259)
(25921112.8344946,974290.005427532,109270.956038221)
(25834371.2014343,944685.738052773,178526.797735973)
(25650088.4818168,899950.160197094,311393.403720662)
(25266306.9034349,835064.009674318,610226.354560636)
(24545325.838517,745229.719070173,1291150.30838058)
(23766458.1726133,630227.936799171,2348727.11163007)
(22278600.3294537,459038.078451981,4342722.47266322)
(17345827.940284,242759.171006345,10731857.9920004)
(0,0,0)
(0,0,0)
(0,0,0)
(0,0,0)
(0,0,0)
(0,0,0)
(25550382.5429898,1492783.4917834,22133.4269058876)
(25536710.0499426,1486226.53703265,47013.3374647793)
(25501323.2851931,1472704.49097212,79834.6452393589)
(25422573.1472018,1451236.48987315,133893.959997705)
(25250730.687696,1419420.89769916,246557.325783407)
(24883741.5799801,1370061.28368668,520458.223103643)
(24184445.8994623,1284083.87130463,1176296.97404055)
(23481516.6596645,1131480.48415304,2177766.6704712)
(22068944.0686558,826419.267400944,4126737.52822678)
(17227312.7510568,441799.085231711,10489453.2925815)
(0,0,0)
(0,0,0)
(0,0,0)
(0,0,0)
(0,0,0)
(0,0,0)
(24698210.9863654,2365382.4983647,15636.8217629058)
(24687419.5541767,2360048.07753879,33636.5798725962)
(24659217.203953,2349246.54240771,58592.6209147043)
(24595594.6948189,2332536.34947234,102249.415623842)
(24453983.9825022,2308495.66629353,197273.697232045)
(24142652.6192179,2270033.68297372,434577.276571112)
(23530545.6371583,2181660.18879149,1023827.27397495)
(23072203.1553833,1907849.77129027,1872940.77136248)
(21646159.6051001,1461478.10725324,3742427.58081043)
(16953092.5015822,835904.587185981,10047986.9566364)
(0,0,0)
(0,0,0)
(0,0,0)
(0,0,0)
(0,0,0)
(0,0,0)
(22771997.4370416,4368825.51495666,10395.9974491221)
(22764719.2387308,4363650.87983427,22988.9173563159)
(22745867.098036,4352580.78145803,42102.4745228651)
(22704255.8982875,4333283.31039068,78414.4498468789)
(22615603.2895311,4299239.88607622,158891.753597568)
(22435301.9810996,4231808.32898607,346273.329176239)
(22110321.9893652,4080086.80404849,750096.329099976)
(21653885.6818712,3734557.54081238,1426736.64657906)
(20365279.7820225,3123896.84423185,3117109.98821751)
(16118978.7171187,2036711.61581323,9212375.82183662)
(0,0,0)
(0,0,0)
(0,0,0)
(0,0,0)
(0,0,0)
(0,0,0)
(17549739.1741499,10799239.4475957,5323.6649363871)
(17546101.470626,10793804.7147357,12069.5260007445)
(17536849.8108551,10781547.0455973,22988.6788252695)
(17516885.2865588,10758335.2145819,44536.8558954558)
(17475669.7307685,10713626.5212316,91574.1572342653)
(17394637.3845411,10621908.4920422,194624.524591429)
(17244632.6359938,10427193.4886251,404647.596119332)
(16957383.5197584,10022456.293454,816190.188572865)
(16119622.8979085,9206190.0091834,2030116.94414767)
(13106723.9042138,7175999.22015582,7175908.98199626)
(0,0,0)
(0,0,0)
(0,0,0)
(0,0,0)
(0,0,0)
(0,0,0)
(0,0,0)
(0,0,0)
(0,0,0)
(0,0,0)
(0,0,0)
(0,0,0)
(0,0,0)
(0,0,0)
(0,0,0)
(0,0,0)
(0,0,0)
(0,0,0)
(0,0,0)
(0,0,0)
(0,0,0)
(0,0,0)
(0,0,0)
(0,0,0)
(0,0,0)
(0,0,0)
(0,0,0)
(0,0,0)
(0,0,0)
(0,0,0)
(0,0,0)
(0,0,0)
(0,0,0)
(0,0,0)
(0,0,0)
(0,0,0)
(0,0,0)
(0,0,0)
(0,0,0)
(0,0,0)
(0,0,0)
(0,0,0)
(0,0,0)
(0,0,0)
(0,0,0)
(0,0,0)
(0,0,0)
(0,0,0)
(0,0,0)
(0,0,0)
(0,0,0)
(0,0,0)
(0,0,0)
(0,0,0)
(0,0,0)
(0,0,0)
(0,0,0)
(0,0,0)
(0,0,0)
(0,0,0)
(0,0,0)
(0,0,0)
(0,0,0)
(0,0,0)
(0,0,0)
(0,0,0)
(0,0,0)
(0,0,0)
(0,0,0)
(0,0,0)
(0,0,0)
(0,0,0)
(0,0,0)
(0,0,0)
(0,0,0)
(0,0,0)
(0,0,0)
(0,0,0)
(0,0,0)
(0,0,0)
(0,0,0)
(0,0,0)
(0,0,0)
(0,0,0)
(0,0,0)
(0,0,0)
(0,0,0)
(0,0,0)
(0,0,0)
(0,0,0)
(0,0,0)
(0,0,0)
(0,0,0)
(0,0,0)
(0,0,0)
(0,0,0)
(0,0,0)
(0,0,0)
(0,0,0)
(0,0,0)
(0,0,0)
(0,0,0)
(-461445.087642259,67349.0763025856,56232.847008386)
(-480422.41466252,63316.6655094924,118273.293862726)
(-523398.902038916,54411.2848950537,192580.697878719)
(-601710.270213023,39104.0409563245,286400.858778399)
(-735822.311607442,15890.0281884803,405544.452736624)
(-959642.926248299,-14186.7713449558,543778.420620134)
(-1325734.57771794,-41855.4128917083,644923.544252964)
(-1905103.6546616,-47601.5325844086,479716.991838274)
(-2735873.88117267,-32712.5702493346,-790927.565450195)
(-3353729.39487232,-14985.1352051342,-6679388.16798944)
(0,0,0)
(0,0,0)
(0,0,0)
(0,0,0)
(0,0,0)
(0,0,0)
(-481562.174965098,141314.330168484,52189.0428437781)
(-500191.232856711,133687.350929762,109369.562760171)
(-542708.401297837,116578.699285548,177312.240029395)
(-621066.126299533,86154.0891974878,263253.676371262)
(-757219.175594634,37088.3197747561,375567.227281637)
(-987120.793803654,-32798.7417167612,516173.254451489)
(-1361802.0935743,-105649.26296339,639179.779579777)
(-1935582.39369432,-117979.610956605,494603.280894761)
(-2751144.5367199,-73268.2867886722,-773211.529527483)
(-3359121.84309197,-30664.6159528414,-6664469.81581929)
(0,0,0)
(0,0,0)
(0,0,0)
(0,0,0)
(0,0,0)
(0,0,0)
(-526526.195238878,227996.666941933,44546.6666355633)
(-544512.7045639,217913.610351234,92272.1811868251)
(-586230.329447889,194866.555209692,146943.192915599)
(-665316.284730242,152085.599700858,214298.757782284)
(-808489.079085982,77040.2507940477,305790.984939834)
(-1062089.01697624,-46584.6553556727,443398.164542825)
(-1482624.75697136,-207273.39121124,626857.569622576)
(-2041315.22330825,-229829.767746723,539347.572071457)
(-2797535.85948765,-117716.421334254,-730613.734783386)
(-3373999.76963151,-41226.1080046405,-6633862.19356896)
(0,0,0)
(0,0,0)
(0,0,0)
(0,0,0)
(0,0,0)
(0,0,0)
(-606904.926813451,331773.458317609,34449.3865278461)
(-623945.887785112,321143.76999062,69249.0602126329)
(-664492.61256634,296750.701826039,104241.885829245)
(-745191.430361889,250585.885326601,139393.593344573)
(-904304.036598801,164586.025160286,182294.767279282)
(-1227439.70252596,467.183143852455,282853.793081307)
(-1858332.73787385,-289760.400291561,604408.070052131)
(-2387665.85650122,-335308.965216222,651507.355612975)
(-2913840.21885745,-116216.61607416,-654131.815104491)
(-3405930.39879902,-25324.7681513935,-6592638.01167445)
(0,0,0)
(0,0,0)
(0,0,0)
(0,0,0)
(0,0,0)
(0,0,0)
(-741879.503532446,451997.7016884,23806.7428768514)
(-757532.089200659,442885.668337339,44905.2771021674)
(-795855.92166767,422690.805261783,58206.2774716748)
(-876609.21120827,386843.70382674,53606.959521081)
(-1054621.48450965,327344.303328807,18371.2310408443)
(-1510534.15065363,236439.397650385,-7236.21860294764)
(-3000869.33461152,132766.025301521,559004.724861841)
(-3559728.56645382,85788.2670866431,870729.459979678)
(-3142022.0521128,75461.93292153,-563145.538382945)
(-3458308.21406927,47869.9618655271,-6567168.00580588)
(0,0,0)
(0,0,0)
(0,0,0)
(0,0,0)
(0,0,0)
(0,0,0)
(-964500.760155628,574046.895948896,14737.4352317757)
(-978204.549884933,567613.912353141,24810.8112612103)
(-1012530.31417928,554229.424806786,22480.6861267732)
(-1087658.43591218,532687.611736227,-5768.23869963357)
(-1260791.53016534,500459.197471766,-72437.7751236781)
(-1715670.35461166,452396.436568335,-110852.210258319)
(-3133707.76282736,384312.403228007,512200.358896285)
(-3645892.98502185,345257.711638211,860647.417716704)
(-3248566.47456383,249343.686682903,-590502.186290499)
(-3510709.45402027,124233.317576173,-6614762.80196006)
(0,0,0)
(0,0,0)
(0,0,0)
(0,0,0)
(0,0,0)
(0,0,0)
(-1328508.63175462,640149.296948607,8354.11948140511)
(-1339789.07591225,636512.756500414,11519.7469256688)
(-1368663.47866412,630251.250406992,1050.0309192624)
(-1434166.31789362,623969.933753558,-37927.4802659476)
(-1593171.88503099,622466.171683721,-120466.536014229)
(-2038696.4742246,628837.099568624,-178903.799073063)
(-3518024.89630505,630121.199430891,473323.546228147)
(-3991460.96426917,722111.014654962,765013.212881775)
(-3409407.94056464,403579.314498932,-715305.059976897)
(-3597076.64549357,167541.57406094,-6738658.57417469)
(0,0,0)
(0,0,0)
(0,0,0)
(0,0,0)
(0,0,0)
(0,0,0)
(-1909481.38446878,438633.652428743,4773.36109071642)
(-1917980.16771892,436886.916474915,5364.26874852316)
(-1940054.4619225,435514.614530786,-5062.08376301052)
(-1991450.82583939,440858.056097433,-39339.3397119585)
(-2123079.80935814,469846.105320224,-114090.135751219)
(-2531930.18342281,562487.433323445,-177592.321128643)
(-4148059.3263666,761280.160898444,565419.026665518)
(-3380793.56972943,489366.916291359,446725.19587867)
(-3537411.03006428,180455.561341095,-951015.070062274)
(-3730658.85396148,1702.64386777228,-6905859.43858866)
(0,0,0)
(0,0,0)
(0,0,0)
(0,0,0)
(0,0,0)
(0,0,0)
(-2742863.69372904,-854031.708371269,3091.83730732121)
(-2748388.22333594,-855461.241718652,4112.80330426519)
(-2762560.71770951,-856842.473938773,463.053256095301)
(-2794192.2722917,-854461.403893386,-10203.9704371632)
(-2866728.08671775,-841052.726532187,-21408.4165990664)
(-3040160.65452166,-809180.095432245,21287.0935146307)
(-3419248.41855392,-785928.092365932,293631.100434767)
(-3543291.39833681,-962252.533946984,137992.976617768)
(-3869163.01022658,-1122041.14327054,-1129502.18078477)
(-3930278.1079779,-975729.627431099,-6907247.73865255)
(0,0,0)
(0,0,0)
(0,0,0)
(0,0,0)
(0,0,0)
(0,0,0)
(-3359066.34433699,-6751360.79829413,1699.95414648963)
(-3361779.08986774,-6753121.97018735,2806.58884558502)
(-3368578.43572396,-6756025.95821078,2983.66543337262)
(-3383193.52976703,-6759171.24895166,3337.67255410673)
(-3414352.31807203,-6762672.44522776,10544.7858269633)
(-3479688.9615752,-6773367.20620801,44623.5884557337)
(-3600400.51423591,-6818108.20395822,117402.196014473)
(-3734644.06746534,-6935597.25896798,-21660.146004128)
(-3931470.67732291,-6914051.81153479,-982990.556771789)
(-3793974.25473792,-5931179.84047046,-5931276.83904387)
(0,0,0)
(0,0,0)
(0,0,0)
(0,0,0)
(0,0,0)
(0,0,0)
(0,0,0)
(0,0,0)
(0,0,0)
(0,0,0)
(0,0,0)
(0,0,0)
(0,0,0)
(0,0,0)
(0,0,0)
(0,0,0)
(0,0,0)
(0,0,0)
(0,0,0)
(0,0,0)
(0,0,0)
(0,0,0)
(0,0,0)
(0,0,0)
(0,0,0)
(0,0,0)
(0,0,0)
(0,0,0)
(0,0,0)
(0,0,0)
(0,0,0)
(0,0,0)
(0,0,0)
(0,0,0)
(0,0,0)
(0,0,0)
(0,0,0)
(0,0,0)
(0,0,0)
(0,0,0)
(0,0,0)
(0,0,0)
(0,0,0)
(0,0,0)
(0,0,0)
(0,0,0)
(0,0,0)
(0,0,0)
(0,0,0)
(0,0,0)
(0,0,0)
(0,0,0)
(0,0,0)
(0,0,0)
(0,0,0)
(0,0,0)
(0,0,0)
(0,0,0)
(0,0,0)
(0,0,0)
(0,0,0)
(0,0,0)
(0,0,0)
(0,0,0)
(0,0,0)
(0,0,0)
(0,0,0)
(0,0,0)
(0,0,0)
(0,0,0)
(0,0,0)
(0,0,0)
(0,0,0)
(0,0,0)
(0,0,0)
(0,0,0)
(0,0,0)
(0,0,0)
(0,0,0)
(0,0,0)
(0,0,0)
(0,0,0)
(0,0,0)
(0,0,0)
(0,0,0)
(0,0,0)
(0,0,0)
(0,0,0)
(0,0,0)
(0,0,0)
(0,0,0)
(0,0,0)
(0,0,0)
(0,0,0)
(0,0,0)
(0,0,0)
(0,0,0)
(0,0,0)
(0,0,0)
(0,0,0)
(0,0,0)
(0,0,0)
(-545790.762040452,47233.6934809526,37111.9809172411)
(-561878.165145823,43484.6609425393,75083.0704580086)
(-597377.839855034,35000.412369283,114061.595904845)
(-659385.667528437,19625.4523189123,152111.540901345)
(-759617.993630418,-5615.15941538231,181522.382339709)
(-913817.477323083,-41762.2463749247,177459.179789421)
(-1135501.19557416,-77982.7294364622,65208.5270821013)
(-1410333.46524225,-78101.7547375372,-351459.907599713)
(-1630094.12904557,-47984.0710747042,-1409255.58865208)
(-1416453.87896243,-20367.1355619461,-3326163.969)
(0,0,0)
(0,0,0)
(0,0,0)
(0,0,0)
(0,0,0)
(0,0,0)
(-564062.610232758,96328.8393159652,33405.289432645)
(-579221.955969882,89280.4978406976,66640.1756476591)
(-612733.796235662,72925.042646298,98740.940308473)
(-671422.124075334,41760.6377070044,126961.752696178)
(-767059.989841188,-14321.2792499165,145508.686777268)
(-916812.015956428,-107871.663452346,141309.32600747)
(-1137070.6330348,-226497.712944323,65092.8489758345)
(-1403566.08923467,-223695.467701942,-321329.742519404)
(-1619232.60946168,-119595.073160024,-1381630.6676923)
(-1409778.4265605,-45495.1732551566,-3305846.04653061)
(0,0,0)
(0,0,0)
(0,0,0)
(0,0,0)
(0,0,0)
(0,0,0)
(-604126.963547275,147511.700571438,26417.9070529287)
(-617531.317553746,138349.036167323,50367.9817161446)
(-647104.197833895,116489.272844401,67677.6199040457)
(-698990.287301322,72108.8661772565,71003.3940048783)
(-785026.527619506,-18859.6312683098,52079.1945567948)
(-928638.91405379,-211976.190946694,22733.6191286769)
(-1171323.36337184,-582961.986423681,67896.4990085127)
(-1403823.50565533,-576104.667013621,-217186.019332733)
(-1592925.98206951,-233900.221884005,-1307490.74802688)
(-1393548.00496507,-73082.6238772067,-3260355.06207127)
(0,0,0)
(0,0,0)
(0,0,0)
(0,0,0)
(0,0,0)
(0,0,0)
(-673253.798600876,196552.141509883,17308.4308489872)
(-684182.402970391,187303.970981459,28590.0112201346)
(-708001.033681829,165173.946163569,23413.7590164586)
(-748878.208161001,119031.537153888,-19822.1341610616)
(-816281.10583564,14207.6156455261,-140912.311838055)
(-949573.486953519,-282629.255775626,-348125.462581563)
(-1432037.36091647,-1432234.67883534,74851.8528727088)
(-1506713.10361373,-1507244.79206571,125039.225037307)
(-1531758.84246737,-344275.358479051,-1146667.01475773)
(-1360799.47366644,-77621.150690159,-3187259.41307738)
(0,0,0)
(0,0,0)
(0,0,0)
(0,0,0)
(0,0,0)
(0,0,0)
(-782554.505966621,229139.652742507,8087.49120155063)
(-790606.538991409,221951.804337648,6514.1076361115)
(-807276.299877075,205749.313819127,-22640.8818100405)
(-831341.862114688,175605.731988622,-124482.425738354)
(-848373.666062498,121076.759903892,-437599.38844387)
(-764422.076569167,31280.726251272,-1497621.44455523)
(7.0665125260586e-05,1.7678015802509e-05,-4.58136776993383e-05)