/*--------------------------------*- C++ -*----------------------------------*\
| =========                 |                                                 |
| \\      /  F ield         | foam-extend: Open Source Cstd::filesystem::create_directory();FD                    |
|  \\    /   O peration     | Version:     4.0                                |
|   \\  /    A nd           | Web:         http://www.foam-extend.org         |
|    \\/     M anipulation  |                                                 |
\*---------------------------------------------------------------------------*/
FoamFile
{
    version 2.0;
    format ascii;
    class volVectorField;
    location "Data/2956";
    object      H;
}
// * * * * * * * * * * * * * * * * * * * * * * * * * * * * * * * * * * * * * //

dimensions      [0 1 -1 0 0 0 0];

internalField   nonuniform List<vector>
4096
(
(0,0,0)
(0,0,0)
(0,0,0)
(0,0,0)
(0,0,0)
(0,0,0)
(0,0,0)
(0,0,0)
(0,0,0)
(0,0,0)
(0,0,0)
(0,0,0)
(0,0,0)
(0,0,0)
(0,0,0)
(0,0,0)
(0,0,0)
(0,0,0)
(0,0,0)
(0,0,0)
(0,0,0)
(0,0,0)
(0,0,0)
(0,0,0)
(0,0,0)
(0,0,0)
(0,0,0)
(0,0,0)
(0,0,0)
(0,0,0)
(0,0,0)
(0,0,0)
(0,0,0)
(0,0,0)
(0,0,0)
(0,0,0)
(0,0,0)
(0,0,0)
(0,0,0)
(0,0,0)
(0,0,0)
(0,0,0)
(0,0,0)
(0,0,0)
(0,0,0)
(0,0,0)
(0,0,0)
(0,0,0)
(0,0,0)
(0,0,0)
(0,0,0)
(0,0,0)
(0,0,0)
(0,0,0)
(0,0,0)
(0,0,0)
(0,0,0)
(0,0,0)
(0,0,0)
(0,0,0)
(0,0,0)
(0,0,0)
(0,0,0)
(0,0,0)
(0,0,0)
(0,0,0)
(0,0,0)
(0,0,0)
(0,0,0)
(0,0,0)
(0,0,0)
(0,0,0)
(0,0,0)
(0,0,0)
(0,0,0)
(0,0,0)
(0,0,0)
(0,0,0)
(0,0,0)
(0,0,0)
(0,0,0)
(0,0,0)
(0,0,0)
(0,0,0)
(0,0,0)
(0,0,0)
(0,0,0)
(0,0,0)
(0,0,0)
(0,0,0)
(0,0,0)
(0,0,0)
(0,0,0)
(0,0,0)
(0,0,0)
(0,0,0)
(0,0,0)
(0,0,0)
(0,0,0)
(0,0,0)
(0,0,0)
(0,0,0)
(0,0,0)
(0,0,0)
(0,0,0)
(0,0,0)
(0,0,0)
(0,0,0)
(0,0,0)
(0,0,0)
(0,0,0)
(0,0,0)
(0,0,0)
(0,0,0)
(0,0,0)
(0,0,0)
(0,0,0)
(0,0,0)
(0,0,0)
(0,0,0)
(0,0,0)
(0,0,0)
(0,0,0)
(0,0,0)
(0,0,0)
(0,0,0)
(0,0,0)
(0,0,0)
(0,0,0)
(0,0,0)
(0,0,0)
(0,0,0)
(0,0,0)
(0,0,0)
(0,0,0)
(0,0,0)
(0,0,0)
(0,0,0)
(0,0,0)
(0,0,0)
(0,0,0)
(0,0,0)
(0,0,0)
(0,0,0)
(0,0,0)
(0,0,0)
(0,0,0)
(0,0,0)
(0,0,0)
(0,0,0)
(0,0,0)
(0,0,0)
(0,0,0)
(0,0,0)
(0,0,0)
(0,0,0)
(0,0,0)
(0,0,0)
(0,0,0)
(0,0,0)
(0,0,0)
(0,0,0)
(0,0,0)
(0,0,0)
(0,0,0)
(0,0,0)
(0,0,0)
(0,0,0)
(0,0,0)
(0,0,0)
(0,0,0)
(0,0,0)
(0,0,0)
(0,0,0)
(0,0,0)
(0,0,0)
(0,0,0)
(0,0,0)
(0,0,0)
(0,0,0)
(0,0,0)
(0,0,0)
(0,0,0)
(0,0,0)
(0,0,0)
(0,0,0)
(0,0,0)
(0,0,0)
(0,0,0)
(0,0,0)
(0,0,0)
(0,0,0)
(0,0,0)
(0,0,0)
(0,0,0)
(0,0,0)
(0,0,0)
(0,0,0)
(0,0,0)
(0,0,0)
(0,0,0)
(0,0,0)
(0,0,0)
(0,0,0)
(0,0,0)
(0,0,0)
(0,0,0)
(0,0,0)
(0,0,0)
(0,0,0)
(0,0,0)
(0,0,0)
(0,0,0)
(0,0,0)
(0,0,0)
(0,0,0)
(0,0,0)
(0,0,0)
(0,0,0)
(0,0,0)
(0,0,0)
(0,0,0)
(0,0,0)
(0,0,0)
(0,0,0)
(0,0,0)
(0,0,0)
(0,0,0)
(0,0,0)
(0,0,0)
(0,0,0)
(0,0,0)
(0,0,0)
(0,0,0)
(0,0,0)
(0,0,0)
(0,0,0)
(0,0,0)
(0,0,0)
(0,0,0)
(0,0,0)
(0,0,0)
(0,0,0)
(0,0,0)
(0,0,0)
(0,0,0)
(0,0,0)
(0,0,0)
(0,0,0)
(0,0,0)
(0,0,0)
(0,0,0)
(0,0,0)
(0,0,0)
(0,0,0)
(0,0,0)
(0,0,0)
(0,0,0)
(0,0,0)
(0,0,0)
(0,0,0)
(0,0,0)
(0,0,0)
(0,0,0)
(0,0,0)
(0,0,0)
(0,0,0)
(0,0,0)
(0,0,0)
(0,0,0)
(0,0,0)
(0,0,0)
(0,0,0)
(0,0,0)
(0,0,0)
(0,0,0)
(0,0,0)
(0,0,0)
(0,0,0)
(0,0,0)
(0,0,0)
(0,0,0)
(0,0,0)
(0,0,0)
(0,0,0)
(0,0,0)
(0,0,0)
(0,0,0)
(0,0,0)
(0,0,0)
(0,0,0)
(0,0,0)
(0,0,0)
(0,0,0)
(0,0,0)
(0,0,0)
(0,0,0)
(0,0,0)
(0,0,0)
(0,0,0)
(0,0,0)
(0,0,0)
(0,0,0)
(0,0,0)
(0,0,0)
(0,0,0)
(0,0,0)
(0,0,0)
(0,0,0)
(0,0,0)
(0,0,0)
(0,0,0)
(0,0,0)
(0,0,0)
(0,0,0)
(0,0,0)
(0,0,0)
(0,0,0)
(0,0,0)
(0,0,0)
(0,0,0)
(0,0,0)
(0,0,0)
(0,0,0)
(0,0,0)
(0,0,0)
(0,0,0)
(0,0,0)
(0,0,0)
(0,0,0)
(0,0,0)
(0,0,0)
(0,0,0)
(0,0,0)
(0,0,0)
(0,0,0)
(0,0,0)
(0,0,0)
(0,0,0)
(0,0,0)
(0,0,0)
(0,0,0)
(0,0,0)
(0,0,0)
(0,0,0)
(0,0,0)
(0,0,0)
(0,0,0)
(0,0,0)
(0,0,0)
(0,0,0)
(0,0,0)
(0,0,0)
(0,0,0)
(0,0,0)
(0,0,0)
(0,0,0)
(0,0,0)
(0,0,0)
(0,0,0)
(0,0,0)
(0,0,0)
(0,0,0)
(0,0,0)
(0,0,0)
(0,0,0)
(0,0,0)
(0,0,0)
(0,0,0)
(0,0,0)
(0,0,0)
(0,0,0)
(0,0,0)
(0,0,0)
(0,0,0)
(0,0,0)
(0,0,0)
(0,0,0)
(0,0,0)
(0,0,0)
(0,0,0)
(0,0,0)
(0,0,0)
(0,0,0)
(0,0,0)
(0,0,0)
(0,0,0)
(0,0,0)
(0,0,0)
(0,0,0)
(0,0,0)
(0,0,0)
(0,0,0)
(0,0,0)
(0,0,0)
(0,0,0)
(0,0,0)
(0,0,0)
(0,0,0)
(0,0,0)
(0,0,0)
(0,0,0)
(0,0,0)
(0,0,0)
(0,0,0)
(0,0,0)
(0,0,0)
(0,0,0)
(0,0,0)
(0,0,0)
(0,0,0)
(0,0,0)
(0,0,0)
(0,0,0)
(0,0,0)
(0,0,0)
(0,0,0)
(0,0,0)
(0,0,0)
(0,0,0)
(0,0,0)
(0,0,0)
(0,0,0)
(0,0,0)
(0,0,0)
(0,0,0)
(0,0,0)
(0,0,0)
(0,0,0)
(0,0,0)
(0,0,0)
(0,0,0)
(0,0,0)
(0,0,0)
(0,0,0)
(0,0,0)
(0,0,0)
(0,0,0)
(0,0,0)
(0,0,0)
(0,0,0)
(0,0,0)
(0,0,0)
(0,0,0)
(0,0,0)
(0,0,0)
(0,0,0)
(0,0,0)
(0,0,0)
(0,0,0)
(0,0,0)
(0,0,0)
(0,0,0)
(0,0,0)
(0,0,0)
(0,0,0)
(0,0,0)
(0,0,0)
(0,0,0)
(0,0,0)
(0,0,0)
(0,0,0)
(0,0,0)
(0,0,0)
(0,0,0)
(0,0,0)
(0,0,0)
(0,0,0)
(0,0,0)
(0,0,0)
(0,0,0)
(0,0,0)
(0,0,0)
(0,0,0)
(0,0,0)
(0,0,0)
(0,0,0)
(0,0,0)
(0,0,0)
(0,0,0)
(0,0,0)
(0,0,0)
(0,0,0)
(0,0,0)
(0,0,0)
(0,0,0)
(0,0,0)
(0,0,0)
(0,0,0)
(0,0,0)
(0,0,0)
(0,0,0)
(0,0,0)
(0,0,0)
(0,0,0)
(0,0,0)
(0,0,0)
(0,0,0)
(0,0,0)
(0,0,0)
(0,0,0)
(0,0,0)
(0,0,0)
(0,0,0)
(0,0,0)
(0,0,0)
(0,0,0)
(0,0,0)
(0,0,0)
(0,0,0)
(0,0,0)
(0,0,0)
(0,0,0)
(0,0,0)
(0,0,0)
(0,0,0)
(0,0,0)
(0,0,0)
(0,0,0)
(0,0,0)
(0,0,0)
(0,0,0)
(0,0,0)
(0,0,0)
(0,0,0)
(0,0,0)
(0,0,0)
(0,0,0)
(0,0,0)
(0,0,0)
(0,0,0)
(0,0,0)
(0,0,0)
(0,0,0)
(0,0,0)
(0,0,0)
(0,0,0)
(0,0,0)
(0,0,0)
(0,0,0)
(0,0,0)
(0,0,0)
(0,0,0)
(0,0,0)
(0,0,0)
(0,0,0)
(0,0,0)
(0,0,0)
(0,0,0)
(0,0,0)
(0,0,0)
(0,0,0)
(0,0,0)
(0,0,0)
(0,0,0)
(0,0,0)
(0,0,0)
(0,0,0)
(0,0,0)
(0,0,0)
(0,0,0)
(0,0,0)
(0,0,0)
(0,0,0)
(0,0,0)
(0,0,0)
(0,0,0)
(0,0,0)
(0,0,0)
(0,0,0)
(0,0,0)
(0,0,0)
(0,0,0)
(0,0,0)
(0,0,0)
(0,0,0)
(0,0,0)
(0,0,0)
(0,0,0)
(0,0,0)
(0,0,0)
(0,0,0)
(0,0,0)
(0,0,0)
(0,0,0)
(0,0,0)
(0,0,0)
(0,0,0)
(0,0,0)
(0,0,0)
(0,0,0)
(0,0,0)
(0,0,0)
(0,0,0)
(0,0,0)
(0,0,0)
(0,0,0)
(0,0,0)
(0,0,0)
(0,0,0)
(0,0,0)
(0,0,0)
(0,0,0)
(0,0,0)
(0,0,0)
(0,0,0)
(0,0,0)
(0,0,0)
(0,0,0)
(0,0,0)
(0,0,0)
(0,0,0)
(0,0,0)
(0,0,0)
(0,0,0)
(0,0,0)
(0,0,0)
(0,0,0)
(0,0,0)
(0,0,0)
(0,0,0)
(0,0,0)
(0,0,0)
(0,0,0)
(0,0,0)
(0,0,0)
(0,0,0)
(0,0,0)
(0,0,0)
(0,0,0)
(0,0,0)
(0,0,0)
(0,0,0)
(0,0,0)
(0,0,0)
(0,0,0)
(0,0,0)
(0,0,0)
(0,0,0)
(0,0,0)
(0,0,0)
(0,0,0)
(0,0,0)
(0,0,0)
(0,0,0)
(0,0,0)
(0,0,0)
(0,0,0)
(0,0,0)
(0,0,0)
(0,0,0)
(0,0,0)
(0,0,0)
(0,0,0)
(0,0,0)
(0,0,0)
(0,0,0)
(0,0,0)
(0,0,0)
(0,0,0)
(0,0,0)
(0,0,0)
(0,0,0)
(0,0,0)
(0,0,0)
(0,0,0)
(0,0,0)
(0,0,0)
(0,0,0)
(0,0,0)
(0,0,0)
(0,0,0)
(0,0,0)
(0,0,0)
(0,0,0)
(0,0,0)
(0,0,0)
(0,0,0)
(0,0,0)
(0,0,0)
(0,0,0)
(0,0,0)
(0,0,0)
(0,0,0)
(0,0,0)
(0,0,0)
(0,0,0)
(0,0,0)
(0,0,0)
(0,0,0)
(0,0,0)
(0,0,0)
(0,0,0)
(0,0,0)
(0,0,0)
(0,0,0)
(0,0,0)
(0,0,0)
(0,0,0)
(0,0,0)
(0,0,0)
(0,0,0)
(0,0,0)
(0,0,0)
(0,0,0)
(0,0,0)
(0,0,0)
(0,0,0)
(0,0,0)
(0,0,0)
(0,0,0)
(0,0,0)
(0,0,0)
(0,0,0)
(0,0,0)
(0,0,0)
(0,0,0)
(0,0,0)
(0,0,0)
(0,0,0)
(0,0,0)
(0,0,0)
(0,0,0)
(0,0,0)
(0,0,0)
(0,0,0)
(0,0,0)
(0,0,0)
(0,0,0)
(0,0,0)
(0,0,0)
(0,0,0)
(0,0,0)
(0,0,0)
(0,0,0)
(0,0,0)
(0,0,0)
(0,0,0)
(0,0,0)
(0,0,0)
(0,0,0)
(0,0,0)
(0,0,0)
(0,0,0)
(0,0,0)
(0,0,0)
(0,0,0)
(0,0,0)
(0,0,0)
(0,0,0)
(0,0,0)
(0,0,0)
(0,0,0)
(0,0,0)
(0,0,0)
(0,0,0)
(0,0,0)
(0,0,0)
(0,0,0)
(0,0,0)
(0,0,0)
(0,0,0)
(0,0,0)
(0,0,0)
(0,0,0)
(0,0,0)
(0,0,0)
(0,0,0)
(0,0,0)
(0,0,0)
(0,0,0)
(0,0,0)
(0,0,0)
(0,0,0)
(0,0,0)
(0,0,0)
(0,0,0)
(0,0,0)
(0,0,0)
(0,0,0)
(0,0,0)
(0,0,0)
(0,0,0)
(0,0,0)
(0,0,0)
(0,0,0)
(0,0,0)
(0,0,0)
(0,0,0)
(0,0,0)
(0,0,0)
(0,0,0)
(0,0,0)
(0,0,0)
(0,0,0)
(0,0,0)
(0,0,0)
(0,0,0)
(0,0,0)
(0,0,0)
(0,0,0)
(0,0,0)
(0,0,0)
(0,0,0)
(0,0,0)
(0,0,0)
(0,0,0)
(0,0,0)
(0,0,0)
(0,0,0)
(0,0,0)
(0,0,0)
(0,0,0)
(0,0,0)
(0,0,0)
(0,0,0)
(0,0,0)
(0,0,0)
(0,0,0)
(-2.86903866446071e-12,-1.06871030330801e-11,1.25825883004737e-11)
(-5.6663870011688e-12,-2.30575945126492e-11,1.25993834814693e-11)
(-6.7242878325946e-12,-3.89818463495342e-11,1.14706601609479e-11)
(-6.44587638930377e-12,-6.0978437314837e-11,9.59373470755242e-12)
(-6.25426021914417e-12,-9.60746691643343e-11,7.83825190981628e-12)
(-7.33649164316314e-12,-1.51860106976513e-10,5.82205721480119e-12)
(-7.22608817166327e-12,-2.43527033435449e-10,3.42457296348892e-12)
(-6.05993627050601e-12,-3.96976931184027e-10,1.51754780659235e-12)
(-4.33358111642196e-12,-6.50624834006945e-10,7.20153590537431e-13)
(-3.14850391402802e-12,-1.00362709230579e-09,3.4683364956564e-13)
(0,0,0)
(0,0,0)
(0,0,0)
(0,0,0)
(0,0,0)
(0,0,0)
(-5.61624211943445e-12,-1.02695155986836e-11,2.72016143075758e-11)
(-1.04955371808312e-11,-2.18091286891773e-11,2.63833700735313e-11)
(-1.29767374067481e-11,-3.7187365814488e-11,2.43263205590313e-11)
(-1.31588074542172e-11,-5.91736456268673e-11,2.12289305374776e-11)
(-1.30200054198314e-11,-9.42345677436084e-11,1.74884035819725e-11)
(-1.41658739492207e-11,-1.50161794515825e-10,1.31389452158937e-11)
(-1.41830346270366e-11,-2.42576800255414e-10,8.68970870919201e-12)
(-1.17748137352657e-11,-3.97025599298475e-10,5.16173029839733e-12)
(-8.35875476006795e-12,-6.50956032819397e-10,2.90800249261978e-12)
(-5.93471710613172e-12,-1.00385050980049e-09,1.44225041991327e-12)
(0,0,0)
(0,0,0)
(0,0,0)
(0,0,0)
(0,0,0)
(0,0,0)
(-7.64829686200424e-12,-9.17156081625707e-12,4.4353510098514e-11)
(-1.33391983199438e-11,-1.97898980884471e-11,4.3355476052702e-11)
(-1.68292831350265e-11,-3.43156802302264e-11,4.10429087690459e-11)
(-1.87405978363805e-11,-5.53722368253214e-11,3.70287714433171e-11)
(-1.94369320472409e-11,-8.96212082067562e-11,3.13016245825401e-11)
(-2.06435530793267e-11,-1.45851677577865e-10,2.43776631352953e-11)
(-2.06512870792304e-11,-2.39815625974872e-10,1.7385294270009e-11)
(-1.72025829309561e-11,-3.95944332096086e-10,1.20472760497668e-11)
(-1.27635980745714e-11,-6.5048057657954e-10,7.89259124174858e-12)
(-9.77497652262182e-12,-1.00295776152268e-09,3.92300958635603e-12)
(0,0,0)
(0,0,0)
(0,0,0)
(0,0,0)
(0,0,0)
(0,0,0)
(-7.67825285627479e-12,-7.66064569812652e-12,6.75265504965611e-11)
(-1.36917812921748e-11,-1.69434295834881e-11,6.66882237619059e-11)
(-1.84314215215964e-11,-2.99750615210088e-11,6.44638556600176e-11)
(-2.29017653865341e-11,-4.94807280901145e-11,6.01207248147228e-11)
(-2.59018793823013e-11,-8.20643757026203e-11,5.32843103163168e-11)
(-2.72583325452921e-11,-1.38096041405767e-10,4.4596355164802e-11)
(-2.5865010534779e-11,-2.34285397434151e-10,3.51534656937306e-11)
(-2.11517113708873e-11,-3.9321856263399e-10,2.667538720416e-11)
(-1.64478131720009e-11,-6.48361614732033e-10,1.86485320366588e-11)
(-1.29046038486247e-11,-1.00053028365846e-09,9.60674821860338e-12)
(0,0,0)
(0,0,0)
(0,0,0)
(0,0,0)
(0,0,0)
(0,0,0)
(-7.37257724628684e-12,-5.75244634888885e-12,1.02342504555296e-10)
(-1.4200567073774e-11,-1.35042112462406e-11,1.01948486625489e-10)
(-2.07661066429962e-11,-2.4501332966225e-11,9.99976407112758e-11)
(-2.66098575420387e-11,-4.18874411427514e-11,9.57801431336188e-11)
(-3.04539096168253e-11,-7.20903046769345e-11,8.92453414544666e-11)
(-3.12413230511437e-11,-1.26864638795854e-10,8.07008892876007e-11)
(-2.78716125192402e-11,-2.24794532105026e-10,7.04506515933904e-11)
(-2.26482518759777e-11,-3.86563601923709e-10,5.63364565192657e-11)
(-1.81696140738682e-11,-6.41365510828101e-10,4.00461958767608e-11)
(-1.54457267043169e-11,-9.92607876034385e-10,2.10104715649268e-11)
(0,0,0)
(0,0,0)
(0,0,0)
(0,0,0)
(0,0,0)
(0,0,0)
(-5.53389471702952e-12,-4.19877639152769e-12,1.55996468807533e-10)
(-1.19265637612219e-11,-1.02718600982663e-11,1.56071204800221e-10)
(-1.9609861509244e-11,-1.90730548480946e-11,1.54770323276189e-10)
(-2.62395442938824e-11,-3.42833339841027e-11,1.51440571362655e-10)
(-3.03253298501437e-11,-6.20065998516729e-11,1.45941962284548e-10)
(-3.14853388370674e-11,-1.15250502891123e-10,1.37259522299572e-10)
(-2.83835915157784e-11,-2.14060902994345e-10,1.24085319183006e-10)
(-2.43770953859821e-11,-3.73773050170586e-10,1.03796835662862e-10)
(-2.06197094146833e-11,-6.25034880557793e-10,7.54671169912381e-11)
(-1.83191377773161e-11,-9.73734287389775e-10,4.01703647337335e-11)
(0,0,0)
(0,0,0)
(0,0,0)
(0,0,0)
(0,0,0)
(0,0,0)
(-4.9407526598922e-12,-2.99368644922815e-12,2.4379945999394e-10)
(-1.03679196202609e-11,-7.45239390274995e-12,2.43847639333677e-10)
(-1.76612078220563e-11,-1.4652106215662e-11,2.43354580899678e-10)
(-2.3709989139276e-11,-2.79484580238491e-11,2.41234884069555e-10)
(-2.71382222880999e-11,-5.24765510657653e-11,2.36717421336226e-10)
(-2.79899521512726e-11,-1.01659925815999e-10,2.27463347163248e-10)
(-2.62008848446702e-11,-1.96438547984126e-10,2.09266661746807e-10)
(-2.41516952420922e-11,-3.48547744667561e-10,1.80671735479847e-10)
(-2.18528621871791e-11,-5.92107574445114e-10,1.35167111304645e-10)
(-2.04230689151858e-11,-9.35365282998222e-10,7.37182063019491e-11)
(0,0,0)
(0,0,0)
(0,0,0)
(0,0,0)
(0,0,0)
(0,0,0)
(-4.40847946159884e-12,-2.2181481959212e-12,3.93625751877065e-10)
(-9.10881636857811e-12,-5.72851978091899e-12,3.93400028073543e-10)
(-1.53633644992762e-11,-1.14908617607703e-11,3.93197717211752e-10)
(-2.06817339331312e-11,-2.2764964207868e-11,3.91375112201084e-10)
(-2.32706700500293e-11,-4.41440269569666e-11,3.86366018240371e-10)
(-2.42314800614735e-11,-8.72867757166992e-11,3.75215209462722e-10)
(-2.31833906736421e-11,-1.69532141817584e-10,3.5211719212914e-10)
(-2.27021417515287e-11,-3.04630910112964e-10,3.09957873680994e-10)
(-2.27373210446192e-11,-5.32186425744356e-10,2.40212845170627e-10)
(-2.25421344942722e-11,-8.63249721544526e-10,1.36172419225577e-10)
(0,0,0)
(0,0,0)
(0,0,0)
(0,0,0)
(0,0,0)
(0,0,0)
(-2.78181024064557e-12,-1.56898726955772e-12,6.44433746345302e-10)
(-5.97742193263408e-12,-4.38412040569332e-12,6.44135264287256e-10)
(-1.14475208195446e-11,-8.38322856489843e-12,6.43458168096483e-10)
(-1.69634141165083e-11,-1.65836164832755e-11,6.41138843207439e-10)
(-1.99071157078857e-11,-3.29283642735009e-11,6.34687831538768e-10)
(-2.19481712698211e-11,-6.55152397992099e-11,6.20249392049077e-10)
(-2.22439790830694e-11,-1.27607674307088e-10,5.90396272869652e-10)
(-2.25050409865261e-11,-2.3525458874487e-10,5.3318725570437e-10)
(-2.46696746712828e-11,-4.28970111569323e-10,4.31489137772485e-10)
(-2.61334466670834e-11,-7.28020266076623e-10,2.59309967193737e-10)
(0,0,0)
(0,0,0)
(0,0,0)
(0,0,0)
(0,0,0)
(0,0,0)
(-3.84618757929576e-12,-8.79220251360405e-13,9.96585940901864e-10)
(-6.16154090080372e-12,-2.44747436976207e-12,9.95822419433961e-10)
(-1.00302769108204e-11,-4.33238704823522e-12,9.94227321285425e-10)
(-1.53148349000681e-11,-8.78930756302911e-12,9.91479933634164e-10)
(-1.85619746498878e-11,-1.79329751513288e-11,9.83605532869956e-10)
(-2.04461826135016e-11,-3.55501288794675e-11,9.66076891829473e-10)
(-2.17287300515288e-11,-6.98191079914465e-11,9.31151107711639e-10)
(-2.26243947546132e-11,-1.33306245378443e-10,8.62046775728853e-10)
(-2.48146313510502e-11,-2.57314588015996e-10,7.28691600573463e-10)
(-2.5808209407585e-11,-4.69814969789969e-10,4.70795445812682e-10)
(0,0,0)
(0,0,0)
(0,0,0)
(0,0,0)
(0,0,0)
(0,0,0)
(0,0,0)
(0,0,0)
(0,0,0)
(0,0,0)
(0,0,0)
(0,0,0)
(0,0,0)
(0,0,0)
(0,0,0)
(0,0,0)
(0,0,0)
(0,0,0)
(0,0,0)
(0,0,0)
(0,0,0)
(0,0,0)
(0,0,0)
(0,0,0)
(0,0,0)
(0,0,0)
(0,0,0)
(0,0,0)
(0,0,0)
(0,0,0)
(0,0,0)
(0,0,0)
(0,0,0)
(0,0,0)
(0,0,0)
(0,0,0)
(0,0,0)
(0,0,0)
(0,0,0)
(0,0,0)
(0,0,0)
(0,0,0)
(0,0,0)
(0,0,0)
(0,0,0)
(0,0,0)
(0,0,0)
(0,0,0)
(0,0,0)
(0,0,0)
(0,0,0)
(0,0,0)
(0,0,0)
(0,0,0)
(0,0,0)
(0,0,0)
(0,0,0)
(0,0,0)
(0,0,0)
(0,0,0)
(0,0,0)
(0,0,0)
(0,0,0)
(0,0,0)
(0,0,0)
(0,0,0)
(0,0,0)
(0,0,0)
(0,0,0)
(0,0,0)
(0,0,0)
(0,0,0)
(0,0,0)
(0,0,0)
(0,0,0)
(0,0,0)
(0,0,0)
(0,0,0)
(0,0,0)
(0,0,0)
(0,0,0)
(0,0,0)
(0,0,0)
(0,0,0)
(0,0,0)
(0,0,0)
(0,0,0)
(0,0,0)
(0,0,0)
(0,0,0)
(0,0,0)
(0,0,0)
(0,0,0)
(0,0,0)
(0,0,0)
(0,0,0)
(0,0,0)
(0,0,0)
(0,0,0)
(0,0,0)
(0,0,0)
(0,0,0)
(-3.30342127985374e-12,-1.97215667113235e-11,2.50317722925587e-11)
(-5.78612950412452e-12,-4.23084469169432e-11,2.43124741878765e-11)
(-6.64184291424403e-12,-7.12749114213756e-11,2.18358570734851e-11)
(-6.49518527955347e-12,-1.11930119685331e-10,1.8207509040155e-11)
(-6.07816694489761e-12,-1.74998821347148e-10,1.42423216787273e-11)
(-6.63731985249171e-12,-2.71581203888929e-10,9.34537298932517e-12)
(-6.2692961946908e-12,-4.26884624614297e-10,4.05597846003805e-12)
(-5.21387394021026e-12,-6.93406355105679e-10,1.09466437124808e-12)
(-3.62906236340253e-12,-1.2001586636e-09,1.03925486079655e-13)
(-2.57825277025277e-12,-2.35720062527495e-09,-1.73000168727619e-13)
(0,0,0)
(0,0,0)
(0,0,0)
(0,0,0)
(0,0,0)
(0,0,0)
(-5.89595266781722e-12,-1.87265455716777e-11,5.15464859693189e-11)
(-1.04577182670478e-11,-3.98404401423346e-11,4.95460802443484e-11)
(-1.27510329694762e-11,-6.77916530670947e-11,4.54537702843761e-11)
(-1.32196893002613e-11,-1.0787278480421e-10,3.91513250161828e-11)
(-1.32839065905938e-11,-1.7017206078757e-10,3.09562298551681e-11)
(-1.40267543804989e-11,-2.67419977440071e-10,2.05633485602992e-11)
(-1.34162304969367e-11,-4.25338288900667e-10,9.85385031049697e-12)
(-1.06023531315029e-11,-6.93833564141873e-10,4.04807737202677e-12)
(-7.36845892673943e-12,-1.2010480659847e-09,1.91394566536507e-12)
(-5.38521496398009e-12,-2.35818194268309e-09,9.68884687924861e-13)
(0,0,0)
(0,0,0)
(0,0,0)
(0,0,0)
(0,0,0)
(0,0,0)
(-8.16117793432176e-12,-1.69525275876978e-11,8.30928274488529e-11)
(-1.38730995412427e-11,-3.60593974500527e-11,8.06568162564582e-11)
(-1.71557645184922e-11,-6.19012380842264e-11,7.58116658870552e-11)
(-1.89049597108151e-11,-9.95950594116597e-11,6.73117825575202e-11)
(-2.00698031041849e-11,-1.59874636869514e-10,5.5097933606987e-11)
(-2.14068203861328e-11,-2.58169763129038e-10,3.89120610478701e-11)
(-2.08434973996978e-11,-4.21585162915104e-10,2.16514476539517e-11)
(-1.57736675852173e-11,-6.94610315378097e-10,1.28400216061344e-11)
(-1.09129782667874e-11,-1.20283630480381e-09,8.53054527446875e-12)
(-8.27944480052517e-12,-2.35940966256688e-09,4.32662624150933e-12)
(0,0,0)
(0,0,0)
(0,0,0)
(0,0,0)
(0,0,0)
(0,0,0)
(-8.74812547085738e-12,-1.4558902030604e-11,1.26423357648901e-10)
(-1.49066315275359e-11,-3.09690962972804e-11,1.23666094477268e-10)
(-1.95620192310933e-11,-5.32620359804686e-11,1.18344764672025e-10)
(-2.36586378354866e-11,-8.70375546340234e-11,1.08851736852775e-10)
(-2.71879952564791e-11,-1.43167587453214e-10,9.42899110544001e-11)
(-2.90468456841105e-11,-2.40735386943968e-10,7.433246237577e-11)
(-2.6877797374332e-11,-4.1222316483501e-10,5.1979109744629e-11)
(-1.97798169136203e-11,-6.93879352222237e-10,3.82083509042324e-11)
(-1.44021332573e-11,-1.20276817348485e-09,2.71615651998161e-11)
(-1.1220263253306e-11,-2.35820532688253e-09,1.41085029668028e-11)
(0,0,0)
(0,0,0)
(0,0,0)
(0,0,0)
(0,0,0)
(0,0,0)
(-8.53222927384149e-12,-1.11245116479013e-11,1.88205108345163e-10)
(-1.54820723075361e-11,-2.4492068009088e-11,1.86346916239429e-10)
(-2.19768871834724e-11,-4.25014659998577e-11,1.81746527400749e-10)
(-2.76791630215464e-11,-7.09792357439276e-11,1.73045244658843e-10)
(-3.19931622751988e-11,-1.20634903471427e-10,1.59757783843375e-10)
(-3.26052212617207e-11,-2.13246694617732e-10,1.42957960326761e-10)
(-2.44910465557514e-11,-3.89781686197695e-10,1.27175453035645e-10)
(-1.91485429864615e-11,-6.86520160560648e-10,9.79666527034797e-11)
(-1.54645200325652e-11,-1.19482043102545e-09,6.84782020387624e-11)
(-1.33088437844686e-11,-2.34729271061744e-09,3.5530837102852e-11)
(0,0,0)
(0,0,0)
(0,0,0)
(0,0,0)
(0,0,0)
(0,0,0)
(-6.81372065201617e-12,-7.97988128966636e-12,2.81005344285807e-10)
(-1.34451484327112e-11,-1.81884154246852e-11,2.80085996638082e-10)
(-2.07010582281458e-11,-3.19696545733739e-11,2.77239571309345e-10)
(-2.7075811176018e-11,-5.50192919952033e-11,2.71142153795637e-10)
(-3.11729386510636e-11,-9.83256638363574e-11,2.60960664265224e-10)
(-3.19017127956649e-11,-1.87767304369871e-10,2.45810115786462e-10)
(-2.57174630058134e-11,-3.73706515211259e-10,2.2478388472659e-10)
(-2.12726822174697e-11,-6.67351194319521e-10,1.86732351595608e-10)
(-1.8250263269925e-11,-1.16875712154999e-09,1.34526482272705e-10)
(-1.6517777434508e-11,-2.3157527904633e-09,7.09304606112693e-11)
(0,0,0)
(0,0,0)
(0,0,0)
(0,0,0)
(0,0,0)
(0,0,0)
(-5.7644702529374e-12,-5.11958854833409e-12,4.29262084123227e-10)
(-1.15987353080904e-11,-1.26763650275303e-11,4.28895123830526e-10)
(-1.87027554468209e-11,-2.33328901284669e-11,4.27906964622911e-10)
(-2.43760202219348e-11,-4.1688241007799e-11,4.24804034061496e-10)
(-2.62166722238924e-11,-7.78630618197604e-11,4.18684390399436e-10)
(-2.41664168341094e-11,-1.58172453905331e-10,4.06104364033033e-10)
(-2.45123647442638e-11,-3.42158576398483e-10,3.71596124619237e-10)
(-2.25639056216157e-11,-6.23096371543152e-10,3.25594076494073e-10)
(-2.03251058852443e-11,-1.11085394501722e-09,2.40847939980872e-10)
(-1.88204240666074e-11,-2.24843250618079e-09,1.29936828799553e-10)
(0,0,0)
(0,0,0)
(0,0,0)
(0,0,0)
(0,0,0)
(0,0,0)
(-4.83191658443958e-12,-3.22905652736034e-12,6.8673155112382e-10)
(-1.02509048820119e-11,-9.00766182840243e-12,6.86730036948825e-10)
(-1.66483926844768e-11,-1.74891080632756e-11,6.86661961177119e-10)
(-2.18539876970172e-11,-3.34148973494576e-11,6.84598595062294e-10)
(-2.33355239558695e-11,-6.73848349823004e-11,6.78627625222099e-10)
(-2.2904998645352e-11,-1.42530504150899e-10,6.64725926591678e-10)
(-2.29485397359473e-11,-2.98636105180426e-10,6.28726706702513e-10)
(-2.23334346093995e-11,-5.41368974584809e-10,5.52481508417809e-10)
(-2.19132092744528e-11,-1.00268988304352e-09,4.2563833051918e-10)
(-2.15991707369606e-11,-2.12077924634502e-09,2.41824715985809e-10)
(0,0,0)
(0,0,0)
(0,0,0)
(0,0,0)
(0,0,0)
(0,0,0)
(-3.17309520079672e-12,-2.27792608248102e-12,1.18727106600444e-09)
(-7.23697177779104e-12,-6.74984801104486e-12,1.18751410067364e-09)
(-1.31790374471605e-11,-1.28584941591226e-11,1.18680625856687e-09)
(-1.83067113680757e-11,-2.50988961179596e-11,1.18359855004081e-09)
(-2.04640653403563e-11,-5.26891968077763e-11,1.17474018517513e-09)
(-2.20601630101531e-11,-1.10684853327348e-10,1.15383355830878e-09)
(-2.28235282334147e-11,-2.23014571262068e-10,1.10520609716022e-09)
(-2.27552664210784e-11,-4.1543129575481e-10,1.00420676912927e-09)
(-2.41460276458622e-11,-8.20233936660735e-10,8.24786165534011e-10)
(-2.502877576024e-11,-1.88028136603602e-09,5.15222832953885e-10)
(0,0,0)
(0,0,0)
(0,0,0)
(0,0,0)
(0,0,0)
(0,0,0)
(-3.96188636275299e-12,-1.25738135423987e-12,2.34229770722964e-09)
(-7.0139171220299e-12,-3.74579651915568e-12,2.34186805312134e-09)
(-1.16152763077975e-11,-6.98973342777536e-12,2.3397818613867e-09)
(-1.62297416988894e-11,-1.39173591841609e-11,2.33542258195009e-09)
(-1.89663087607413e-11,-2.95320665365024e-11,2.32386178551831e-09)
(-2.10705273751495e-11,-6.09729688194287e-11,2.29683835450518e-09)
(-2.2443506060217e-11,-1.21292465497988e-10,2.23815915270915e-09)
(-2.25754649776304e-11,-2.36113979443658e-10,2.11779800442834e-09)
(-2.42330646062694e-11,-5.11798577028682e-10,1.88140321343221e-09)
(-2.48277333847648e-11,-1.366793843964e-09,1.36842332601313e-09)
(0,0,0)
(0,0,0)
(0,0,0)
(0,0,0)
(0,0,0)
(0,0,0)
(0,0,0)
(0,0,0)
(0,0,0)
(0,0,0)
(0,0,0)
(0,0,0)
(0,0,0)
(0,0,0)
(0,0,0)
(0,0,0)
(0,0,0)
(0,0,0)
(0,0,0)
(0,0,0)
(0,0,0)
(0,0,0)
(0,0,0)
(0,0,0)
(0,0,0)
(0,0,0)
(0,0,0)
(0,0,0)
(0,0,0)
(0,0,0)
(0,0,0)
(0,0,0)
(0,0,0)
(0,0,0)
(0,0,0)
(0,0,0)
(0,0,0)
(0,0,0)
(0,0,0)
(0,0,0)
(0,0,0)
(0,0,0)
(0,0,0)
(0,0,0)
(0,0,0)
(0,0,0)
(0,0,0)
(0,0,0)
(0,0,0)
(0,0,0)
(0,0,0)
(0,0,0)
(0,0,0)
(0,0,0)
(0,0,0)
(0,0,0)
(0,0,0)
(0,0,0)
(0,0,0)
(0,0,0)
(0,0,0)
(0,0,0)
(0,0,0)
(0,0,0)
(0,0,0)
(0,0,0)
(0,0,0)
(0,0,0)
(0,0,0)
(0,0,0)
(0,0,0)
(0,0,0)
(0,0,0)
(0,0,0)
(0,0,0)
(0,0,0)
(0,0,0)
(0,0,0)
(0,0,0)
(0,0,0)
(0,0,0)
(0,0,0)
(0,0,0)
(0,0,0)
(0,0,0)
(0,0,0)
(0,0,0)
(0,0,0)
(0,0,0)
(0,0,0)
(0,0,0)
(0,0,0)
(0,0,0)
(0,0,0)
(0,0,0)
(0,0,0)
(0,0,0)
(0,0,0)
(0,0,0)
(0,0,0)
(0,0,0)
(0,0,0)
(-3.57914431513849e-12,-2.70684292285876e-11,3.39626280597117e-11)
(-5.77751916467047e-12,-5.63835738413324e-11,3.23544247868433e-11)
(-6.49675323421132e-12,-9.44819723680701e-11,2.87984023147561e-11)
(-6.58733279965361e-12,-1.47386577407411e-10,2.35780663870885e-11)
(-6.0079788148474e-12,-2.25151737394341e-10,1.66347154741136e-11)
(-5.50915177192488e-12,-3.3821001243721e-10,7.61326948524442e-12)
(-4.85431782016824e-12,-5.05128286532721e-10,-7.61770914946778e-13)
(-3.79592601905248e-12,-7.49507506546536e-10,-3.79706713812011e-12)
(-2.46273432345549e-12,-1.09609635014982e-09,-3.43578060602374e-12)
(-1.76993553170916e-12,-1.51707542918094e-09,-1.939194873416e-12)
(0,0,0)
(0,0,0)
(0,0,0)
(0,0,0)
(0,0,0)
(0,0,0)
(-5.66956492694432e-12,-2.57072871879899e-11,6.87228962843822e-11)
(-1.01464509995426e-11,-5.35225694578996e-11,6.58006859812876e-11)
(-1.23390026858444e-11,-9.01127005449604e-11,5.97768436018242e-11)
(-1.33023195311531e-11,-1.41177614437718e-10,4.99836772757945e-11)
(-1.31884492133561e-11,-2.17037331500421e-10,3.55821292733965e-11)
(-1.25674704420323e-11,-3.31515024224073e-10,1.62102564821544e-11)
(-1.13635835443834e-11,-5.04300682023057e-10,-2.76067698939895e-12)
(-7.69147018798123e-12,-7.52326700021707e-10,-8.30700824727871e-12)
(-4.63515912972056e-12,-1.09979758737032e-09,-6.14638415892911e-12)
(-3.1886103920387e-12,-1.52096802610413e-09,-2.60592125459735e-12)
(0,0,0)
(0,0,0)
(0,0,0)
(0,0,0)
(0,0,0)
(0,0,0)
(-8.11879230073048e-12,-2.30331703780126e-11,1.11018863293888e-10)
(-1.41182503236607e-11,-4.80532248614549e-11,1.07387152117571e-10)
(-1.72950832923154e-11,-8.11407047329463e-11,9.95689048279784e-11)
(-1.92486155383693e-11,-1.27827006741344e-10,8.58221706378089e-11)
(-2.05909799617383e-11,-1.99757946756693e-10,6.41820632589858e-11)
(-2.15805831770383e-11,-3.16018150353103e-10,3.2478928703855e-11)
(-2.13940694320967e-11,-5.03087061369351e-10,-3.30969390375142e-12)
(-1.21951544094944e-11,-7.60075932301771e-10,-8.54939674462019e-12)
(-6.77719055177827e-12,-1.10786257590176e-09,-3.36010031595753e-12)
(-5.1571542440772e-12,-1.52732039913343e-09,-1.48205930341573e-13)
(0,0,0)
(0,0,0)
(0,0,0)
(0,0,0)
(0,0,0)
(0,0,0)
(-9.42525268239191e-12,-1.97075289351184e-11,1.68758605776507e-10)
(-1.60623300096571e-11,-4.05030569483897e-11,1.64037787041964e-10)
(-2.08295613931997e-11,-6.78510433475398e-11,1.54757081199626e-10)
(-2.51551309283023e-11,-1.07192663866315e-10,1.39002388625754e-10)
(-2.97632305593598e-11,-1.7026378346294e-10,1.13179149352735e-10)
(-3.4182185378279e-11,-2.83015418429326e-10,7.19120277360937e-11)
(-3.55485171709844e-11,-4.96979253020973e-10,1.54877571113802e-11)
(-1.60922228710848e-11,-7.74395403503853e-10,1.35448495605649e-11)
(-9.29681348285187e-12,-1.11870141062429e-09,1.67013869030259e-11)
(-8.0243765528862e-12,-1.53304520284925e-09,1.12926763743116e-11)
(0,0,0)
(0,0,0)
(0,0,0)
(0,0,0)
(0,0,0)
(0,0,0)
(-9.81866752702733e-12,-1.51815049263565e-11,2.46027962027601e-10)
(-1.71853360524097e-11,-3.09758160342123e-11,2.4203290629781e-10)
(-2.38074158694218e-11,-5.14636416677323e-11,2.33826255864937e-10)
(-3.03516459546904e-11,-8.0752290314075e-11,2.19799352640148e-10)
(-3.75025783920673e-11,-1.28033951524309e-10,1.97795490048643e-10)
(-4.23021042195132e-11,-2.18044323670589e-10,1.7037469167159e-10)
(-1.13574172111043e-11,-4.34526551043849e-10,1.76195576219184e-10)
(-8.82905856310847e-12,-7.88565914320186e-10,1.11201537474171e-10)
(-8.58046457036978e-12,-1.12412051263981e-09,7.6211508997864e-11)
(-9.3179268361865e-12,-1.5287534489073e-09,4.02438228372316e-11)
(0,0,0)
(0,0,0)
(0,0,0)
(0,0,0)
(0,0,0)
(0,0,0)
(-8.75466574538171e-12,-1.05151273162602e-11,3.53985579166484e-10)
(-1.6110773501375e-11,-2.13550611608486e-11,3.51447859888e-10)
(-2.32404051591738e-11,-3.52441461230672e-11,3.46436608508031e-10)
(-3.02253726318236e-11,-5.46073524053643e-11,3.37463072553914e-10)
(-3.64849921896201e-11,-8.84188161495227e-11,3.23019632354095e-10)
(-4.04703322006984e-11,-1.71774294535525e-10,3.0297051254734e-10)
(-1.92138686865325e-11,-4.46245842039454e-10,2.96101230330388e-10)
(-1.33216356718663e-11,-7.79964233762486e-10,2.34462715845992e-10)
(-1.25574181406892e-11,-1.10009120668034e-09,1.64783682945667e-10)
(-1.2907601106281e-11,-1.49487968438957e-09,8.54944714148202e-11)
(0,0,0)
(0,0,0)
(0,0,0)
(0,0,0)
(0,0,0)
(0,0,0)
(-7.28804197949605e-12,-6.3399010674633e-12,5.09535215656367e-10)
(-1.42792793015919e-11,-1.35936431013554e-11,5.08870839225986e-10)
(-2.14436069503604e-11,-2.23299988609578e-11,5.07594858513518e-10)
(-2.65297202181449e-11,-3.29637855825709e-11,5.05514999002491e-10)
(-2.41148726948454e-11,-5.02772739478078e-11,5.05411605210636e-10)
(-5.30012717421125e-12,-1.01094567811542e-10,5.09375299965815e-10)
(-2.20327878375225e-11,-4.06730051832795e-10,4.3736746194762e-10)
(-1.954516606765e-11,-7.29174956237432e-10,4.2216671948811e-10)
(-1.75780566769637e-11,-1.02994632911978e-09,2.94251273594021e-10)
(-1.65368551030264e-11,-1.41408159493543e-09,1.51624288265312e-10)
(0,0,0)
(0,0,0)
(0,0,0)
(0,0,0)
(0,0,0)
(0,0,0)
(-5.78153285345805e-12,-3.65108888508057e-12,7.41098154711331e-10)
(-1.2440642927442e-11,-8.98249040975504e-12,7.41860975529968e-10)
(-1.92156404746445e-11,-1.56780772122984e-11,7.42278389295095e-10)
(-2.41990190874043e-11,-2.64918565469195e-11,7.424274164232e-10)
(-2.4129463500668e-11,-5.32356932227218e-11,7.43945001383282e-10)
(-1.87514295795793e-11,-1.34387634683003e-10,7.47265493529022e-10)
(-2.23248753700226e-11,-3.74642749610266e-10,7.27509045964851e-10)
(-2.14279355413108e-11,-6.04644851090681e-10,6.20318223324853e-10)
(-2.05555411239817e-11,-8.90609760123415e-10,4.52394459446456e-10)
(-2.02723350593735e-11,-1.26442539195878e-09,2.43817113724287e-10)
(0,0,0)
(0,0,0)
(0,0,0)
(0,0,0)
(0,0,0)
(0,0,0)
(-4.43667459884432e-12,-2.65906277822429e-12,1.08010330120442e-09)
(-9.53318116332839e-12,-6.65312154906675e-12,1.08102137168401e-09)
(-1.58400896512087e-11,-1.18544700588986e-11,1.08088581921319e-09)
(-2.06298834366694e-11,-2.24590673974776e-11,1.07923586047733e-09)
(-2.27145687447961e-11,-5.02379982551165e-11,1.07464941476392e-09)
(-2.31445863695413e-11,-1.19112065177113e-10,1.06065232933467e-09)
(-2.35463059661468e-11,-2.63777991173083e-10,1.01427726735514e-09)
(-2.26519791385391e-11,-4.37309069781323e-10,8.90966733450755e-10)
(-2.301805469653e-11,-6.83435381495134e-10,6.89372171637604e-10)
(-2.32934648787599e-11,-1.02201049114764e-09,3.95661305057249e-10)
(0,0,0)
(0,0,0)
(0,0,0)
(0,0,0)
(0,0,0)
(0,0,0)
(-4.78961360989975e-12,-1.58862196163078e-12,1.49802468737993e-09)
(-8.67352190638209e-12,-3.78922008906796e-12,1.49833951370199e-09)
(-1.42457302988855e-11,-6.74261860237356e-12,1.49710961301589e-09)
(-1.85863044510409e-11,-1.3492233389948e-11,1.49372716485518e-09)