/*--------------------------------*- C++ -*----------------------------------*\
| =========                 |                                                 |
| \\      /  F ield         | foam-extend: Open Source CFD                    |
|  \\    /   O peration     | Version:     4.0                                |
|   \\  /    A nd           | Web:         http://www.foam-extend.org         |
|    \\/     M anipulation  |                                                 |
\*---------------------------------------------------------------------------*/
FoamFile
{
    version 2.0;
    format ascii;
    class volVectorField;
    location "1230";
    object      E;
}
// * * * * * * * * * * * * * * * * * * * * * * * * * * * * * * * * * * * * * //

dimensions      [0 1 -1 0 0 0 0];

internalField   nonuniform List<vector>
4096
(
(0,0,0)
(0,0,0)
(0,0,0)
(0,0,0)
(0,0,0)
(0,0,0)
(0,0,0)
(0,0,0)
(0,0,0)
(0,0,0)
(0,0,0)
(0,0,0)
(0,0,0)
(0,0,0)
(0,0,0)
(0,0,0)
(0,0,0)
(0,0,0)
(0,0,0)
(0,0,0)
(0,0,0)
(0,0,0)
(0,0,0)
(0,0,0)
(0,0,0)
(0,0,0)
(0,0,0)
(0,0,0)
(0,0,0)
(0,0,0)
(0,0,0)
(0,0,0)
(0,0,0)
(0,0,0)
(0,0,0)
(0,0,0)
(0,0,0)
(0,0,0)
(0,0,0)
(0,0,0)
(0,0,0)
(0,0,0)
(0,0,0)
(0,0,0)
(0,0,0)
(0,0,0)
(0,0,0)
(0,0,0)
(0,0,0)
(0,0,0)
(0,0,0)
(0,0,0)
(0,0,0)
(0,0,0)
(0,0,0)
(0,0,0)
(0,0,0)
(0,0,0)
(0,0,0)
(0,0,0)
(0,0,0)
(0,0,0)
(0,0,0)
(0,0,0)
(0,0,0)
(0,0,0)
(0,0,0)
(0,0,0)
(0,0,0)
(0,0,0)
(0,0,0)
(0,0,0)
(0,0,0)
(0,0,0)
(0,0,0)
(0,0,0)
(0,0,0)
(0,0,0)
(0,0,0)
(0,0,0)
(0,0,0)
(0,0,0)
(0,0,0)
(0,0,0)
(0,0,0)
(0,0,0)
(0,0,0)
(0,0,0)
(0,0,0)
(0,0,0)
(0,0,0)
(0,0,0)
(0,0,0)
(0,0,0)
(0,0,0)
(0,0,0)
(0,0,0)
(0,0,0)
(0,0,0)
(0,0,0)
(0,0,0)
(0,0,0)
(0,0,0)
(0,0,0)
(0,0,0)
(0,0,0)
(0,0,0)
(0,0,0)
(0,0,0)
(0,0,0)
(0,0,0)
(0,0,0)
(0,0,0)
(0,0,0)
(0,0,0)
(0,0,0)
(0,0,0)
(0,0,0)
(0,0,0)
(0,0,0)
(0,0,0)
(0,0,0)
(0,0,0)
(0,0,0)
(0,0,0)
(0,0,0)
(0,0,0)
(0,0,0)
(0,0,0)
(0,0,0)
(0,0,0)
(0,0,0)
(0,0,0)
(0,0,0)
(0,0,0)
(0,0,0)
(0,0,0)
(0,0,0)
(0,0,0)
(0,0,0)
(0,0,0)
(0,0,0)
(0,0,0)
(0,0,0)
(0,0,0)
(0,0,0)
(0,0,0)
(0,0,0)
(0,0,0)
(0,0,0)
(0,0,0)
(0,0,0)
(0,0,0)
(0,0,0)
(0,0,0)
(0,0,0)
(0,0,0)
(0,0,0)
(0,0,0)
(0,0,0)
(0,0,0)
(0,0,0)
(0,0,0)
(0,0,0)
(0,0,0)
(0,0,0)
(0,0,0)
(0,0,0)
(0,0,0)
(0,0,0)
(0,0,0)
(0,0,0)
(0,0,0)
(0,0,0)
(0,0,0)
(0,0,0)
(0,0,0)
(0,0,0)
(0,0,0)
(0,0,0)
(0,0,0)
(0,0,0)
(0,0,0)
(0,0,0)
(0,0,0)
(0,0,0)
(0,0,0)
(0,0,0)
(0,0,0)
(0,0,0)
(0,0,0)
(0,0,0)
(0,0,0)
(0,0,0)
(0,0,0)
(0,0,0)
(0,0,0)
(0,0,0)
(0,0,0)
(0,0,0)
(0,0,0)
(0,0,0)
(0,0,0)
(0,0,0)
(0,0,0)
(0,0,0)
(0,0,0)
(0,0,0)
(0,0,0)
(0,0,0)
(0,0,0)
(0,0,0)
(0,0,0)
(0,0,0)
(0,0,0)
(0,0,0)
(0,0,0)
(0,0,0)
(0,0,0)
(0,0,0)
(0,0,0)
(0,0,0)
(0,0,0)
(0,0,0)
(0,0,0)
(0,0,0)
(0,0,0)
(0,0,0)
(0,0,0)
(0,0,0)
(0,0,0)
(0,0,0)
(0,0,0)
(0,0,0)
(0,0,0)
(0,0,0)
(0,0,0)
(0,0,0)
(0,0,0)
(0,0,0)
(0,0,0)
(0,0,0)
(0,0,0)
(0,0,0)
(0,0,0)
(0,0,0)
(0,0,0)
(0,0,0)
(0,0,0)
(0,0,0)
(0,0,0)
(0,0,0)
(0,0,0)
(0,0,0)
(0,0,0)
(0,0,0)
(0,0,0)
(0,0,0)
(0,0,0)
(0,0,0)
(0,0,0)
(0,0,0)
(0,0,0)
(0,0,0)
(0,0,0)
(0,0,0)
(0,0,0)
(0,0,0)
(0,0,0)
(0,0,0)
(0,0,0)
(0,0,0)
(0,0,0)
(0,0,0)
(0,0,0)
(0,0,0)
(0,0,0)
(0,0,0)
(0,0,0)
(0,0,0)
(0,0,0)
(0,0,0)
(0,0,0)
(0,0,0)
(0,0,0)
(0,0,0)
(0,0,0)
(0,0,0)
(0,0,0)
(0,0,0)
(0,0,0)
(0,0,0)
(0,0,0)
(0,0,0)
(0,0,0)
(0,0,0)
(0,0,0)
(0,0,0)
(0,0,0)
(0,0,0)
(0,0,0)
(0,0,0)
(0,0,0)
(0,0,0)
(0,0,0)
(0,0,0)
(0,0,0)
(0,0,0)
(0,0,0)
(0,0,0)
(0,0,0)
(0,0,0)
(0,0,0)
(0,0,0)
(0,0,0)
(0,0,0)
(0,0,0)
(0,0,0)
(0,0,0)
(0,0,0)
(0,0,0)
(0,0,0)
(0,0,0)
(0,0,0)
(0,0,0)
(0,0,0)
(0,0,0)
(0,0,0)
(0,0,0)
(0,0,0)
(0,0,0)
(0,0,0)
(0,0,0)
(0,0,0)
(0,0,0)
(0,0,0)
(0,0,0)
(0,0,0)
(0,0,0)
(0,0,0)
(0,0,0)
(0,0,0)
(0,0,0)
(0,0,0)
(0,0,0)
(0,0,0)
(0,0,0)
(0,0,0)
(0,0,0)
(0,0,0)
(0,0,0)
(0,0,0)
(0,0,0)
(0,0,0)
(0,0,0)
(0,0,0)
(0,0,0)
(0,0,0)
(0,0,0)
(0,0,0)
(0,0,0)
(0,0,0)
(0,0,0)
(0,0,0)
(0,0,0)
(0,0,0)
(0,0,0)
(0,0,0)
(0,0,0)
(0,0,0)
(0,0,0)
(0,0,0)
(0,0,0)
(0,0,0)
(0,0,0)
(0,0,0)
(0,0,0)
(0,0,0)
(0,0,0)
(0,0,0)
(0,0,0)
(0,0,0)
(0,0,0)
(0,0,0)
(0,0,0)
(0,0,0)
(0,0,0)
(0,0,0)
(0,0,0)
(0,0,0)
(0,0,0)
(0,0,0)
(0,0,0)
(0,0,0)
(0,0,0)
(0,0,0)
(0,0,0)
(0,0,0)
(0,0,0)
(0,0,0)
(0,0,0)
(0,0,0)
(0,0,0)
(0,0,0)
(0,0,0)
(0,0,0)
(0,0,0)
(0,0,0)
(0,0,0)
(0,0,0)
(0,0,0)
(0,0,0)
(0,0,0)
(0,0,0)
(0,0,0)
(0,0,0)
(0,0,0)
(0,0,0)
(0,0,0)
(0,0,0)
(0,0,0)
(0,0,0)
(0,0,0)
(0,0,0)
(0,0,0)
(0,0,0)
(0,0,0)
(0,0,0)
(0,0,0)
(0,0,0)
(0,0,0)
(0,0,0)
(0,0,0)
(0,0,0)
(0,0,0)
(0,0,0)
(0,0,0)
(0,0,0)
(0,0,0)
(0,0,0)
(0,0,0)
(0,0,0)
(0,0,0)
(0,0,0)
(0,0,0)
(0,0,0)
(0,0,0)
(0,0,0)
(0,0,0)
(0,0,0)
(0,0,0)
(0,0,0)
(0,0,0)
(0,0,0)
(0,0,0)
(0,0,0)
(0,0,0)
(0,0,0)
(0,0,0)
(0,0,0)
(0,0,0)
(0,0,0)
(0,0,0)
(0,0,0)
(0,0,0)
(0,0,0)
(0,0,0)
(0,0,0)
(0,0,0)
(0,0,0)
(0,0,0)
(0,0,0)
(0,0,0)
(0,0,0)
(0,0,0)
(0,0,0)
(0,0,0)
(0,0,0)
(0,0,0)
(0,0,0)
(0,0,0)
(0,0,0)
(0,0,0)
(0,0,0)
(0,0,0)
(0,0,0)
(0,0,0)
(0,0,0)
(0,0,0)
(0,0,0)
(0,0,0)
(0,0,0)
(0,0,0)
(0,0,0)
(0,0,0)
(0,0,0)
(0,0,0)
(0,0,0)
(0,0,0)
(0,0,0)
(0,0,0)
(0,0,0)
(0,0,0)
(0,0,0)
(0,0,0)
(0,0,0)
(0,0,0)
(0,0,0)
(0,0,0)
(0,0,0)
(0,0,0)
(0,0,0)
(0,0,0)
(0,0,0)
(0,0,0)
(0,0,0)
(0,0,0)
(0,0,0)
(0,0,0)
(0,0,0)
(0,0,0)
(0,0,0)
(0,0,0)
(0,0,0)
(0,0,0)
(0,0,0)
(0,0,0)
(0,0,0)
(0,0,0)
(0,0,0)
(0,0,0)
(0,0,0)
(0,0,0)
(0,0,0)
(0,0,0)
(0,0,0)
(0,0,0)
(0,0,0)
(0,0,0)
(0,0,0)
(0,0,0)
(0,0,0)
(0,0,0)
(0,0,0)
(0,0,0)
(0,0,0)
(0,0,0)
(0,0,0)
(0,0,0)
(0,0,0)
(0,0,0)
(0,0,0)
(0,0,0)
(0,0,0)
(0,0,0)
(0,0,0)
(0,0,0)
(0,0,0)
(0,0,0)
(0,0,0)
(0,0,0)
(0,0,0)
(0,0,0)
(0,0,0)
(0,0,0)
(0,0,0)
(0,0,0)
(0,0,0)
(0,0,0)
(0,0,0)
(0,0,0)
(0,0,0)
(0,0,0)
(0,0,0)
(0,0,0)
(0,0,0)
(0,0,0)
(0,0,0)
(0,0,0)
(0,0,0)
(0,0,0)
(0,0,0)
(0,0,0)
(0,0,0)
(0,0,0)
(0,0,0)
(0,0,0)
(0,0,0)
(0,0,0)
(0,0,0)
(0,0,0)
(0,0,0)
(0,0,0)
(0,0,0)
(0,0,0)
(0,0,0)
(0,0,0)
(0,0,0)
(0,0,0)
(0,0,0)
(0,0,0)
(0,0,0)
(0,0,0)
(0,0,0)
(0,0,0)
(0,0,0)
(0,0,0)
(0,0,0)
(0,0,0)
(0,0,0)
(0,0,0)
(0,0,0)
(0,0,0)
(0,0,0)
(0,0,0)
(0,0,0)
(0,0,0)
(0,0,0)
(0,0,0)
(0,0,0)
(0,0,0)
(0,0,0)
(0,0,0)
(0,0,0)
(0,0,0)
(0,0,0)
(0,0,0)
(0,0,0)
(0,0,0)
(0,0,0)
(0,0,0)
(0,0,0)
(0,0,0)
(0,0,0)
(0,0,0)
(0,0,0)
(0,0,0)
(0,0,0)
(0,0,0)
(0,0,0)
(0,0,0)
(0,0,0)
(0,0,0)
(0,0,0)
(0,0,0)
(0,0,0)
(0,0,0)
(0,0,0)
(0,0,0)
(0,0,0)
(0,0,0)
(0,0,0)
(0,0,0)
(0,0,0)
(0,0,0)
(0,0,0)
(0,0,0)
(0,0,0)
(0,0,0)
(0,0,0)
(0,0,0)
(0,0,0)
(0,0,0)
(0,0,0)
(0,0,0)
(0,0,0)
(0,0,0)
(0,0,0)
(0,0,0)
(0,0,0)
(0,0,0)
(0,0,0)
(0,0,0)
(0,0,0)
(0,0,0)
(0,0,0)
(0,0,0)
(0,0,0)
(0,0,0)
(0,0,0)
(0,0,0)
(0,0,0)
(0,0,0)
(0,0,0)
(0,0,0)
(0,0,0)
(0,0,0)
(0,0,0)
(0,0,0)
(0,0,0)
(0,0,0)
(0,0,0)
(0,0,0)
(0,0,0)
(0,0,0)
(0,0,0)
(0,0,0)
(0,0,0)
(0,0,0)
(0,0,0)
(0,0,0)
(0,0,0)
(0,0,0)
(0,0,0)
(0,0,0)
(0,0,0)
(0,0,0)
(0,0,0)
(0,0,0)
(0,0,0)
(0,0,0)
(0,0,0)
(0,0,0)
(0,0,0)
(0,0,0)
(0,0,0)
(0,0,0)
(0,0,0)
(0,0,0)
(0,0,0)
(0,0,0)
(0,0,0)
(0,0,0)
(0,0,0)
(0,0,0)
(0,0,0)
(0,0,0)
(0,0,0)
(0,0,0)
(0,0,0)
(0,0,0)
(0,0,0)
(0,0,0)
(0,0,0)
(0,0,0)
(0,0,0)
(0,0,0)
(0,0,0)
(0,0,0)
(0,0,0)
(0,0,0)
(0,0,0)
(0,0,0)
(0,0,0)
(0,0,0)
(0,0,0)
(0,0,0)
(0,0,0)
(0,0,0)
(0,0,0)
(0,0,0)
(0,0,0)
(0,0,0)
(0,0,0)
(0,0,0)
(0,0,0)
(0,0,0)
(0,0,0)
(0,0,0)
(0,0,0)
(0,0,0)
(0,0,0)
(0,0,0)
(0,0,0)
(0,0,0)
(0,0,0)
(0,0,0)
(0,0,0)
(0,0,0)
(0,0,0)
(0,0,0)
(0,0,0)
(0,0,0)
(0,0,0)
(0,0,0)
(0,0,0)
(0,0,0)
(0,0,0)
(0,0,0)
(0,0,0)
(0,0,0)
(0,0,0)
(0,0,0)
(0,0,0)
(0,0,0)
(0,0,0)
(0,0,0)
(0,0,0)
(0,0,0)
(0,0,0)
(0,0,0)
(0,0,0)
(0,0,0)
(0,0,0)
(0,0,0)
(0,0,0)
(0,0,0)
(0,0,0)
(0,0,0)
(0,0,0)
(0,0,0)
(0,0,0)
(0,0,0)
(0,0,0)
(0,0,0)
(0,0,0)
(0,0,0)
(0,0,0)
(0,0,0)
(0,0,0)
(0,0,0)
(0,0,0)
(0,0,0)
(0,0,0)
(0,0,0)
(0,0,0)
(0,0,0)
(0,0,0)
(0,0,0)
(-66064.7733933998,34881.7481060822,31183.0252873175)
(-69906.3867035067,33497.8399394752,67591.5720513491)
(-78825.4815564761,30524.4296937889,115892.623914036)
(-95637.6288137998,25814.1435264004,185716.109201438)
(-125893.687062526,19437.2214254849,292172.574838484)
(-180144.823977974,12102.6462026775,460214.752613768)
(-278383.353586032,5431.38949940489,733166.716700428)
(-455834.240964566,1335.70357367945,1187665.25409131)
(-751861.410938099,-8.18525056854544,1939534.85028003)
(-1047644.71982301,-101.871306349316,2987281.4414094)
(0,0,0)
(0,0,0)
(0,0,0)
(0,0,0)
(0,0,0)
(0,0,0)
(-69961.2521421398,75134.4559544629,29708.5442937588)
(-73821.2839684786,72488.3631781868,64539.3050235289)
(-82883.1325456613,66827.8696137281,111118.997649248)
(-100088.050305308,57747.5148470253,179273.676633934)
(-131166.434747951,45140.0195800564,284737.313227312)
(-186710.833576865,30107.4801294945,453443.312877366)
(-286015.9413283,15886.2307142464,729004.412990792)
(-462797.861571696,6867.52245202827,1186270.45568411)
(-756523.167208435,3351.61325708848,1939433.82438495)
(-1049825.64473215,1728.0588395589,2987429.53897111)
(0,0,0)
(0,0,0)
(0,0,0)
(0,0,0)
(0,0,0)
(0,0,0)
(-78772.2351878365,126929.782672704,26976.9084695942)
(-82714.9017858324,123392.906528447,58787.2669051667)
(-92057.5201791348,115743.710547266,101928.946150769)
(-110090.38177257,103204.14622873,166562.696541636)
(-143128.975851053,85242.4902436007,269589.201729145)
(-202113.68823218,62710.4616773695,439099.90841345)
(-304809.065372764,39876.2676850156,719918.936815448)
(-480089.865327352,24186.9548629392,1182689.36973186)
(-767672.204020317,15952.5242982036,1937760.66271113)
(-1054883.80667766,8685.12716133077,2985687.401067)
(0,0,0)
(0,0,0)
(0,0,0)
(0,0,0)
(0,0,0)
(0,0,0)
(-95183.8246656521,198883.698522883,23229.908815474)
(-99176.9720319206,194898.015465173,50901.7719106702)
(-108847.878407019,186321.93131109,89171.4295538589)
(-128114.701053718,172093.692188266,148396.584648036)
(-164408.279199589,151124.258735371,246923.095355857)
(-229990.502892443,123474.798189945,416149.261735719)
(-340819.190673725,92720.775679756,704123.944414715)
(-513589.280364314,67568.8416658562,1174331.33797608)
(-788102.207556485,48012.9706684344,1930373.09916229)
(-1063784.43671536,25861.5160287309,2976981.14701035)
(0,0,0)
(0,0,0)
(0,0,0)
(0,0,0)
(0,0,0)
(0,0,0)
(-124506.664726401,304330.495360683,19059.8678886005)
(-128466.023139096,300400.329723741,42023.5767691281)
(-138307.080337639,292024.881966967,74627.7064508882)
(-158612.323243378,278155.070017257,127178.65186528)
(-198272.134919934,257470.996866851,219104.048653739)
(-272013.733505926,229298.623233605,385293.95711599)
(-395634.828003733,194725.639513314,678923.92128617)
(-564556.988931722,156373.918054609,1154675.83382916)
(-817760.552631953,112385.219844602,1908064.137285)
(-1076651.72495034,59567.8482913265,2951009.52997275)
(0,0,0)
(0,0,0)
(0,0,0)
(0,0,0)
(0,0,0)
(0,0,0)
(-177378.26765816,466662.128708114,15046.634310729)
(-181156.719330948,463148.340494155,33455.342871261)
(-190666.247759805,455654.086142314,60492.3864557188)
(-210757.414273713,443151.268174455,106253.60257223)
(-250830.647973358,423867.522091239,190687.725321201)
(-325928.420253402,395415.46213397,350499.306674245)
(-449888.830422139,354639.656729274,640474.119880449)
(-611148.087761414,297473.633031276,1110522.49266518)
(-849888.440336561,217814.798651531,1854981.35419484)
(-1092840.59646205,116291.734988744,2891098.0639594)
(0,0,0)
(0,0,0)
(0,0,0)
(0,0,0)
(0,0,0)
(0,0,0)
(-274485.403915736,729671.285810576,11476.2468132765)
(-277829.556669627,726626.715521702,25827.4284553544)
(-286339.286000996,720037.778291807,47783.0223068622)
(-304665.375360804,708797.004666253,86802.6611758718)
(-341862.28150986,690468.295125236,162064.169651736)
(-412376.877119115,660339.553928648,309516.954976165)
(-528673.658777043,609676.049422873,583154.221059612)
(-675313.825453572,525305.676341901,1030636.00320255)
(-897796.762422632,393097.162974125,1753150.40130253)
(-1119272.48947297,214226.952839882,2774487.6729244)
(0,0,0)
(0,0,0)
(0,0,0)
(0,0,0)
(0,0,0)
(0,0,0)
(-452031.765727242,1173327.46916887,8375.58236893621)
(-454710.079953806,1170519.13074449,19193.2470999602)
(-461564.246160348,1164324.72381767,36470.5477344533)
(-476434.668508581,1153280.11771191,68422.1031973629)
(-506976.308844783,1134008.65622903,131858.050938341)
(-565571.176421483,1099086.07536221,258682.705926261)
(-662934.587737804,1032743.94420549,498549.398881429)
(-781673.612023251,907437.632744448,898091.054502145)
(-984871.459376633,702129.075806685,1573930.60104622)
(-1169868.38064145,398066.350263227,2559959.58426426)
(0,0,0)
(0,0,0)
(0,0,0)
(0,0,0)
(0,0,0)
(0,0,0)
(-749294.176928688,1917067.7034929,5553.9426046472)
(-751111.985258775,1914175.63539205,13009.4232158766)
(-755770.354663047,1907656.33568009,25448.1660164692)
(-765748.893228467,1895327.4131025,49149.7638543486)
(-785899.44602144,1872203.04961079,96854.8164940473)
(-823820.674011067,1827526.99730235,192234.568564957)
(-887572.237148394,1739473.07058822,373077.679330619)
(-982407.840783484,1570485.03565702,692438.117201528)
(-1145548.45321862,1270687.9328095,1269427.7134173)
(-1258146.96865357,764128.124714684,2161512.90761943)
(0,0,0)
(0,0,0)
(0,0,0)
(0,0,0)
(0,0,0)
(0,0,0)
(-1046447.04446658,2960682.37452715,2832.37343231639)
(-1047364.5069056,2957680.32692436,6692.18880560528)
(-1049699.3440174,2950703.56359771,13344.3049054182)
(-1054596.77727851,2937047.33196798,26221.1633184699)
(-1064335.86712324,2910543.67071905,52216.4093334649)
(-1082599.4992083,2858226.92646982,104115.979374288)
(-1114512.34122462,2754189.98900756,203911.402179562)
(-1168341.12806063,2550427.33192866,392310.233968519)
(-1257865.96122494,2158430.58557303,762433.542429916)
(-1266846.76734306,1396433.3182767,1396975.11621096)
(0,0,0)
(0,0,0)
(0,0,0)
(0,0,0)
(0,0,0)
(0,0,0)
(0,0,0)
(0,0,0)
(0,0,0)
(0,0,0)
(0,0,0)
(0,0,0)
(0,0,0)
(0,0,0)
(0,0,0)
(0,0,0)
(0,0,0)
(0,0,0)
(0,0,0)
(0,0,0)
(0,0,0)
(0,0,0)
(0,0,0)
(0,0,0)
(0,0,0)
(0,0,0)
(0,0,0)
(0,0,0)
(0,0,0)
(0,0,0)
(0,0,0)
(0,0,0)
(0,0,0)
(0,0,0)
(0,0,0)
(0,0,0)
(0,0,0)
(0,0,0)
(0,0,0)
(0,0,0)
(0,0,0)
(0,0,0)
(0,0,0)
(0,0,0)
(0,0,0)
(0,0,0)
(0,0,0)
(0,0,0)
(0,0,0)
(0,0,0)
(0,0,0)
(0,0,0)
(0,0,0)
(0,0,0)
(0,0,0)
(0,0,0)
(0,0,0)
(0,0,0)
(0,0,0)
(0,0,0)
(0,0,0)
(0,0,0)
(0,0,0)
(0,0,0)
(0,0,0)
(0,0,0)
(0,0,0)
(0,0,0)
(0,0,0)
(0,0,0)
(0,0,0)
(0,0,0)
(0,0,0)
(0,0,0)
(0,0,0)
(0,0,0)
(0,0,0)
(0,0,0)
(0,0,0)
(0,0,0)
(0,0,0)
(0,0,0)
(0,0,0)
(0,0,0)
(0,0,0)
(0,0,0)
(0,0,0)
(0,0,0)
(0,0,0)
(0,0,0)
(0,0,0)
(0,0,0)
(0,0,0)
(0,0,0)
(0,0,0)
(0,0,0)
(0,0,0)
(0,0,0)
(0,0,0)
(0,0,0)
(0,0,0)
(0,0,0)
(9827145.2108575,31102.3005717428,27327.7600480151)
(9820685.19378451,29672.8084622684,58703.4159683468)
(9805847.27188473,26540.5826481027,99130.1247496234)
(9778228.45074778,21428.0141019574,155476.075956663)
(9729101.09294719,14211.6596115666,237909.681206003)
(9641821.61283371,5556.84060229793,362026.448662555)
(9481739.73805803,-2199.065902475,555742.467791556)
(9165559.1468314,-5620.09488476781,891609.219750908)
(8452267.49947088,-4639.72608655192,1643760.08029906)
(6514992.72870342,-2258.93462976068,4035021.61127302)
(0,0,0)
(0,0,0)
(0,0,0)
(0,0,0)
(0,0,0)
(0,0,0)
(9820498.98873703,66465.9920094576,25816.1125537685)
(9814068.7573137,63731.9795493164,55506.9450551958)
(9799103.12377628,57763.2165595452,93938.0996924305)
(9770942.65296719,47813.0960292782,148162.359363192)
(9720494.43466027,33204.6973557781,229148.497081393)
(9630784.58067182,14698.9595215445,354151.008784058)
(9468277.22922943,-2940.56660647893,552239.383801048)
(9153417.5407109,-10473.6072699995,892517.538774315)
(8444698.30737571,-7822.30044580889,1646118.68341998)
(6511684.52986289,-3342.13862940755,4037331.75769512)
(0,0,0)
(0,0,0)
(0,0,0)
(0,0,0)
(0,0,0)
(0,0,0)
(9805600.35616118,110717.054077134,23016.3914539173)
(9799145.72704426,107069.07943899,49458.7076048011)
(9783900.43490796,99030.3180226835,83873.6959252194)
(9754532.00867699,85246.0392387755,133458.407136833)
(9700625.29953653,63987.0574319354,210561.816543643)
(9603568.7408357,34826.1843540054,336392.20751392)
(9431783.81013657,3847.5365141125,544651.273754633)
(9119935.33026537,-9323.55313433408,895116.068896989)
(8425200.98539652,-4506.03730700269,1650566.66121191)
(6503577.9348322,-266.174086649647,4040669.00002998)
(0,0,0)
(0,0,0)
(0,0,0)
(0,0,0)
(0,0,0)
(0,0,0)
(9778241.42903083,169721.947150214,19209.8981010447)
(9771799.85349739,165727.594971801,41214.6019096032)
(9756224.87431644,156930.719296464,69881.4927830057)
(9724971.00244807,141652.675492152,112029.197898524)
(9664673.21433534,117274.256304925,181300.550361203)
(9551026.53013534,81428.8226906502,305320.923867414)
(9350699.80793898,37877.5155839666,531411.991055497)
(9043693.38377664,16596.6805366045,899849.138114228)
(8385841.45550491,18329.6529704485,1654709.82964595)
(6488468.28116963,12962.5556283347,4040868.42691667)
(0,0,0)
(0,0,0)
(0,0,0)
(0,0,0)
(0,0,0)
(0,0,0)
(9730216.39810314,251570.13070762,15068.7984836726)
(9723951.02821003,247842.424743852,32176.9622330869)
(9708323.28937609,239770.448134494,54346.9085520009)
(9675451.22411615,226093.610915975,87482.4706392594)
(9607828.23799756,204965.376092841,145331.022804496)
(9469333.90689953,175376.013914594,261676.236045746)
(9205032.06800429,140444.268560339,510082.631931978)
(8902448.63109817,109788.505057408,901525.23225195)
(8324244.40980287,80267.3048295999,1649222.66282848)
(6466025.28897796,43370.1731621877,4027778.07623702)
(0,0,0)
(0,0,0)
(0,0,0)
(0,0,0)
(0,0,0)
(0,0,0)
(9644859.23925917,369719.021098098,11253.6475627954)
(9639013.4049569,366617.276210136,23948.7166792704)
(9624155.58718152,360081.695356372,40455.6793867169)
(9591908.26745757,349321.212239914,66202.4412022019)
(9523514.47253214,332877.8055307,115584.936129462)
(9381149.20863334,308961.800391546,226561.565636411)
(9113637.06183831,275835.511687412,479284.475119538)
(8824410.71153022,233308.402301796,871845.823454105)
(8271867.90461415,169899.972816777,1612096.85538685)
(6440324.71814108,89842.7514085715,3984099.00740804)
(0,0,0)
(0,0,0)
(0,0,0)
(0,0,0)
(0,0,0)
(0,0,0)
(9486487.00408921,552275.889760773,8110.76820302538)
(9481396.47229468,549862.582265163,17279.4780542953)
(9468278.28402863,544916.354053525,29467.2941981821)
(9439047.19337546,537103.957850053,49612.024722402)
(9375323.27107048,525410.518736758,91533.8038066228)
(9239305.89776317,507195.650831411,193257.223355096)
(8980029.42036835,475451.321189701,436578.379578018)
(8719017.77459274,418968.257031806,808226.969672376)
(8194216.87484641,306007.14874609,1531746.20134463)
(6396404.70758615,163613.497301089,3893938.30326371)
(0,0,0)
(0,0,0)
(0,0,0)
(0,0,0)
(0,0,0)
(0,0,0)
(9170025.87197965,876173.325652978,5684.97127159356)
(9166001.05442068,874182.614106604,12293.8499262945)
(9155565.3675991,870167.675742674,21552.9593482838)
(9132002.2084403,864000.759386486,37859.3257336693)
(9079552.72075642,855120.490243916,73260.369495866)
(8964258.17336197,840894.838704247,161371.876710246)
(8737473.34840852,808180.780882,379874.525742182)
(8567031.60499941,706789.445182204,694988.165439698)
(8037250.43612922,541495.078491506,1389018.38505897)
(6294597.29231144,309792.449027627,3730013.80525015)
(0,0,0)
(0,0,0)
(0,0,0)
(0,0,0)
(0,0,0)
(0,0,0)
(8454821.90072318,1619970.56045389,3726.73241782151)
(8452118.7228438,1617979.36003137,8339.32326114456)
(8445160.6369858,1613792.22830577,15423.8239198198)
(8429780.86205345,1606559.40321664,28975.4696783048)
(8396993.70569815,1593879.75806685,58963.0950063796)
(8330257.51584965,1568869.89014798,128549.898572553)
(8209828.75054812,1512651.2967952,278318.439833485)
(8040222.91388764,1384697.34605995,529419.829155266)
(7561585.06985548,1158481.88426592,1156939.54517739)
(5984870.07451519,755488.944497652,3419866.05140915)
(0,0,0)
(0,0,0)
(0,0,0)
(0,0,0)
(0,0,0)
(0,0,0)
(6515951.57267245,4007292.08298501,1919.90520043434)
(6514604.14729447,4005189.88556166,4380.77034069009)
(6511166.51638695,4000532.70692564,8414.47618703887)
(6503778.57905287,3991793.77592364,16444.7920193477)
(6488560.27625273,3975100.4443644,33968.0072164978)
(6458576.804294,3941058.7135892,72242.9251436875)
(6402971.12867405,3868910.34166729,150140.455243555)
(6296276.96407435,3718991.23391757,302868.520121579)
(5985136.51698771,3416466.50950981,753521.461535654)
(4866424.63800907,2663415.27082698,2663963.77472478)
(0,0,0)
(0,0,0)
(0,0,0)
(0,0,0)
(0,0,0)
(0,0,0)
(0,0,0)
(0,0,0)
(0,0,0)
(0,0,0)
(0,0,0)
(0,0,0)
(0,0,0)
(0,0,0)
(0,0,0)
(0,0,0)
(0,0,0)
(0,0,0)
(0,0,0)
(0,0,0)
(0,0,0)
(0,0,0)
(0,0,0)
(0,0,0)
(0,0,0)
(0,0,0)
(0,0,0)
(0,0,0)
(0,0,0)
(0,0,0)
(0,0,0)
(0,0,0)
(0,0,0)
(0,0,0)
(0,0,0)
(0,0,0)
(0,0,0)
(0,0,0)
(0,0,0)
(0,0,0)
(0,0,0)
(0,0,0)
(0,0,0)
(0,0,0)
(0,0,0)
(0,0,0)
(0,0,0)
(0,0,0)
(0,0,0)
(0,0,0)
(0,0,0)
(0,0,0)
(0,0,0)
(0,0,0)
(0,0,0)
(0,0,0)
(0,0,0)
(0,0,0)
(0,0,0)
(0,0,0)
(0,0,0)
(0,0,0)
(0,0,0)
(0,0,0)
(0,0,0)
(0,0,0)
(0,0,0)
(0,0,0)
(0,0,0)
(0,0,0)
(0,0,0)
(0,0,0)
(0,0,0)
(0,0,0)
(0,0,0)
(0,0,0)
(0,0,0)
(0,0,0)
(0,0,0)
(0,0,0)
(0,0,0)
(0,0,0)
(0,0,0)
(0,0,0)
(0,0,0)
(0,0,0)
(0,0,0)
(0,0,0)
(0,0,0)
(0,0,0)
(0,0,0)
(0,0,0)
(0,0,0)
(0,0,0)
(0,0,0)
(0,0,0)
(0,0,0)
(0,0,0)
(0,0,0)
(0,0,0)
(0,0,0)
(0,0,0)
(-170046.729481595,24651.4788288298,20900.4166396086)
(-177187.474971461,23190.569011793,43942.471513168)
(-193300.079018742,19917.9745190162,71531.8030270359)
(-222506.48309734,14282.6928638946,106343.999137688)
(-272470.118786101,5710.89502916878,150564.27097119)
(-355780.148359592,-5429.13805915675,201955.125353103)
(-491854.708447586,-15642.9286892733,239552.455677391)
(-707021.602978983,-17751.7553064388,178244.915923656)
(-1015460.51359439,-12192.2049064295,-293474.910975287)
(-1244934.09414226,-5570.46791163808,-2479617.66508856)
(0,0,0)
(0,0,0)
(0,0,0)
(0,0,0)
(0,0,0)
(0,0,0)
(-177630.919832923,51775.3954171134,19365.9471110159)
(-184625.575028823,48992.4521420928,40618.3514525862)
(-200567.923759885,42727.4558393995,65839.8727977478)
(-229819.08331761,31540.0644980732,97704.1925777872)
(-280501.241664313,13402.0113100679,139368.707750846)
(-366038.543465602,-12516.0778242051,191638.726782712)
(-505297.133812322,-39461.7821246808,237391.898389172)
(-718382.651795212,-43989.0343248327,183789.325043042)
(-1021178.58589444,-27325.5583540087,-286840.473109762)
(-1246941.33414884,-11437.530542178,-2473987.59133815)
(0,0,0)
(0,0,0)
(0,0,0)
(0,0,0)
(0,0,0)
(0,0,0)
(-194436.398817205,83631.5109945583,16540.5945303288)
(-201197.028920739,79960.98108489,34274.7766818804)
(-216840.155349741,71549.307658536,54553.4702497892)
(-246371.041879952,55832.3749600411,79524.165474091)
(-299640.074331583,28090.9325802136,113460.573201501)
(-393963.70499803,-17754.5049021755,164591.401242578)
(-550243.382858315,-77306.6355557359,232823.402797886)
(-757711.331421423,-85603.6335640103,200444.618853121)
(-1038474.71675491,-43893.4447343457,-270951.837485664)
(-1252512.16978919,-15393.0931639987,-2462546.2151131)
(0,0,0)
(0,0,0)
(0,0,0)
(0,0,0)
(0,0,0)
(0,0,0)
(-224430.893811739,121885.746591345,12778.0423751759)
(-230820.418654271,118036.457723625,25682.7930174245)
(-245992.787154365,109158.995890728,38650.7213853958)
(-276098.825851522,92218.6052360824,51694.2745382622)
(-335266.237422747,60448.2326457626,67636.3813601997)
(-455386.189321532,-349.834240233133,105004.385284502)
(-689795.734924639,-107931.114127984,224484.361849741)
(-886386.682313439,-124759.322635399,242080.072140589)
(-1081694.94141827,-43354.2169164383,-242562.80362472)
(-1264371.8448156,-9506.23905988224,-2447249.57661428)
(0,0,0)
(0,0,0)
(0,0,0)
(0,0,0)
(0,0,0)
(0,0,0)
(-274685.595994734,166343.450429858,8804.24538873755)
(-280505.03718414,163060.871455843,16595.8521800921)
(-294811.336846562,155727.796567343,21521.6328554561)
(-324902.944717515,142609.649548706,19844.7125058877)
(-391046.162458398,120682.815517623,6844.48521933948)
(-560351.106750631,87112.7596329896,-2573.13987436576)
(-1113618.77593838,48881.5677961526,207624.977273524)
(-1321372.2955345,31652.7189691443,323393.817430988)
(-1166321.73351641,27858.6143599409,-208892.915396651)
(-1283760.49425802,17661.9398209765,-2437915.35591208)
(0,0,0)
(0,0,0)
(0,0,0)
(0,0,0)
(0,0,0)
(0,0,0)
(-357387.157804252,211537.548163905,5412.25445877454)
(-362467.012735307,209192.92716592,9120.57157030111)
(-375259.592008701,204342.283824387,8281.21863282977)
(-403230.445521949,196521.326005667,-2131.78971531368)
(-467525.790196136,184694.585309079,-26743.3416491085)
(-636278.508754076,167035.289783942,-40878.1992832795)
(-1162248.92563343,142062.03607052,190187.275043423)
(-1352567.94694942,127820.989482427,319357.61813919)
(-1205435.7642772,92228.0378332857,-219348.181313478)
(-1303051.88276747,45915.5856718738,-2455865.27112641)
(0,0,0)
(0,0,0)
(0,0,0)
(0,0,0)
(0,0,0)
(0,0,0)
(-492626.728110446,235971.241487692,3039.99400521089)
(-496802.654756757,234627.074469453,4164.92888250975)
(-507524.755191464,232354.116739717,316.090316602746)
(-531863.711890916,230136.464175112,-14028.1874570928)
(-590842.001477047,229664.483732855,-44472.8582039547)
(-755931.941776379,232144.307279028,-65984.0810301038)
(-1304033.14143253,232853.987713578,175646.484257126)
(-1479590.54768836,266953.025984594,283482.725165385)
(-1264774.24816274,149034.210240184,-265972.369102971)
(-1335008.9835713,61808.792754877,-2502091.9298992)
(0,0,0)
(0,0,0)
(0,0,0)
(0,0,0)
(0,0,0)
(0,0,0)
(-708450.289953487,161112.667408793,1694.69114135383)
(-711611.806452949,160431.234774977,1863.34683883515)
(-719778.128990429,159891.470777939,-1970.55548044099)
(-738818.618076973,161877.173320067,-14530.4829788288)
(-787558.185304814,172629.166067521,-42024.3041228295)
(-938840.720271134,206957.239938976,-65378.3880203144)
(-1536817.16199135,280618.838390938,209507.22683164)
(-1253487.69037479,180064.519634226,165274.983685605)
(-1312430.18198821,65901.9701817752,-353552.20300909)
(-1384635.99055364,93.525293313068,-2564243.69755299)
(0,0,0)
(0,0,0)
(0,0,0)
(0,0,0)
(0,0,0)
(0,0,0)
(-1018009.23798324,-318760.878944801,1064.64018941086)
(-1020051.55927567,-319375.465573442,1401.5777866254)
(-1025259.37532056,-319980.276635453,53.292635745361)
(-1036942.80282637,-319197.218683137,-3788.6953518004)
(-1063740.80253293,-314310.425707485,-7754.64021631548)
(-1127774.81850139,-302571.916910399,8166.80611345778)
(-1267819.09174717,-293981.165747888,108774.607676927)
(-1314392.6973573,-359037.343437498,50852.0371229413)
(-1435811.09495035,-417792.916991056,-419696.955769045)
(-1458826.66917351,-362862.42305019,-2564684.30860739)
(0,0,0)
(0,0,0)
(0,0,0)
(0,0,0)
(0,0,0)
(0,0,0)
(-1246884.29877824,-2508169.90512812,604.852763416844)
(-1247870.39656,-2508921.37383346,985.260007251754)
(-1250369.70065232,-2510125.25317904,1026.408719565)
(-1255778.21022555,-2511465.48648679,1211.42093096311)
(-1267275.47350318,-2512891.75975493,3988.45986368824)
(-1291379.16935048,-2516924.62102092,16657.0927480467)
(-1335994.50870622,-2533488.01093997,43489.5304498291)
(-1385946.2352988,-2576742.90294331,-8221.75554186946)
(-1459193.06783355,-2568201.0588604,-365124.073721877)
(-1408330.6432016,-2202670.1268602,-2202201.13357176)
(0,0,0)
(0,0,0)
(0,0,0)
(0,0,0)
(0,0,0)
(0,0,0)
(0,0,0)
(0,0,0)
(0,0,0)
(0,0,0)
(0,0,0)
(0,0,0)
(0,0,0)
(0,0,0)
(0,0,0)
(0,0,0)
(0,0,0)
(0,0,0)
(0,0,0)
(0,0,0)
(0,0,0)
(0,0,0)
(0,0,0)
(0,0,0)
(0,0,0)
(0,0,0)
(0,0,0)
(0,0,0)
(0,0,0)
(0,0,0)
(0,0,0)
(0,0,0)
(0,0,0)
(0,0,0)
(0,0,0)
(0,0,0)
(0,0,0)
(0,0,0)
(0,0,0)
(0,0,0)
(0,0,0)
(0,0,0)
(0,0,0)
(0,0,0)
(0,0,0)
(0,0,0)
(0,0,0)
(0,0,0)
(0,0,0)
(0,0,0)
(0,0,0)
(0,0,0)
(0,0,0)
(0,0,0)
(0,0,0)
(0,0,0)
(0,0,0)
(0,0,0)
(0,0,0)
(0,0,0)
(0,0,0)
(0,0,0)
(0,0,0)
(0,0,0)
(0,0,0)
(0,0,0)
(0,0,0)
(0,0,0)
(0,0,0)
(0,0,0)
(0,0,0)
(0,0,0)
(0,0,0)
(0,0,0)
(0,0,0)
(0,0,0)
(0,0,0)
(0,0,0)
(0,0,0)
(0,0,0)
(0,0,0)
(0,0,0)
(0,0,0)
(0,0,0)
(0,0,0)
(0,0,0)
(0,0,0)
(0,0,0)
(0,0,0)
(0,0,0)
(0,0,0)
(0,0,0)
(0,0,0)
(0,0,0)
(0,0,0)
(0,0,0)
(0,0,0)
(0,0,0)
(0,0,0)
(0,0,0)
(0,0,0)
(0,0,0)
(-201041.370027098,17181.1215720417,13813.5189734625)
(-207121.997649335,15832.0799576556,27915.9616936803)
(-220477.255677158,12731.9127091253,42361.2256429734)
(-243675.96828327,7053.18184770761,56477.5289811927)
(-281087.827757707,-2306.5925141606,67401.8304669615)
(-338625.939979982,-15717.4955805447,65965.117667898)
(-421153.198026413,-29112.4423527713,24376.0495994985)
(-523302.175184244,-29107.597542376,-130235.780652863)
(-604929.620063777,-17882.0236667464,-522884.650516719)
(-525736.097174851,-7577.2891176693,-1234505.35836647)
(0,0,0)
(0,0,0)
(0,0,0)
(0,0,0)
(0,0,0)
(0,0,0)
(-207959.916625841,35107.594611262,12402.5237536986)
(-213701.304890563,32544.3910449323,24765.9425281577)
(-226299.789167696,26571.9134700939,36657.8071750004)
(-248278.187871725,15090.0423932296,47080.0511835923)
(-283959.568334981,-5708.52074629016,53940.3060863894)
(-339800.527575283,-40460.1052754059,52444.8998909379)
(-421802.850934331,-84453.8030720679,24291.9777322506)
(-520847.514561364,-83344.3374575036,-119006.419586461)
(-600937.740224865,-44587.5873752124,-512541.701547571)
(-523258.917958125,-16962.9347788057,-1226838.47207718)
(0,0,0)
(0,0,0)
(0,0,0)
(0,0,0)
(0,0,0)
(0,0,0)
(-223007.643855902,53876.2494176657,9802.59023229617)
(-228096.059999696,50537.9764734198,18708.0358827617)
(-239211.923175181,42550.1402802479,25101.576898046)
(-258666.868446999,26209.0773180745,26278.368540251)
(-290787.342522395,-7496.63708227837,19213.7530670488)
(-344338.750290324,-79206.0478747388,8334.74095866648)
(-434727.237589662,-216940.834729745,25305.6273476972)
(-521127.505833357,-214337.807779624,-80284.7279182521)
(-591288.648116692,-87132.0250796193,-484926.358852073)
(-517282.834390742,-27258.9516772762,-1209859.67735207)
(0,0,0)
(0,0,0)
(0,0,0)
(0,0,0)
(0,0,0)
(0,0,0)
(-248854.441327483,71890.9114067766,6408.88552663661)
(-252992.983957748,68543.3631978647,10576.0641056714)
(-261954.834293407,60475.9689266438,8612.2825983202)
(-277307.484224894,43491.391330357,-7461.37304059167)
(-302509.012578924,4715.91642396937,-52431.1513906568)
(-352279.445365476,-105345.945040333,-129397.998181125)
(-532100.878457693,-531897.982386092,27864.2930082683)
(-559797.237343811,-559877.657643112,46814.6979021322)
(-568755.608852975,-128065.181820002,-425191.477922778)
(-505157.720250638,-28929.7159566068,-1182734.8382084)
(0,0,0)
(0,0,0)
(0,0,0)
(0,0,0)
(0,0,0)
(0,0,0)
(-289575.185896522,83816.3501571879,2964.15115137805)
(-292603.349030007,81254.4304860776,2351.39570903214)
(-298891.063177858,75391.6772588562,-8484.58629188292)
(-307964.397595975,64342.3931093225,-46274.1351923878)
(-314438.030351034,44266.3234437914,-162432.674319576)
(-283473.000540753,11165.874532929,-555822.600102718)
(-8.04670915335077e-05,-2.26887796455505e-05,5.43558440093467e-05)