/*--------------------------------*- C++ -*----------------------------------*\
| =========                 |                                                 |
| \\      /  F ield         | foam-extend: Open Source CFD                    |
|  \\    /   O peration     | Version:     4.0                                |
|   \\  /    A nd           | Web:         http://www.foam-extend.org         |
|    \\/     M anipulation  |                                                 |
\*---------------------------------------------------------------------------*/
FoamFile
{
    version 2.0;
    format ascii;
    class volVectorField;
    location "4064";
    object      E;
}
// * * * * * * * * * * * * * * * * * * * * * * * * * * * * * * * * * * * * * //

dimensions      [0 1 -1 0 0 0 0];

internalField   nonuniform List<vector>
4096
(
(0,0,0)
(0,0,0)
(0,0,0)
(0,0,0)
(0,0,0)
(0,0,0)
(0,0,0)
(0,0,0)
(0,0,0)
(0,0,0)
(0,0,0)
(0,0,0)
(0,0,0)
(0,0,0)
(0,0,0)
(0,0,0)
(0,0,0)
(0,0,0)
(0,0,0)
(0,0,0)
(0,0,0)
(0,0,0)
(0,0,0)
(0,0,0)
(0,0,0)
(0,0,0)
(0,0,0)
(0,0,0)
(0,0,0)
(0,0,0)
(0,0,0)
(0,0,0)
(0,0,0)
(0,0,0)
(0,0,0)
(0,0,0)
(0,0,0)
(0,0,0)
(0,0,0)
(0,0,0)
(0,0,0)
(0,0,0)
(0,0,0)
(0,0,0)
(0,0,0)
(0,0,0)
(0,0,0)
(0,0,0)
(0,0,0)
(0,0,0)
(0,0,0)
(0,0,0)
(0,0,0)
(0,0,0)
(0,0,0)
(0,0,0)
(0,0,0)
(0,0,0)
(0,0,0)
(0,0,0)
(0,0,0)
(0,0,0)
(0,0,0)
(0,0,0)
(0,0,0)
(0,0,0)
(0,0,0)
(0,0,0)
(0,0,0)
(0,0,0)
(0,0,0)
(0,0,0)
(0,0,0)
(0,0,0)
(0,0,0)
(0,0,0)
(0,0,0)
(0,0,0)
(0,0,0)
(0,0,0)
(0,0,0)
(0,0,0)
(0,0,0)
(0,0,0)
(0,0,0)
(0,0,0)
(0,0,0)
(0,0,0)
(0,0,0)
(0,0,0)
(0,0,0)
(0,0,0)
(0,0,0)
(0,0,0)
(0,0,0)
(0,0,0)
(0,0,0)
(0,0,0)
(0,0,0)
(0,0,0)
(0,0,0)
(0,0,0)
(0,0,0)
(0,0,0)
(0,0,0)
(0,0,0)
(0,0,0)
(0,0,0)
(0,0,0)
(0,0,0)
(0,0,0)
(0,0,0)
(0,0,0)
(0,0,0)
(0,0,0)
(0,0,0)
(0,0,0)
(0,0,0)
(0,0,0)
(0,0,0)
(0,0,0)
(0,0,0)
(0,0,0)
(0,0,0)
(0,0,0)
(0,0,0)
(0,0,0)
(0,0,0)
(0,0,0)
(0,0,0)
(0,0,0)
(0,0,0)
(0,0,0)
(0,0,0)
(0,0,0)
(0,0,0)
(0,0,0)
(0,0,0)
(0,0,0)
(0,0,0)
(0,0,0)
(0,0,0)
(0,0,0)
(0,0,0)
(0,0,0)
(0,0,0)
(0,0,0)
(0,0,0)
(0,0,0)
(0,0,0)
(0,0,0)
(0,0,0)
(0,0,0)
(0,0,0)
(0,0,0)
(0,0,0)
(0,0,0)
(0,0,0)
(0,0,0)
(0,0,0)
(0,0,0)
(0,0,0)
(0,0,0)
(0,0,0)
(0,0,0)
(0,0,0)
(0,0,0)
(0,0,0)
(0,0,0)
(0,0,0)
(0,0,0)
(0,0,0)
(0,0,0)
(0,0,0)
(0,0,0)
(0,0,0)
(0,0,0)
(0,0,0)
(0,0,0)
(0,0,0)
(0,0,0)
(0,0,0)
(0,0,0)
(0,0,0)
(0,0,0)
(0,0,0)
(0,0,0)
(0,0,0)
(0,0,0)
(0,0,0)
(0,0,0)
(0,0,0)
(0,0,0)
(0,0,0)
(0,0,0)
(0,0,0)
(0,0,0)
(0,0,0)
(0,0,0)
(0,0,0)
(0,0,0)
(0,0,0)
(0,0,0)
(0,0,0)
(0,0,0)
(0,0,0)
(0,0,0)
(0,0,0)
(0,0,0)
(0,0,0)
(0,0,0)
(0,0,0)
(0,0,0)
(0,0,0)
(0,0,0)
(0,0,0)
(0,0,0)
(0,0,0)
(0,0,0)
(0,0,0)
(0,0,0)
(0,0,0)
(0,0,0)
(0,0,0)
(0,0,0)
(0,0,0)
(0,0,0)
(0,0,0)
(0,0,0)
(0,0,0)
(0,0,0)
(0,0,0)
(0,0,0)
(0,0,0)
(0,0,0)
(0,0,0)
(0,0,0)
(0,0,0)
(0,0,0)
(0,0,0)
(0,0,0)
(0,0,0)
(0,0,0)
(0,0,0)
(0,0,0)
(0,0,0)
(0,0,0)
(0,0,0)
(0,0,0)
(0,0,0)
(0,0,0)
(0,0,0)
(0,0,0)
(0,0,0)
(0,0,0)
(0,0,0)
(0,0,0)
(0,0,0)
(0,0,0)
(0,0,0)
(0,0,0)
(0,0,0)
(0,0,0)
(0,0,0)
(0,0,0)
(0,0,0)
(0,0,0)
(0,0,0)
(0,0,0)
(0,0,0)
(0,0,0)
(0,0,0)
(0,0,0)
(0,0,0)
(0,0,0)
(0,0,0)
(0,0,0)
(0,0,0)
(0,0,0)
(0,0,0)
(0,0,0)
(0,0,0)
(0,0,0)
(0,0,0)
(0,0,0)
(0,0,0)
(0,0,0)
(0,0,0)
(0,0,0)
(0,0,0)
(0,0,0)
(0,0,0)
(0,0,0)
(0,0,0)
(0,0,0)
(0,0,0)
(0,0,0)
(0,0,0)
(0,0,0)
(0,0,0)
(0,0,0)
(0,0,0)
(0,0,0)
(0,0,0)
(0,0,0)
(0,0,0)
(0,0,0)
(0,0,0)
(0,0,0)
(0,0,0)
(0,0,0)
(0,0,0)
(0,0,0)
(0,0,0)
(0,0,0)
(0,0,0)
(0,0,0)
(0,0,0)
(0,0,0)
(0,0,0)
(0,0,0)
(0,0,0)
(0,0,0)
(0,0,0)
(0,0,0)
(0,0,0)
(0,0,0)
(0,0,0)
(0,0,0)
(0,0,0)
(0,0,0)
(0,0,0)
(0,0,0)
(0,0,0)
(0,0,0)
(0,0,0)
(0,0,0)
(0,0,0)
(0,0,0)
(0,0,0)
(0,0,0)
(0,0,0)
(0,0,0)
(0,0,0)
(0,0,0)
(0,0,0)
(0,0,0)
(0,0,0)
(0,0,0)
(0,0,0)
(0,0,0)
(0,0,0)
(0,0,0)
(0,0,0)
(0,0,0)
(0,0,0)
(0,0,0)
(0,0,0)
(0,0,0)
(0,0,0)
(0,0,0)
(0,0,0)
(0,0,0)
(0,0,0)
(0,0,0)
(0,0,0)
(0,0,0)
(0,0,0)
(0,0,0)
(0,0,0)
(0,0,0)
(0,0,0)
(0,0,0)
(0,0,0)
(0,0,0)
(0,0,0)
(0,0,0)
(0,0,0)
(0,0,0)
(0,0,0)
(0,0,0)
(0,0,0)
(0,0,0)
(0,0,0)
(0,0,0)
(0,0,0)
(0,0,0)
(0,0,0)
(0,0,0)
(0,0,0)
(0,0,0)
(0,0,0)
(0,0,0)
(0,0,0)
(0,0,0)
(0,0,0)
(0,0,0)
(0,0,0)
(0,0,0)
(0,0,0)
(0,0,0)
(0,0,0)
(0,0,0)
(0,0,0)
(0,0,0)
(0,0,0)
(0,0,0)
(0,0,0)
(0,0,0)
(0,0,0)
(0,0,0)
(0,0,0)
(0,0,0)
(0,0,0)
(0,0,0)
(0,0,0)
(0,0,0)
(0,0,0)
(0,0,0)
(0,0,0)
(0,0,0)
(0,0,0)
(0,0,0)
(0,0,0)
(0,0,0)
(0,0,0)
(0,0,0)
(0,0,0)
(0,0,0)
(0,0,0)
(0,0,0)
(0,0,0)
(0,0,0)
(0,0,0)
(0,0,0)
(0,0,0)
(0,0,0)
(0,0,0)
(0,0,0)
(0,0,0)
(0,0,0)
(0,0,0)
(0,0,0)
(0,0,0)
(0,0,0)
(0,0,0)
(0,0,0)
(0,0,0)
(0,0,0)
(0,0,0)
(0,0,0)
(0,0,0)
(0,0,0)
(0,0,0)
(0,0,0)
(0,0,0)
(0,0,0)
(0,0,0)
(0,0,0)
(0,0,0)
(0,0,0)
(0,0,0)
(0,0,0)
(0,0,0)
(0,0,0)
(0,0,0)
(0,0,0)
(0,0,0)
(0,0,0)
(0,0,0)
(0,0,0)
(0,0,0)
(0,0,0)
(0,0,0)
(0,0,0)
(0,0,0)
(0,0,0)
(0,0,0)
(0,0,0)
(0,0,0)
(0,0,0)
(0,0,0)
(0,0,0)
(0,0,0)
(0,0,0)
(0,0,0)
(0,0,0)
(0,0,0)
(0,0,0)
(0,0,0)
(0,0,0)
(0,0,0)
(0,0,0)
(0,0,0)
(0,0,0)
(0,0,0)
(0,0,0)
(0,0,0)
(0,0,0)
(0,0,0)
(0,0,0)
(0,0,0)
(0,0,0)
(0,0,0)
(0,0,0)
(0,0,0)
(0,0,0)
(0,0,0)
(0,0,0)
(0,0,0)
(0,0,0)
(0,0,0)
(0,0,0)
(0,0,0)
(0,0,0)
(0,0,0)
(0,0,0)
(0,0,0)
(0,0,0)
(0,0,0)
(0,0,0)
(0,0,0)
(0,0,0)
(0,0,0)
(0,0,0)
(0,0,0)
(0,0,0)
(0,0,0)
(0,0,0)
(0,0,0)
(0,0,0)
(0,0,0)
(0,0,0)
(0,0,0)
(0,0,0)
(0,0,0)
(0,0,0)
(0,0,0)
(0,0,0)
(0,0,0)
(0,0,0)
(0,0,0)
(0,0,0)
(0,0,0)
(0,0,0)
(0,0,0)
(0,0,0)
(0,0,0)
(0,0,0)
(0,0,0)
(0,0,0)
(0,0,0)
(0,0,0)
(0,0,0)
(0,0,0)
(0,0,0)
(0,0,0)
(0,0,0)
(0,0,0)
(0,0,0)
(0,0,0)
(0,0,0)
(0,0,0)
(0,0,0)
(0,0,0)
(0,0,0)
(0,0,0)
(0,0,0)
(0,0,0)
(0,0,0)
(0,0,0)
(0,0,0)
(0,0,0)
(0,0,0)
(0,0,0)
(0,0,0)
(0,0,0)
(0,0,0)
(0,0,0)
(0,0,0)
(0,0,0)
(0,0,0)
(0,0,0)
(0,0,0)
(0,0,0)
(0,0,0)
(0,0,0)
(0,0,0)
(0,0,0)
(0,0,0)
(0,0,0)
(0,0,0)
(0,0,0)
(0,0,0)
(0,0,0)
(0,0,0)
(0,0,0)
(0,0,0)
(0,0,0)
(0,0,0)
(0,0,0)
(0,0,0)
(0,0,0)
(0,0,0)
(0,0,0)
(0,0,0)
(0,0,0)
(0,0,0)
(0,0,0)
(0,0,0)
(0,0,0)
(0,0,0)
(0,0,0)
(0,0,0)
(0,0,0)
(0,0,0)
(0,0,0)
(0,0,0)
(0,0,0)
(0,0,0)
(0,0,0)
(0,0,0)
(0,0,0)
(0,0,0)
(0,0,0)
(0,0,0)
(0,0,0)
(0,0,0)
(0,0,0)
(0,0,0)
(0,0,0)
(0,0,0)
(0,0,0)
(0,0,0)
(0,0,0)
(0,0,0)
(0,0,0)
(0,0,0)
(0,0,0)
(0,0,0)
(0,0,0)
(0,0,0)
(0,0,0)
(0,0,0)
(0,0,0)
(0,0,0)
(0,0,0)
(0,0,0)
(0,0,0)
(0,0,0)
(0,0,0)
(0,0,0)
(0,0,0)
(0,0,0)
(0,0,0)
(0,0,0)
(0,0,0)
(0,0,0)
(0,0,0)
(0,0,0)
(0,0,0)
(0,0,0)
(0,0,0)
(0,0,0)
(0,0,0)
(0,0,0)
(0,0,0)
(0,0,0)
(0,0,0)
(0,0,0)
(0,0,0)
(0,0,0)
(0,0,0)
(0,0,0)
(0,0,0)
(0,0,0)
(0,0,0)
(0,0,0)
(0,0,0)
(0,0,0)
(0,0,0)
(0,0,0)
(0,0,0)
(0,0,0)
(0,0,0)
(0,0,0)
(0,0,0)
(0,0,0)
(0,0,0)
(0,0,0)
(0,0,0)
(0,0,0)
(0,0,0)
(0,0,0)
(0,0,0)
(0,0,0)
(0,0,0)
(0,0,0)
(0,0,0)
(0,0,0)
(0,0,0)
(0,0,0)
(0,0,0)
(0,0,0)
(0,0,0)
(0,0,0)
(0,0,0)
(0,0,0)
(0,0,0)
(0,0,0)
(0,0,0)
(0,0,0)
(0,0,0)
(0,0,0)
(0,0,0)
(0,0,0)
(0,0,0)
(0,0,0)
(0,0,0)
(0,0,0)
(0,0,0)
(0,0,0)
(0,0,0)
(0,0,0)
(0,0,0)
(0,0,0)
(0,0,0)
(0,0,0)
(0,0,0)
(0,0,0)
(0,0,0)
(0,0,0)
(0,0,0)
(0,0,0)
(0,0,0)
(0,0,0)
(0,0,0)
(0,0,0)
(0,0,0)
(0,0,0)
(0,0,0)
(0,0,0)
(0,0,0)
(0,0,0)
(0,0,0)
(0,0,0)
(0,0,0)
(0,0,0)
(0,0,0)
(0,0,0)
(0,0,0)
(0,0,0)
(0,0,0)
(0,0,0)
(0,0,0)
(0,0,0)
(0,0,0)
(0,0,0)
(0,0,0)
(0,0,0)
(0,0,0)
(0,0,0)
(0,0,0)
(0,0,0)
(0,0,0)
(0,0,0)
(0,0,0)
(0,0,0)
(0,0,0)
(0,0,0)
(0,0,0)
(0,0,0)
(0,0,0)
(0,0,0)
(0,0,0)
(0,0,0)
(0,0,0)
(0,0,0)
(0,0,0)
(0,0,0)
(0,0,0)
(0,0,0)
(0,0,0)
(0,0,0)
(0,0,0)
(0,0,0)
(0,0,0)
(0,0,0)
(0,0,0)
(0,0,0)
(0,0,0)
(0,0,0)
(0,0,0)
(0,0,0)
(0,0,0)
(0,0,0)
(0,0,0)
(0,0,0)
(0,0,0)
(0,0,0)
(0,0,0)
(0,0,0)
(0,0,0)
(0,0,0)
(0,0,0)
(0,0,0)
(0,0,0)
(0,0,0)
(0,0,0)
(0,0,0)
(0,0,0)
(0,0,0)
(0,0,0)
(0,0,0)
(0,0,0)
(0,0,0)
(0,0,0)
(0,0,0)
(0,0,0)
(-15742.121139356,8339.45189877097,7402.66924058363)
(-16658.2894339471,8009.17861846728,16051.7800560617)
(-18776.71341208,7296.28725988259,27532.206208254)
(-22778.0995592027,6155.67850408448,44154.6272633853)
(-29929.0488051492,4654.21149076449,69429.4645777658)
(-42788.7559479059,2983.97385700823,109234.246668669)
(-66163.7560440306,1449.82676077382,173948.175951954)
(-108354.124773334,434.256207701325,281868.044517587)
(-178723.320907767,69.3709211989919,460521.994504131)
(-249068.805779769,24.2713006621266,709566.528983287)
(0,0,0)
(0,0,0)
(0,0,0)
(0,0,0)
(0,0,0)
(0,0,0)
(-16672.2115356364,17940.5375164696,7071.1259179374)
(-17577.3353160314,17306.2265252844,15351.413327152)
(-19720.5213689622,15950.5023490402,26417.7196069561)
(-23821.8430541104,13763.7022782521,42631.5388868981)
(-31173.9747099782,10792.8883410354,67666.8367466026)
(-44339.1328523406,7326.58315164578,107663.360304297)
(-67948.9593002001,4027.99585975709,173034.150505498)
(-109969.478457428,1822.12818669351,281615.756983887)
(-179817.703394825,947.181907301593,460555.64939269)
(-249595.061046975,505.821672773342,709669.160067403)
(0,0,0)
(0,0,0)
(0,0,0)
(0,0,0)
(0,0,0)
(0,0,0)
(-18748.7580550658,30272.2500047994,6417.04556673561)
(-19684.9738183816,29429.1016314333,13979.1442789715)
(-21896.4656603249,27602.5681464597,24223.5441418828)
(-26191.1638919062,24592.2973302672,39586.1129817738)
(-34010.7002437143,20331.0741645635,64058.6274019468)
(-47991.6455750127,15089.7851387297,104287.070989882)
(-72391.4462970781,9768.38175159918,170938.131395141)
(-114063.514201283,6031.55437078393,280792.219412292)
(-182466.918901211,4022.53595141722,460183.784269399)
(-250797.88304518,2188.20505453976,709299.283932892)
(0,0,0)
(0,0,0)
(0,0,0)
(0,0,0)
(0,0,0)
(0,0,0)
(-22609.8175680625,47371.7649686984,5510.30260416361)
(-23565.4299871264,46426.1851423622,12078.6490803655)
(-25868.7189532284,44381.7544645192,21168.1817155267)
(-30456.9382513926,40993.9080529168,35223.5092442552)
(-39068.0164067756,36008.323157471,58614.276658143)
(-54629.0064145305,29523.5636718733,98809.5045395252)
(-80954.8355205336,22312.214150604,167220.507661022)
(-122032.837169431,16394.0453000029,278890.853901212)
(-187319.915778642,11681.984584743,458551.321046466)
(-252898.060040144,6300.68544916288,707336.900692243)
(0,0,0)
(0,0,0)
(0,0,0)
(0,0,0)
(0,0,0)
(0,0,0)
(-29522.1746969231,72348.2025709083,4545.73709470495)
(-30469.7184347741,71437.9265941128,10003.7140777218)
(-32820.4521281937,69477.9054115129,17728.015258926)
(-37650.4704097557,66196.8050831217,30175.5886384827)
(-47078.385267105,61290.5348727501,51971.7621902965)
(-64597.527195099,54658.8727897402,91433.9802675178)
(-93971.976094775,46506.9267160686,161211.24379685)
(-134150.127683803,37477.5890950163,274277.827685627)
(-194370.280190839,26970.3343893719,453359.758071949)
(-255952.14818094,14307.2049641209,701305.386737966)
(0,0,0)
(0,0,0)
(0,0,0)
(0,0,0)
(0,0,0)
(0,0,0)
(-42084.0086016723,110869.67213074,3562.53904184632)
(-42961.5515841424,110041.013623169,7921.00359692991)
(-45224.4492110547,108306.144358901,14317.213860599)
(-49996.8155044267,105361.370461615,25149.4639865224)
(-59546.3333654315,100790.884432552,45195.4477921738)
(-77411.6070968654,94071.7777133902,83194.1499653885)
(-106881.135619875,84454.0508982347,152128.161403103)
(-145227.522654462,70962.1084667182,263871.164685898)
(-201986.040977789,51991.5621024022,440835.977950631)
(-259797.607353746,27749.2190753541,687191.571193128)
(0,0,0)
(0,0,0)
(0,0,0)
(0,0,0)
(0,0,0)
(0,0,0)
(-65173.2002477572,173350.086651228,2692.78572727001)
(-65925.8966416991,172594.120807831,6065.57518432068)
(-67940.7159353658,171054.626955557,11257.8085230306)
(-72303.7283974754,168395.782099124,20527.1252829895)
(-81164.8245226168,164058.11755261,38424.7166855522)
(-97936.9198315038,156950.295552073,73483.1186783955)
(-125595.56408453,144988.592298204,138544.141362961)
(-160465.74628515,125012.159782348,244959.836332462)
(-213349.573265333,93569.1615455752,416731.810154646)
(-266068.957539202,50979.8428354975,659570.143933733)
(0,0,0)
(0,0,0)
(0,0,0)
(0,0,0)
(0,0,0)
(0,0,0)
(-107386.664351558,278765.793457139,1970.95754562707)
(-107974.12821845,278041.591147288,4497.61542462453)
(-109582.893952502,276558.815676963,8576.32065572574)
(-113135.771544193,273922.016451821,16185.8578471951)
(-120409.452295003,269364.621066371,31288.8066284385)
(-134333.26891846,261100.290431768,61472.0806671793)
(-157494.180023571,245410.014421782,118544.838567129)
(-185730.028581064,215719.122599034,213567.904331543)
(-234045.736395681,166938.626039122,374244.176233679)
(-278087.202793257,94633.2063022186,608678.015560173)
(0,0,0)
(0,0,0)
(0,0,0)
(0,0,0)
(0,0,0)
(0,0,0)
(-178080.105432976,455544.396906712,1301.50198339865)
(-178490.477466941,454782.901671399,3050.66892620346)
(-179584.759702498,453185.933010436,6008.31129518874)
(-181962.684048241,450228.262685498,11664.7491097372)
(-186748.295341442,444732.748601435,23044.9169161535)
(-195730.308506761,434113.696357836,45761.8194968617)
(-210879.531599177,413261.291641177,88790.07387667)
(-233430.465662334,373194.08818984,164745.573948219)
(-272236.143004408,301989.425882102,301930.917109523)
(-299066.334078483,181605.202607038,514025.254883161)
(0,0,0)
(0,0,0)
(0,0,0)
(0,0,0)
(0,0,0)
(0,0,0)
(-248748.898949014,703647.216502138,646.079353578156)
(-248956.86734417,702825.364791817,1560.48357730863)
(-249509.357045497,701102.823047412,3152.95058584018)
(-250663.940523908,697816.261921431,6228.89187386972)
(-252967.91261379,691498.221912871,12431.3311762546)
(-257286.074361956,679050.396278348,24780.7056176538)
(-264872.314212184,654399.873028198,48514.4384428165)
(-277688.323902985,606062.206922925,93334.6436126724)
(-298989.395036293,512958.917763947,181354.546767016)
(-301168.650850516,331916.599038666,332211.801186005)
(0,0,0)
(0,0,0)
(0,0,0)
(0,0,0)
(0,0,0)
(0,0,0)
(0,0,0)
(0,0,0)
(0,0,0)
(0,0,0)
(0,0,0)
(0,0,0)
(0,0,0)
(0,0,0)
(0,0,0)
(0,0,0)
(0,0,0)
(0,0,0)
(0,0,0)
(0,0,0)
(0,0,0)
(0,0,0)
(0,0,0)
(0,0,0)
(0,0,0)
(0,0,0)
(0,0,0)
(0,0,0)
(0,0,0)
(0,0,0)
(0,0,0)
(0,0,0)
(0,0,0)
(0,0,0)
(0,0,0)
(0,0,0)
(0,0,0)
(0,0,0)
(0,0,0)
(0,0,0)
(0,0,0)
(0,0,0)
(0,0,0)
(0,0,0)
(0,0,0)
(0,0,0)
(0,0,0)
(0,0,0)
(0,0,0)
(0,0,0)
(0,0,0)
(0,0,0)
(0,0,0)
(0,0,0)
(0,0,0)
(0,0,0)
(0,0,0)
(0,0,0)
(0,0,0)
(0,0,0)
(0,0,0)
(0,0,0)
(0,0,0)
(0,0,0)
(0,0,0)
(0,0,0)
(0,0,0)
(0,0,0)
(0,0,0)
(0,0,0)
(0,0,0)
(0,0,0)
(0,0,0)
(0,0,0)
(0,0,0)
(0,0,0)
(0,0,0)
(0,0,0)
(0,0,0)
(0,0,0)
(0,0,0)
(0,0,0)
(0,0,0)
(0,0,0)
(0,0,0)
(0,0,0)
(0,0,0)
(0,0,0)
(0,0,0)
(0,0,0)
(0,0,0)
(0,0,0)
(0,0,0)
(0,0,0)
(0,0,0)
(0,0,0)
(0,0,0)
(0,0,0)
(0,0,0)
(0,0,0)
(0,0,0)
(0,0,0)
(2337155.81974783,7463.2905217522,6486.96834644948)
(2335605.12999382,7113.04623086471,13958.7024432627)
(2332106.52570482,6362.93853506493,23560.7245465274)
(2325558.90000854,5132.48099801289,36939.4437360967)
(2313940.84225281,3420.60686675031,56497.1455667426)
(2293236.19249596,1418.61678716743,85901.7800909436)
(2255158.71118765,-384.290645082278,131811.803259531)
(2179997.29724245,-1235.40103345249,211543.982032517)
(2010406.42172711,-1043.39503350252,390305.834186497)
(1549666.7525175,-497.531205661258,958916.006850461)
(0,0,0)
(0,0,0)
(0,0,0)
(0,0,0)
(0,0,0)
(0,0,0)
(2335593.74075123,15906.5239700834,6139.01402019573)
(2334063.63621596,15247.4253723254,13211.8631021143)
(2330529.51211013,13816.5322929698,22356.4356204605)
(2323847.17819083,11428.290206477,35239.804922487)
(2311908.1529144,7982.13547048592,54444.3484498012)
(2290624.42226605,3672.29265768797,84075.3172162931)
(2252008.46915267,-467.864722696607,131049.662596521)
(2177171.89240812,-2316.91537926415,211838.005832163)
(2008625.30798645,-1728.24786160424,390928.047034077)
(1548874.73681843,-710.638734327773,959519.556452487)
(0,0,0)
(0,0,0)
(0,0,0)
(0,0,0)
(0,0,0)
(0,0,0)
(2332058.73503083,26470.1901115711,5477.04052787098)
(2330522.84955618,25592.5434084919,11772.2988724717)
(2326916.99245288,23662.6562372497,19960.9165704464)
(2319946.79597619,20357.5515403643,31741.8951238924)
(2307195.1336656,15328.3979615142,50037.9984789321)
(2284180.89474705,8499.5078365413,79886.4427334938)
(2243387.47562894,1200.94105549448,129286.914784656)
(2169237.08231227,-1963.17184791317,212480.774495201)
(2003998.30575319,-876.661484244435,392012.163218566)
(1546959.77378958,45.6325129094394,960346.434891886)
(0,0,0)
(0,0,0)
(0,0,0)
(0,0,0)
(0,0,0)
(0,0,0)
(2325596.81699869,40525.9997242023,4585.75557593683)
(2324068.4911983,39576.1304149177,9816.44713947042)
(2320375.17327153,37466.5080687888,16616.9028385072)
(2312948.86068051,33809.5301353929,26607.3250669215)
(2298656.07523176,28024.7760316541,43035.0551136852)
(2271694.85111347,19574.5886131401,72484.3165644463)
(2224128.15150846,9275.68719706211,126174.783149263)
(2151118.13909651,4222.68465301621,213686.15013779)
(1994663.46540024,4573.11343489478,393101.193795104)
(1543401.26644987,3206.39727459613,960489.302298858)
(0,0,0)
(0,0,0)
(0,0,0)
(0,0,0)
(0,0,0)
(0,0,0)
(2314298.0676355,59942.0580003975,3611.89914676965)
(2312804.36761733,59082.6717551896,7679.47150967595)
(2309083.18779999,57184.8410176509,12905.698388151)
(2301262.48970729,53910.3654148878,20740.1027468504)
(2285189.74520064,48892.9745060194,34451.9735602083)
(2252297.33614338,41890.8070356564,62089.0915546446)
(2189506.52142706,33616.5870100191,121117.893975269)
(2117514.32950853,26368.949830524,214155.371360874)
(1980011.48796932,19305.1682336307,391889.748157201)
(1538077.0309844,10437.9655379377,957477.20048376)
(0,0,0)
(0,0,0)
(0,0,0)
(0,0,0)
(0,0,0)
(0,0,0)
(2294080.70196241,87966.3509213874,2659.19627016312)
(2292709.92439718,87270.7470519441,5647.84474741244)
(2289171.66296125,85745.1642231301,9539.60912498174)
(2281493.61265319,83165.1062921273,15642.6398455514)
(2265199.79563029,79252.7055015841,27384.9796095812)
(2231346.85183587,73566.9063056303,53798.6211621287)
(2167757.09888347,65737.5983745558,113887.575049743)
(2098947.24683099,55707.9315081791,207222.023641994)
(1967595.06864746,40601.7448779801,383192.537127939)
(1531976.28653196,21462.919139836,947241.889395565)
(0,0,0)
(0,0,0)
(0,0,0)
(0,0,0)
(0,0,0)
(0,0,0)
(2256445.47285207,131289.457809816,1906.41976707705)
(2255299.43839105,130747.236181723,4052.79535996104)
(2252187.6399989,129584.898691878,6932.90471239108)
(2245217.79478442,127699.473107867,11725.2144700364)
(2230038.00104222,124910.584849474,21712.7093126769)
(2197687.5450859,120586.983090449,45916.367365767)
(2136027.25002588,113095.029304518,103784.322080557)
(2073939.57538644,99749.4102705327,192185.721401984)
(1949193.71912531,72884.3959906139,364207.977653843)
(1521561.1729085,38960.3049485712,925928.661152874)
(0,0,0)
(0,0,0)
(0,0,0)
(0,0,0)
(0,0,0)
(0,0,0)
(2181180.51806315,208221.542406745,1348.93274378365)
(2180316.92547037,207756.890331261,2896.42466074281)
(2177869.35191161,206793.366262695,5083.91098114479)
(2172233.86312021,205295.931541509,8966.01763840224)
(2159729.428454,203187.787459872,17398.1340342846)
(2132303.56902984,199813.354078018,38383.1248538552)
(2078337.30120159,192099.286090005,90395.5865985111)
(2037837.3327461,168066.452719029,165359.382577993)
(1911896.66797137,128783.862544027,330365.711412903)
(1497378.52660666,73668.8948514638,887039.591865484)
(0,0,0)
(0,0,0)
(0,0,0)
(0,0,0)
(0,0,0)
(0,0,0)
(2011098.11171482,385002.648980535,888.87603384565)
(2010497.12364738,384523.036044022,1983.3289621151)
(2008871.27014735,383486.747402806,3682.11772749995)
(2005213.17793012,381738.956634355,6911.43041158104)
(1997414.09330402,378725.08256888,14059.9464123862)
(1981557.15332175,372778.525502995,30655.5129144333)
(1952913.43798602,359499.484110741,66310.5450639667)
(1912610.16342624,329147.096652139,126037.471797714)
(1798791.26001199,275404.14222843,275237.98885233)
(1423730.61984243,179598.700857682,813359.428680514)
(0,0,0)
(0,0,0)
(0,0,0)
(0,0,0)
(0,0,0)
(0,0,0)
(1549966.75736814,952690.517952222,444.674466455475)
(1549660.57978463,952161.391363828,1037.07177303455)
(1548860.51614001,950989.558296354,2012.58744935526)
(1547133.85304366,948874.993998998,3926.95627264349)
(1543530.06977424,944895.677330095,8106.57887883823)
(1536418.5582106,936798.36619837,17230.3053663466)
(1523196.91388192,919730.240933585,35778.520204753)
(1497822.39241046,884154.013527475,72109.0867714996)
(1423822.59501383,812281.539326578,179267.899378691)
(1157693.61570416,633287.836258972,633564.697178074)
(0,0,0)
(0,0,0)
(0,0,0)
(0,0,0)
(0,0,0)
(0,0,0)
(0,0,0)
(0,0,0)
(0,0,0)
(0,0,0)
(0,0,0)
(0,0,0)
(0,0,0)
(0,0,0)
(0,0,0)
(0,0,0)
(0,0,0)
(0,0,0)
(0,0,0)
(0,0,0)
(0,0,0)
(0,0,0)
(0,0,0)
(0,0,0)
(0,0,0)
(0,0,0)
(0,0,0)
(0,0,0)
(0,0,0)
(0,0,0)
(0,0,0)
(0,0,0)
(0,0,0)
(0,0,0)
(0,0,0)
(0,0,0)
(0,0,0)
(0,0,0)
(0,0,0)
(0,0,0)
(0,0,0)
(0,0,0)
(0,0,0)
(0,0,0)
(0,0,0)
(0,0,0)
(0,0,0)
(0,0,0)
(0,0,0)
(0,0,0)
(0,0,0)
(0,0,0)
(0,0,0)
(0,0,0)
(0,0,0)
(0,0,0)
(0,0,0)
(0,0,0)
(0,0,0)
(0,0,0)
(0,0,0)
(0,0,0)
(0,0,0)
(0,0,0)
(0,0,0)
(0,0,0)
(0,0,0)
(0,0,0)
(0,0,0)
(0,0,0)
(0,0,0)
(0,0,0)
(0,0,0)
(0,0,0)
(0,0,0)
(0,0,0)
(0,0,0)
(0,0,0)
(0,0,0)
(0,0,0)
(0,0,0)
(0,0,0)
(0,0,0)
(0,0,0)
(0,0,0)
(0,0,0)
(0,0,0)
(0,0,0)
(0,0,0)
(0,0,0)
(0,0,0)
(0,0,0)
(0,0,0)
(0,0,0)
(0,0,0)
(0,0,0)
(0,0,0)
(0,0,0)
(0,0,0)
(0,0,0)
(0,0,0)
(0,0,0)
(-40602.7179835915,5942.52401452215,4967.81396151141)
(-42311.4944649696,5603.41114464099,10432.8275202146)
(-46097.1885477438,4815.91626114534,16972.4257564061)
(-53007.374048458,3460.61413441342,25229.8859236546)
(-64817.3640960249,1404.60130900285,35735.2912081458)
(-84547.5695578766,-1224.02783386807,47894.8813406082)
(-116894.384374522,-3628.84327503461,56728.6204225836)
(-168040.443280737,-4145.86339003799,42064.024580505)
(-241394.283237036,-2841.29998388893,-70142.1702268086)
(-296009.626262746,-1296.22715772738,-590017.764044126)
(0,0,0)
(0,0,0)
(0,0,0)
(0,0,0)
(0,0,0)
(0,0,0)
(-42384.4167265045,12471.4158267612,4601.06591009863)
(-44049.6718932553,11812.7702082962,9656.81520028478)
(-47797.7417642295,10299.7727122599,15652.0128681891)
(-54715.1701619645,7605.57828660867,23221.1973133589)
(-66708.50813911,3292.17490769054,33102.0850127698)
(-86976.4965845623,-2827.71183758944,45458.4881116896)
(-120041.31129761,-9212.0960300862,56243.321561561)
(-170677.312449535,-10318.4471146733,43416.9103884438)
(-242718.115943276,-6392.50245627756,-68536.6629645171)
(-296473.206644919,-2667.2685802955,-588665.877833854)
(0,0,0)
(0,0,0)
(0,0,0)
(0,0,0)
(0,0,0)
(0,0,0)
(-46370.8571065125,20115.8113253817,3936.99688347112)
(-47971.1466349426,19232.8671213031,8162.69640625368)
(-51658.43600719,17203.4323899871,12986.2654331348)
(-58655.0449553282,13426.2402581286,18919.2446377134)
(-71248.2065814355,6838.24953748657,26968.3104995606)
(-93583.330394766,-4002.21477998977,39058.8388282859)
(-130665.057552864,-18134.2201210982,55185.2963457309)
(-179987.266248283,-20156.1599361671,47399.1579723315)
(-246808.624985287,-10310.4413451881,-64724.1721554128)
(-297774.844594363,-3597.92063363507,-585907.101473491)
(0,0,0)
(0,0,0)
(0,0,0)
(0,0,0)
(0,0,0)
(0,0,0)
(-53449.0437537973,29249.6798695563,3063.7924529837)
(-54948.5447921598,28332.7884971378,6132.70731222111)
(-58531.587877749,26195.3780121906,9199.32308395444)
(-65675.3941604393,22122.3976115448,12279.22081614)
(-79678.8507928814,14555.2743067973,16048.9223160402)
(-108141.914321775,127.4453243371,24907.8278916188)
(-163767.310446191,-25432.7931479194,53253.6631176828)
(-210506.452126557,-29501.3221855151,57375.2168347015)
(-257049.372280562,-10198.4344169034,-57872.152168065)
(-300565.849296727,-2199.07721644439,-582152.079594182)
(0,0,0)
(0,0,0)
(0,0,0)
(0,0,0)
(0,0,0)
(0,0,0)
(-65272.3185151435,39849.8870411835,2121.97922362904)
(-66635.2042365514,39070.9658023394,3975.17401702775)
(-70031.6814966096,37331.511842519,5105.70972777398)
(-77197.782332381,34159.1452981319,4681.03432561572)
(-92905.0890604053,28903.2129408668,1579.73019712827)
(-133094.77209598,20899.8465200867,-648.762514676626)
(-264533.830127717,11803.8547386019,49306.741398119)
(-314056.7094227,7689.34960269993,76838.9087857384)
(-277215.711601248,6767.00212487665,-49747.5279407217)
(-305166.859373106,4283.48674146368,-579834.401296349)
(0,0,0)
(0,0,0)
(0,0,0)
(0,0,0)
(0,0,0)
(0,0,0)
(-84785.54060184,50587.169905198,1280.75994500482)
(-85971.3293024898,50050.9737707404,2133.80592094668)
(-89024.198422775,48898.6309053879,1914.348486743)
(-95712.1946924538,46986.7851332289,-555.683758126161)
(-111035.388525076,44125.3076597864,-6390.79407699014)
(-151149.178836731,39871.8753252866,-9714.99196484391)
(-276176.926609195,33931.8210506168,45242.8674602921)
(-321640.800981841,30622.9067682153,76049.158352169)
(-286493.820804186,22122.2533959315,-52065.4032227881)
(-309738.045826778,11014.089702,-583929.873579892)
(0,0,0)
(0,0,0)
(0,0,0)
(0,0,0)
(0,0,0)
(0,0,0)
(-116864.121512004,56347.1115896173,701.452924306855)
(-117815.541382352,56066.1222881075,953.084424936441)
(-120364.415135178,55520.2868496431,35.2838593017476)
(-126183.118875463,54938.252880793,-3363.46998365459)
(-140239.741337241,54765.36274038,-10573.9824401522)
(-179503.162016102,55300.932476827,-15660.5322449991)
(-309852.062639329,55476.8085204162,41825.5931952334)
(-351754.323617418,63700.0897549879,67594.1094570141)
(-300512.039826396,35612.9486474288,-63039.0265979117)
(-317304.409285009,14778.7666347716,-594786.321092626)
(0,0,0)
(0,0,0)
(0,0,0)
(0,0,0)
(0,0,0)
(0,0,0)
(-168183.318657298,38469.1631756448,393.585379000663)
(-168854.145019819,38349.8407172745,432.737684698284)
(-170765.265673715,38212.1137660311,-472.67140170509)
(-175330.964224696,38628.6815729353,-3446.47250425008)
(-186965.242038083,41138.8203078689,-9973.45933492884)
(-222979.688800044,49274.0606481391,-15511.5294317728)
(-365369.479429416,66853.9946272591,49969.8653370992)
(-297877.324431123,42984.1638319223,39552.2486821406)
(-311812.170931626,15807.4384379159,-83781.6019605901)
(-329078.003718825,90.9694291844923,-609485.474184839)
(0,0,0)
(0,0,0)
(0,0,0)
(0,0,0)
(0,0,0)
(0,0,0)
(-241849.471973548,-75692.0756479636,260.622756572198)
(-242279.644226745,-75810.7969139604,349.828506616463)
(-243477.297195688,-75990.8766373003,53.1864976424343)
(-246264.809332612,-75839.2317313057,-849.112690674272)
(-252664.526002495,-74699.0737464744,-1780.79908510741)
(-267926.937602638,-71916.4485885064,2045.60132038452)
(-301316.34619811,-69774.7029845778,26055.8833609155)
(-312322.988501079,-85221.9076610251,12346.9070257157)
(-341190.37285216,-99210.7197892732,-99501.501638304)
(-346749.658470747,-86207.9574428316,-609570.496208417)
(0,0,0)
(0,0,0)
(0,0,0)
(0,0,0)
(0,0,0)
(0,0,0)
(-296386.679352044,-596336.12984423,149.291161139145)
(-296589.23951263,-596514.455168353,254.568957409579)
(-297146.431503109,-596858.586978206,281.02718611951)
(-298402.058108988,-597197.79100437,327.297856340791)
(-301136.339572059,-597545.287298165,991.720998925228)
(-306870.446654055,-598506.056551436,4022.13407105277)
(-317495.968407429,-602367.486713408,10459.600333894)
(-329370.82967985,-612624.09422174,-1793.19077058312)
(-346816.973841627,-610585.870298065,-86626.6711617936)
(-334791.093321347,-523702.712271112,-523495.407063401)
(0,0,0)
(0,0,0)
(0,0,0)
(0,0,0)
(0,0,0)
(0,0,0)
(0,0,0)
(0,0,0)
(0,0,0)
(0,0,0)
(0,0,0)
(0,0,0)
(0,0,0)
(0,0,0)
(0,0,0)
(0,0,0)
(0,0,0)
(0,0,0)
(0,0,0)
(0,0,0)
(0,0,0)
(0,0,0)
(0,0,0)
(0,0,0)
(0,0,0)
(0,0,0)
(0,0,0)
(0,0,0)
(0,0,0)
(0,0,0)
(0,0,0)
(0,0,0)
(0,0,0)
(0,0,0)
(0,0,0)
(0,0,0)
(0,0,0)
(0,0,0)
(0,0,0)
(0,0,0)
(0,0,0)
(0,0,0)
(0,0,0)
(0,0,0)
(0,0,0)
(0,0,0)
(0,0,0)
(0,0,0)
(0,0,0)
(0,0,0)
(0,0,0)
(0,0,0)
(0,0,0)
(0,0,0)
(0,0,0)
(0,0,0)
(0,0,0)
(0,0,0)
(0,0,0)
(0,0,0)
(0,0,0)
(0,0,0)
(0,0,0)
(0,0,0)
(0,0,0)
(0,0,0)
(0,0,0)
(0,0,0)
(0,0,0)
(0,0,0)
(0,0,0)
(0,0,0)
(0,0,0)
(0,0,0)
(0,0,0)
(0,0,0)
(0,0,0)
(0,0,0)
(0,0,0)
(0,0,0)
(0,0,0)
(0,0,0)
(0,0,0)
(0,0,0)
(0,0,0)
(0,0,0)
(0,0,0)
(0,0,0)
(0,0,0)
(0,0,0)
(0,0,0)
(0,0,0)
(0,0,0)
(0,0,0)
(0,0,0)
(0,0,0)
(0,0,0)
(0,0,0)
(0,0,0)
(0,0,0)
(0,0,0)
(0,0,0)
(-48080.4029725561,4204.11823415017,3273.56675481527)
(-49504.878913888,3892.40626338476,6574.54494035042)
(-52625.8784963464,3122.78367436732,9980.45121458765)
(-58086.0013097254,1748.73766691952,13310.3408089372)
(-66907.0588703916,-501.360925589052,15901.3965088935)
(-80507.681724479,-3685.26504220254,15546.7737176937)
(-100078.767011821,-6873.28768074377,5604.44403573579)
(-124336.770621333,-6892.04673000614,-31207.1818936571)
(-143774.371265038,-4236.08162446518,-124591.012241145)
(-125002.910121911,-1807.17863498065,-293790.549746945)
(0,0,0)
(0,0,0)
(0,0,0)
(0,0,0)
(0,0,0)
(0,0,0)
(-49697.703542344,8586.43113239606,2930.97391758918)
(-51039.5948203263,7962.07903520279,5851.22407284583)
(-53975.1119793725,6484.22074522489,8667.15721713236)
(-59135.8538485684,3706.81197464494,11129.7665960067)
(-67562.2876233199,-1256.90100356585,12739.0861581885)
(-80766.9504725458,-9504.38534015952,12348.6603441334)
(-100202.921187909,-19957.8265481336,5594.80910182487)
(-123721.556090589,-19715.9365340573,-28537.0574530716)
(-142805.173681209,-10561.8637081855,-122124.217631388)
(-124392.978272862,-4032.54451669118,-291979.080121832)
(0,0,0)
(0,0,0)
(0,0,0)
(0,0,0)
(0,0,0)
(0,0,0)
(-53245.4695261962,13134.9662917406,2326.07726034144)
(-54434.2765361476,12304.3726897234,4446.91350702546)
(-57032.2174900399,10338.5372024251,5966.37853267302)
(-61611.3342217256,6404.52729065204,6224.95248306005)
(-69173.9921377385,-1623.05851553192,4516.89555132792)
(-81823.1804429262,-18651.9218616785,1904.28212099107)
(-103222.614224147,-51364.890705949,5868.90295008511)
(-123724.456549033,-50790.7690018688,-19319.07428137)
(-140490.540248061,-20675.0233537457,-115523.999373044)
(-122943.678973999,-6471.40866479099,-287916.300845349)
(0,0,0)
(0,0,0)
(0,0,0)
(0,0,0)
(0,0,0)
(0,0,0)
(-59322.8208874528,17456.710177928,1552.03324747808)
(-60284.4924557222,16653.2073974986,2539.1462032722)
(-62397.4112050719,14682.1650059591,2061.34172706555)
(-66008.1565448775,10586.4952463804,-1787.8638442201)
(-71916.1927833524,1323.52619921646,-12497.106568497)
(-83648.1932884775,-24888.696404567,-30754.0530589166)
(-126144.844482696,-126294.935721824,6553.52599347081)
(-132491.825828045,-133191.039412667,10939.170105732)
(-135061.839742691,-30511.3305991211,-101212.055186757)
(-120027.26502955,-6897.26612207816,-281324.781996742)
(0,0,0)
(0,0,0)
(0,0,0)
(0,0,0)
(0,0,0)
(0,0,0)
(-68905.4963714414,20365.9638531926,723.924181030023)
(-69581.7199333658,19745.8613164015,577.785958946299)
(-71076.9465748355,18323.7028642286,-2018.48682109261)
(-73227.5988456594,15614.8385443486,-11017.0136057791)
(-74720.8306057522,10751.7554629498,-38629.5013241684)
(-67335.3396103465,2774.96548338192,-132052.595697748)
(4.46492383491585e-05,1.24706234848097e-05,-2.87895893696717e-05)