/*--------------------------------*- C++ -*----------------------------------*\
| =========                 |                                                 |
| \\      /  F ield         | foam-extend: Open Source CFD                    |
|  \\    /   O peration     | Version:     4.0                                |
|   \\  /    A nd           | Web:         http://www.foam-extend.org         |
|    \\/     M anipulation  |                                                 |
\*---------------------------------------------------------------------------*/
FoamFile
{
    version 2.0;
    format ascii;
    class volVectorField;
    location "3263";
    object      E;
}
// * * * * * * * * * * * * * * * * * * * * * * * * * * * * * * * * * * * * * //

dimensions      [0 1 -1 0 0 0 0];

internalField   nonuniform List<vector>
4096
(
(0,0,0)
(0,0,0)
(0,0,0)
(0,0,0)
(0,0,0)
(0,0,0)
(0,0,0)
(0,0,0)
(0,0,0)
(0,0,0)
(0,0,0)
(0,0,0)
(0,0,0)
(0,0,0)
(0,0,0)
(0,0,0)
(0,0,0)
(0,0,0)
(0,0,0)
(0,0,0)
(0,0,0)
(0,0,0)
(0,0,0)
(0,0,0)
(0,0,0)
(0,0,0)
(0,0,0)
(0,0,0)
(0,0,0)
(0,0,0)
(0,0,0)
(0,0,0)
(0,0,0)
(0,0,0)
(0,0,0)
(0,0,0)
(0,0,0)
(0,0,0)
(0,0,0)
(0,0,0)
(0,0,0)
(0,0,0)
(0,0,0)
(0,0,0)
(0,0,0)
(0,0,0)
(0,0,0)
(0,0,0)
(0,0,0)
(0,0,0)
(0,0,0)
(0,0,0)
(0,0,0)
(0,0,0)
(0,0,0)
(0,0,0)
(0,0,0)
(0,0,0)
(0,0,0)
(0,0,0)
(0,0,0)
(0,0,0)
(0,0,0)
(0,0,0)
(0,0,0)
(0,0,0)
(0,0,0)
(0,0,0)
(0,0,0)
(0,0,0)
(0,0,0)
(0,0,0)
(0,0,0)
(0,0,0)
(0,0,0)
(0,0,0)
(0,0,0)
(0,0,0)
(0,0,0)
(0,0,0)
(0,0,0)
(0,0,0)
(0,0,0)
(0,0,0)
(0,0,0)
(0,0,0)
(0,0,0)
(0,0,0)
(0,0,0)
(0,0,0)
(0,0,0)
(0,0,0)
(0,0,0)
(0,0,0)
(0,0,0)
(0,0,0)
(0,0,0)
(0,0,0)
(0,0,0)
(0,0,0)
(0,0,0)
(0,0,0)
(0,0,0)
(0,0,0)
(0,0,0)
(0,0,0)
(0,0,0)
(0,0,0)
(0,0,0)
(0,0,0)
(0,0,0)
(0,0,0)
(0,0,0)
(0,0,0)
(0,0,0)
(0,0,0)
(0,0,0)
(0,0,0)
(0,0,0)
(0,0,0)
(0,0,0)
(0,0,0)
(0,0,0)
(0,0,0)
(0,0,0)
(0,0,0)
(0,0,0)
(0,0,0)
(0,0,0)
(0,0,0)
(0,0,0)
(0,0,0)
(0,0,0)
(0,0,0)
(0,0,0)
(0,0,0)
(0,0,0)
(0,0,0)
(0,0,0)
(0,0,0)
(0,0,0)
(0,0,0)
(0,0,0)
(0,0,0)
(0,0,0)
(0,0,0)
(0,0,0)
(0,0,0)
(0,0,0)
(0,0,0)
(0,0,0)
(0,0,0)
(0,0,0)
(0,0,0)
(0,0,0)
(0,0,0)
(0,0,0)
(0,0,0)
(0,0,0)
(0,0,0)
(0,0,0)
(0,0,0)
(0,0,0)
(0,0,0)
(0,0,0)
(0,0,0)
(0,0,0)
(0,0,0)
(0,0,0)
(0,0,0)
(0,0,0)
(0,0,0)
(0,0,0)
(0,0,0)
(0,0,0)
(0,0,0)
(0,0,0)
(0,0,0)
(0,0,0)
(0,0,0)
(0,0,0)
(0,0,0)
(0,0,0)
(0,0,0)
(0,0,0)
(0,0,0)
(0,0,0)
(0,0,0)
(0,0,0)
(0,0,0)
(0,0,0)
(0,0,0)
(0,0,0)
(0,0,0)
(0,0,0)
(0,0,0)
(0,0,0)
(0,0,0)
(0,0,0)
(0,0,0)
(0,0,0)
(0,0,0)
(0,0,0)
(0,0,0)
(0,0,0)
(0,0,0)
(0,0,0)
(0,0,0)
(0,0,0)
(0,0,0)
(0,0,0)
(0,0,0)
(0,0,0)
(0,0,0)
(0,0,0)
(0,0,0)
(0,0,0)
(0,0,0)
(0,0,0)
(0,0,0)
(0,0,0)
(0,0,0)
(0,0,0)
(0,0,0)
(0,0,0)
(0,0,0)
(0,0,0)
(0,0,0)
(0,0,0)
(0,0,0)
(0,0,0)
(0,0,0)
(0,0,0)
(0,0,0)
(0,0,0)
(0,0,0)
(0,0,0)
(0,0,0)
(0,0,0)
(0,0,0)
(0,0,0)
(0,0,0)
(0,0,0)
(0,0,0)
(0,0,0)
(0,0,0)
(0,0,0)
(0,0,0)
(0,0,0)
(0,0,0)
(0,0,0)
(0,0,0)
(0,0,0)
(0,0,0)
(0,0,0)
(0,0,0)
(0,0,0)
(0,0,0)
(0,0,0)
(0,0,0)
(0,0,0)
(0,0,0)
(0,0,0)
(0,0,0)
(0,0,0)
(0,0,0)
(0,0,0)
(0,0,0)
(0,0,0)
(0,0,0)
(0,0,0)
(0,0,0)
(0,0,0)
(0,0,0)
(0,0,0)
(0,0,0)
(0,0,0)
(0,0,0)
(0,0,0)
(0,0,0)
(0,0,0)
(0,0,0)
(0,0,0)
(0,0,0)
(0,0,0)
(0,0,0)
(0,0,0)
(0,0,0)
(0,0,0)
(0,0,0)
(0,0,0)
(0,0,0)
(0,0,0)
(0,0,0)
(0,0,0)
(0,0,0)
(0,0,0)
(0,0,0)
(0,0,0)
(0,0,0)
(0,0,0)
(0,0,0)
(0,0,0)
(0,0,0)
(0,0,0)
(0,0,0)
(0,0,0)
(0,0,0)
(0,0,0)
(0,0,0)
(0,0,0)
(0,0,0)
(0,0,0)
(0,0,0)
(0,0,0)
(0,0,0)
(0,0,0)
(0,0,0)
(0,0,0)
(0,0,0)
(0,0,0)
(0,0,0)
(0,0,0)
(0,0,0)
(0,0,0)
(0,0,0)
(0,0,0)
(0,0,0)
(0,0,0)
(0,0,0)
(0,0,0)
(0,0,0)
(0,0,0)
(0,0,0)
(0,0,0)
(0,0,0)
(0,0,0)
(0,0,0)
(0,0,0)
(0,0,0)
(0,0,0)
(0,0,0)
(0,0,0)
(0,0,0)
(0,0,0)
(0,0,0)
(0,0,0)
(0,0,0)
(0,0,0)
(0,0,0)
(0,0,0)
(0,0,0)
(0,0,0)
(0,0,0)
(0,0,0)
(0,0,0)
(0,0,0)
(0,0,0)
(0,0,0)
(0,0,0)
(0,0,0)
(0,0,0)
(0,0,0)
(0,0,0)
(0,0,0)
(0,0,0)
(0,0,0)
(0,0,0)
(0,0,0)
(0,0,0)
(0,0,0)
(0,0,0)
(0,0,0)
(0,0,0)
(0,0,0)
(0,0,0)
(0,0,0)
(0,0,0)
(0,0,0)
(0,0,0)
(0,0,0)
(0,0,0)
(0,0,0)
(0,0,0)
(0,0,0)
(0,0,0)
(0,0,0)
(0,0,0)
(0,0,0)
(0,0,0)
(0,0,0)
(0,0,0)
(0,0,0)
(0,0,0)
(0,0,0)
(0,0,0)
(0,0,0)
(0,0,0)
(0,0,0)
(0,0,0)
(0,0,0)
(0,0,0)
(0,0,0)
(0,0,0)
(0,0,0)
(0,0,0)
(0,0,0)
(0,0,0)
(0,0,0)
(0,0,0)
(0,0,0)
(0,0,0)
(0,0,0)
(0,0,0)
(0,0,0)
(0,0,0)
(0,0,0)
(0,0,0)
(0,0,0)
(0,0,0)
(0,0,0)
(0,0,0)
(0,0,0)
(0,0,0)
(0,0,0)
(0,0,0)
(0,0,0)
(0,0,0)
(0,0,0)
(0,0,0)
(0,0,0)
(0,0,0)
(0,0,0)
(0,0,0)
(0,0,0)
(0,0,0)
(0,0,0)
(0,0,0)
(0,0,0)
(0,0,0)
(0,0,0)
(0,0,0)
(0,0,0)
(0,0,0)
(0,0,0)
(0,0,0)
(0,0,0)
(0,0,0)
(0,0,0)
(0,0,0)
(0,0,0)
(0,0,0)
(0,0,0)
(0,0,0)
(0,0,0)
(0,0,0)
(0,0,0)
(0,0,0)
(0,0,0)
(0,0,0)
(0,0,0)
(0,0,0)
(0,0,0)
(0,0,0)
(0,0,0)
(0,0,0)
(0,0,0)
(0,0,0)
(0,0,0)
(0,0,0)
(0,0,0)
(0,0,0)
(0,0,0)
(0,0,0)
(0,0,0)
(0,0,0)
(0,0,0)
(0,0,0)
(0,0,0)
(0,0,0)
(0,0,0)
(0,0,0)
(0,0,0)
(0,0,0)
(0,0,0)
(0,0,0)
(0,0,0)
(0,0,0)
(0,0,0)
(0,0,0)
(0,0,0)
(0,0,0)
(0,0,0)
(0,0,0)
(0,0,0)
(0,0,0)
(0,0,0)
(0,0,0)
(0,0,0)
(0,0,0)
(0,0,0)
(0,0,0)
(0,0,0)
(0,0,0)
(0,0,0)
(0,0,0)
(0,0,0)
(0,0,0)
(0,0,0)
(0,0,0)
(0,0,0)
(0,0,0)
(0,0,0)
(0,0,0)
(0,0,0)
(0,0,0)
(0,0,0)
(0,0,0)
(0,0,0)
(0,0,0)
(0,0,0)
(0,0,0)
(0,0,0)
(0,0,0)
(0,0,0)
(0,0,0)
(0,0,0)
(0,0,0)
(0,0,0)
(0,0,0)
(0,0,0)
(0,0,0)
(0,0,0)
(0,0,0)
(0,0,0)
(0,0,0)
(0,0,0)
(0,0,0)
(0,0,0)
(0,0,0)
(0,0,0)
(0,0,0)
(0,0,0)
(0,0,0)
(0,0,0)
(0,0,0)
(0,0,0)
(0,0,0)
(0,0,0)
(0,0,0)
(0,0,0)
(0,0,0)
(0,0,0)
(0,0,0)
(0,0,0)
(0,0,0)
(0,0,0)
(0,0,0)
(0,0,0)
(0,0,0)
(0,0,0)
(0,0,0)
(0,0,0)
(0,0,0)
(0,0,0)
(0,0,0)
(0,0,0)
(0,0,0)
(0,0,0)
(0,0,0)
(0,0,0)
(0,0,0)
(0,0,0)
(0,0,0)
(0,0,0)
(0,0,0)
(0,0,0)
(0,0,0)
(0,0,0)
(0,0,0)
(0,0,0)
(0,0,0)
(0,0,0)
(0,0,0)
(0,0,0)
(0,0,0)
(0,0,0)
(0,0,0)
(0,0,0)
(0,0,0)
(0,0,0)
(0,0,0)
(0,0,0)
(0,0,0)
(0,0,0)
(0,0,0)
(0,0,0)
(0,0,0)
(0,0,0)
(0,0,0)
(0,0,0)
(0,0,0)
(0,0,0)
(0,0,0)
(0,0,0)
(0,0,0)
(0,0,0)
(0,0,0)
(0,0,0)
(0,0,0)
(0,0,0)
(0,0,0)
(0,0,0)
(0,0,0)
(0,0,0)
(0,0,0)
(0,0,0)
(0,0,0)
(0,0,0)
(0,0,0)
(0,0,0)
(0,0,0)
(0,0,0)
(0,0,0)
(0,0,0)
(0,0,0)
(0,0,0)
(0,0,0)
(0,0,0)
(0,0,0)
(0,0,0)
(0,0,0)
(0,0,0)
(0,0,0)
(0,0,0)
(0,0,0)
(0,0,0)
(0,0,0)
(0,0,0)
(0,0,0)
(0,0,0)
(0,0,0)
(0,0,0)
(0,0,0)
(0,0,0)
(0,0,0)
(0,0,0)
(0,0,0)
(0,0,0)
(0,0,0)
(0,0,0)
(0,0,0)
(0,0,0)
(0,0,0)
(0,0,0)
(0,0,0)
(0,0,0)
(0,0,0)
(0,0,0)
(0,0,0)
(0,0,0)
(0,0,0)
(0,0,0)
(0,0,0)
(0,0,0)
(0,0,0)
(0,0,0)
(0,0,0)
(0,0,0)
(0,0,0)
(0,0,0)
(0,0,0)
(0,0,0)
(0,0,0)
(0,0,0)
(0,0,0)
(0,0,0)
(0,0,0)
(0,0,0)
(0,0,0)
(0,0,0)
(0,0,0)
(0,0,0)
(0,0,0)
(0,0,0)
(0,0,0)
(0,0,0)
(0,0,0)
(0,0,0)
(0,0,0)
(0,0,0)
(0,0,0)
(0,0,0)
(0,0,0)
(0,0,0)
(0,0,0)
(0,0,0)
(0,0,0)
(0,0,0)
(0,0,0)
(0,0,0)
(0,0,0)
(0,0,0)
(0,0,0)
(0,0,0)
(0,0,0)
(0,0,0)
(0,0,0)
(0,0,0)
(0,0,0)
(0,0,0)
(0,0,0)
(0,0,0)
(0,0,0)
(0,0,0)
(0,0,0)
(0,0,0)
(0,0,0)
(0,0,0)
(0,0,0)
(0,0,0)
(0,0,0)
(0,0,0)
(0,0,0)
(0,0,0)
(0,0,0)
(0,0,0)
(0,0,0)
(0,0,0)
(0,0,0)
(0,0,0)
(0,0,0)
(0,0,0)
(0,0,0)
(0,0,0)
(0,0,0)
(0,0,0)
(0,0,0)
(0,0,0)
(0,0,0)
(0,0,0)
(0,0,0)
(0,0,0)
(0,0,0)
(0,0,0)
(0,0,0)
(0,0,0)
(0,0,0)
(0,0,0)
(0,0,0)
(0,0,0)
(0,0,0)
(0,0,0)
(0,0,0)
(0,0,0)
(0,0,0)
(0,0,0)
(0,0,0)
(0,0,0)
(0,0,0)
(0,0,0)
(0,0,0)
(0,0,0)
(0,0,0)
(0,0,0)
(0,0,0)
(0,0,0)
(0,0,0)
(0,0,0)
(0,0,0)
(0,0,0)
(0,0,0)
(0,0,0)
(0,0,0)
(0,0,0)
(0,0,0)
(0,0,0)
(0,0,0)
(0,0,0)
(0,0,0)
(0,0,0)
(0,0,0)
(0,0,0)
(0,0,0)
(0,0,0)
(0,0,0)
(0,0,0)
(0,0,0)
(0,0,0)
(0,0,0)
(0,0,0)
(0,0,0)
(0,0,0)
(0,0,0)
(0,0,0)
(0,0,0)
(0,0,0)
(0,0,0)
(0,0,0)
(0,0,0)
(0,0,0)
(0,0,0)
(0,0,0)
(0,0,0)
(0,0,0)
(0,0,0)
(0,0,0)
(0,0,0)
(0,0,0)
(0,0,0)
(0,0,0)
(0,0,0)
(0,0,0)
(0,0,0)
(0,0,0)
(0,0,0)
(0,0,0)
(0,0,0)
(0,0,0)
(-41351.5361862482,22058.0473100351,19293.4888762123)
(-43727.2195956647,21177.1785418718,41843.5299300044)
(-49234.1296495291,19311.7978340116,71765.8617455184)
(-59643.6582891091,16360.2306748078,115049.28935983)
(-78400.7746548522,12334.4795900853,181115.584424597)
(-112067.8335201,7695.32109834693,285488.096846355)
(-173041.272256694,3503.51030843368,455025.858794638)
(-283421.526706491,923.1602669756,737524.225234164)
(-467664.231047432,73.685384652288,1205114.77089691)
(-651780.054775249,-46.9533203860735,1856941.77899262)
(0,0,0)
(0,0,0)
(0,0,0)
(0,0,0)
(0,0,0)
(0,0,0)
(-43763.6003540583,47445.1311360563,18376.5165280354)
(-46165.3630014371,45759.7335869578,39959.3244843889)
(-51741.2404556352,42187.2185289637,68825.1442450691)
(-62378.0951427185,36472.270123049,111091.199939547)
(-81651.0472387113,28524.2511762576,176552.475592083)
(-116120.531718781,19053.1204929562,281315.207916243)
(-177786.75867329,10156.1958861328,452449.281011825)
(-287748.272839448,4489.12897057588,736631.585147633)
(-470552.631139493,2250.65936675536,1205007.24230507)
(-653132.063131806,1114.62157079594,1856977.73054559)
(0,0,0)
(0,0,0)
(0,0,0)
(0,0,0)
(0,0,0)
(0,0,0)
(-49234.2183342714,80007.5594517245,16671.7900186033)
(-51670.6338134402,77714.352615643,36387.8048033621)
(-57419.1961913793,72866.2925121947,63127.9270115155)
(-68582.6728073582,64968.9024480225,103213.967493901)
(-89087.0868757722,53666.7622234397,167158.543322478)
(-125700.443228632,39520.8657732505,272391.241270819)
(-189491.690994923,25247.0939010645,446792.034250823)
(-298498.606817209,15378.6700489219,734401.099989626)
(-477450.400907219,10145.3457722504,1203956.81449142)
(-656253.11655409,5474.57391406317,1855849.97870224)
(0,0,0)
(0,0,0)
(0,0,0)
(0,0,0)
(0,0,0)
(0,0,0)
(-59397.3347124066,125025.405166371,14379.4889977612)
(-61868.9269201721,122449.64343771,31513.1250958687)
(-67841.545876001,116994.053621767,55226.9098622898)
(-79783.2077803332,108000.864868874,91978.1552217641)
(-102321.540631147,94824.9657845213,153141.492291841)
(-143039.200331872,77505.6257432219,258195.932653733)
(-211871.663318541,58270.5316978538,437044.158175481)
(-319307.693907545,42480.712969195,729249.809162729)
(-490138.603059461,30167.0093895858,1199366.74860479)
(-661793.184731152,16215.6484776253,1850418.85877255)
(0,0,0)
(0,0,0)
(0,0,0)
(0,0,0)
(0,0,0)
(0,0,0)
(-77578.4538039797,190822.514110996,11781.3448593489)
(-80027.7671978558,188258.271055852,26000.4844390609)
(-86120.2874722339,182909.928523489,46204.8970095709)
(-98722.0958073292,174126.62618825,78801.2314975245)
(-123390.332103241,161163.113102141,135853.416283146)
(-169215.110508247,143544.257880039,239029.894654556)
(-246026.381632485,121881.216644705,421445.591340188)
(-351066.866064319,97866.2599472217,717126.910426522)
(-508627.500947749,70322.0788381464,1185599.34192582)
(-669801.44908952,37243.9857377647,1834372.45375519)
(0,0,0)
(0,0,0)
(0,0,0)
(0,0,0)
(0,0,0)
(0,0,0)
(-110389.064990173,291956.976614462,9254.60248671238)
(-112722.838640479,289610.648850965,20625.0633320703)
(-118635.574975301,284789.349661212,37381.2171696514)
(-131118.179154024,276869.592911816,65756.4296001001)
(-156063.131013835,264821.270227869,118161.403488215)
(-202787.497266149,247062.339617102,217430.81901731)
(-279865.117038185,221528.225960422,397648.926739772)
(-380135.302491068,185767.157696991,689883.331481083)
(-528672.691362957,135987.2813275,1152890.82035474)
(-679899.285664552,72556.4009926675,1797477.69076433)
(0,0,0)
(0,0,0)
(0,0,0)
(0,0,0)
(0,0,0)
(0,0,0)
(-170652.143842639,455514.465271035,7094.65518605835)
(-172754.443359129,453502.869567608,15956.8778285527)
(-178084.317101548,449279.354535886,29551.1900554276)
(-189504.891480814,442197.185956218,53728.4884918376)
(-212679.504710039,430814.712811453,100414.550618292)
(-256594.12456233,412031.809392311,192039.205405424)
(-328972.665956443,380368.093041152,362172.004281152)
(-420173.44187301,327665.799010647,640446.804840503)
(-558568.942253877,245148.945129728,1089854.08329209)
(-696386.279906356,133536.689631262,1725260.07455995)
(0,0,0)
(0,0,0)
(0,0,0)
(0,0,0)
(0,0,0)
(0,0,0)
(-281052.126195853,731347.450232206,5219.14123467895)
(-282751.18805687,729565.486609424,11907.7122497448)
(-287031.259945823,725641.998899192,22576.3278322837)
(-296313.828796397,718759.617834756,42327.7247501268)
(-315369.026502246,706846.013849321,81665.4502145053)
(-351912.79734823,685069.333039187,160540.723915846)
(-412568.538432216,643697.775837755,309779.579551415)
(-486438.856072515,565582.104145503,558302.130489095)
(-612820.789816477,437585.937465086,978685.927970209)
(-727900.415468403,248010.303589631,1592112.7294802)
(0,0,0)
(0,0,0)
(0,0,0)
(0,0,0)
(0,0,0)
(0,0,0)
(-466020.436786812,1193830.14942742,3537.73759158907)
(-467174.985828192,1192106.73893713,8171.47109206376)
(-470087.393751615,1188070.34745366,15830.516289148)
(-476336.808260698,1180472.30649432,30454.6358902614)
(-488925.37060204,1166197.92271409,60028.0976275413)
(-512595.455084169,1138371.30690041,119321.578850498)
(-552326.390133728,1083501.28818683,231844.456635159)
(-611331.816560609,978225.656834083,430532.720507219)
(-712803.471982768,791447.170326441,789474.959628518)
(-782847.807310984,475856.692158451,1344476.3783707)
(0,0,0)
(0,0,0)
(0,0,0)
(0,0,0)
(0,0,0)
(0,0,0)
(-650964.216701918,1842960.82266659,1833.54346274746)
(-651544.887962786,1841225.85881506,4259.31154760846)
(-653009.957216474,1836988.66995461,8350.94626316526)
(-656099.113479781,1828637.74330717,16284.6229301418)
(-662209.724347468,1812310.09853144,32382.1714602693)
(-673617.714486436,1779741.40480393,64629.7880431449)
(-693507.34465572,1714905.52857551,126732.89231016)
(-726990.214455487,1588002.61777852,243946.145821194)
(-782666.965237782,1343861.00094352,474199.280441834)
(-788262.358488266,869348.372491077,868969.958597528)
(0,0,0)
(0,0,0)
(0,0,0)
(0,0,0)
(0,0,0)
(0,0,0)
(0,0,0)
(0,0,0)
(0,0,0)
(0,0,0)
(0,0,0)
(0,0,0)
(0,0,0)
(0,0,0)
(0,0,0)
(0,0,0)
(0,0,0)
(0,0,0)
(0,0,0)
(0,0,0)
(0,0,0)
(0,0,0)
(0,0,0)
(0,0,0)
(0,0,0)
(0,0,0)
(0,0,0)
(0,0,0)
(0,0,0)
(0,0,0)
(0,0,0)
(0,0,0)
(0,0,0)
(0,0,0)
(0,0,0)
(0,0,0)
(0,0,0)
(0,0,0)
(0,0,0)
(0,0,0)
(0,0,0)
(0,0,0)
(0,0,0)
(0,0,0)
(0,0,0)
(0,0,0)
(0,0,0)
(0,0,0)
(0,0,0)
(0,0,0)
(0,0,0)
(0,0,0)
(0,0,0)
(0,0,0)
(0,0,0)
(0,0,0)
(0,0,0)
(0,0,0)
(0,0,0)
(0,0,0)
(0,0,0)
(0,0,0)
(0,0,0)
(0,0,0)
(0,0,0)
(0,0,0)
(0,0,0)
(0,0,0)
(0,0,0)
(0,0,0)
(0,0,0)
(0,0,0)
(0,0,0)
(0,0,0)
(0,0,0)
(0,0,0)
(0,0,0)
(0,0,0)
(0,0,0)
(0,0,0)
(0,0,0)
(0,0,0)
(0,0,0)
(0,0,0)
(0,0,0)
(0,0,0)
(0,0,0)
(0,0,0)
(0,0,0)
(0,0,0)
(0,0,0)
(0,0,0)
(0,0,0)
(0,0,0)
(0,0,0)
(0,0,0)
(0,0,0)
(0,0,0)
(0,0,0)
(0,0,0)
(0,0,0)
(0,0,0)
(6114398.85957709,19653.4324955863,16921.9383331834)
(6110404.87282662,18754.4567575248,36361.1557456142)
(6101247.45516479,16801.394360126,61403.9431632047)
(6084163.26015297,13589.8865459176,96332.9047672956)
(6053744.99501954,9059.27906715961,147453.622617799)
(5999611.20551429,3625.9511753021,224474.399000156)
(5900225.69889885,-1216.80504145072,344749.999478047)
(5703521.39582576,-3375.31447352464,553508.158011451)
(5259606.08477658,-2804.37018427181,1021367.97896385)
(4054063.77743985,-1373.95186316697,2509223.86520409)
(0,0,0)
(0,0,0)
(0,0,0)
(0,0,0)
(0,0,0)
(0,0,0)
(6110289.1749733,41938.970834294,15987.4529260902)
(6106283.77549666,40221.2820033984,34397.2557742893)
(6097069.1946419,36483.5693261157,58230.4123029055)
(6079690.46144246,30221.9783762318,91855.5304795826)
(6048443.11766814,21063.1797297122,142083.231502346)
(5992786.53819335,9484.26521895788,219643.614138706)
(5891858.20026702,-1505.50780833906,342613.124557513)
(5695984.49576492,-6241.99942757195,554072.807499265)
(5254925.71740233,-4680.94690958378,1022796.8022748)
(4052022.56735508,-2007.02304450576,2510601.00956123)
(0,0,0)
(0,0,0)
(0,0,0)
(0,0,0)
(0,0,0)
(0,0,0)
(6101039.76717735,69763.3042317162,14227.4476829541)
(6097029.23922547,67438.5906152018,30636.0326243373)
(6087639.55977476,62380.0544825714,52006.5580939159)
(6069515.48751522,53698.597128821,82757.5456110084)
(6036108.04866793,40383.0208049719,130568.335584197)
(5975879.64625633,22176.9457357993,208621.332174591)
(5869175.31900029,2880.84686932654,337893.734093879)
(5675209.84629904,-5404.92366262861,555673.971804919)
(5242877.67146457,-2544.41255916415,1025535.13167467)
(4047035.25489161,-56.0033931885887,2512621.50716988)
(0,0,0)
(0,0,0)
(0,0,0)
(0,0,0)
(0,0,0)
(0,0,0)
(6084130.77288499,106658.202666059,11902.7605603387)
(6080138.87089199,104112.75585093,25546.5641045889)
(6070516.10498647,98563.0871096947,43331.6472071264)
(6051172.64507188,88926.4714935828,69473.6865823379)
(6013753.68088672,73674.7154174183,112432.537044218)
(5943214.32602247,51319.0405196363,189362.682498159)
(5818806.88952365,24168.4666309189,329722.276486572)
(5627879.90239347,10802.7607607947,558652.762354378)
(5218449.28300902,11718.7010176451,1028127.52930108)
(4037644.95226379,8206.58293248273,2512752.57257281)
(0,0,0)
(0,0,0)
(0,0,0)
(0,0,0)
(0,0,0)
(0,0,0)
(6054349.50484147,157725.221852588,9330.78876014519)
(6050473.54786239,155331.620242718,19936.375900209)
(6040810.08471998,150223.425659576,33671.4317503732)
(6020431.14171483,141572.606801274,54197.8255125854)
(5978389.54745122,128351.316022738,90067.1119450571)
(5892350.01659939,109895.971520656,162250.820428642)
(5728144.85408792,88037.3798037432,316536.43812759)
(5540015.68805202,68800.1783566061,559782.233007627)
(5180095.70140211,50284.8042648536,1024818.69400256)
(4023673.81648679,27153.8737104632,2504721.9042403)
(0,0,0)
(0,0,0)
(0,0,0)
(0,0,0)
(0,0,0)
(0,0,0)
(6001335.05692692,231394.679671196,6932.18685633244)
(5997730.55948888,229363.446673719,14772.7288880748)
(5988518.9500498,225191.591145664,24975.8049690419)
(5968513.36692257,218346.00652095,40896.6257650589)
(5925950.12760217,208047.11949011,71513.3302738142)
(5837398.82432398,193121.833356622,140426.913439793)
(5671052.5180655,172365.877834072,297506.546897981)
(5491213.19572407,145733.516790711,541550.476840861)
(5147366.26836779,106115.897126654,1002006.19084049)
(4007628.75062097,56095.2590722656,2477862.53578518)
(0,0,0)
(0,0,0)
(0,0,0)
(0,0,0)
(0,0,0)
(0,0,0)
(5903037.23507591,344990.42733391,5040.64001086703)
(5899854.57396606,343414.157225352,10706.6787261642)
(5891658.42658289,340264.049528626,18217.2432509637)
(5873463.53617305,335293.24628845,30627.3424216795)
(5833760.56411267,327996.233861906,56563.9258193226)
(5749041.57290882,316627.26754141,119748.560755413)
(5587624.56447142,296754.663706978,271088.3110467)
(5425299.14543874,261451.497305034,502223.509812782)
(5098851.51066376,190955.930500627,952288.790113176)
(3980221.70228704,102071.029669337,2422030.8039149)
(0,0,0)
(0,0,0)
(0,0,0)
(0,0,0)
(0,0,0)
(0,0,0)
(5706255.82199799,546427.44247078,3580.80326145711)
(5703732.32607388,545164.600655357,7672.61229279711)
(5697221.08628005,542647.629855373,13362.4523323327)
(5682515.9996424,538794.999651477,23356.6371225988)
(5649787.94666191,533302.263953424,45219.4004589449)
(5577854.53000591,524416.998869194,99988.1083692794)
(5436488.88855454,504003.532800496,236007.578881162)
(5330562.03405063,440756.460758627,432027.491896403)
(5001070.34615027,337659.283121148,863758.769901265)
(3916826.84241211,193121.502411991,2320306.80587019)
(0,0,0)
(0,0,0)
(0,0,0)
(0,0,0)
(0,0,0)
(0,0,0)
(5261249.72530141,1009080.01354721,2403.03342755275)
(5259563.81809824,1007895.87180407,5258.72494458857)
(5255210.75547688,1005335.03425607,9598.93790749396)
(5245576.55599205,1000904.99452171,17901.3453765916)
(5225089.90429775,993084.515253308,36429.5857689901)
(5183393.52290049,977510.348571939,79673.0246738396)
(5108277.88137811,942483.42583319,172914.626721538)
(5002819.80080255,862692.337131898,329152.899577306)
(4705102.55268135,721663.0698728,719568.854753711)
(3724085.78524571,470512.31093295,2127570.2202682)
(0,0,0)
(0,0,0)
(0,0,0)
(0,0,0)
(0,0,0)
(0,0,0)
(4054744.86147362,2494423.30427082,1273.39769291727)
(4053914.85293306,2493220.84409554,2814.45109761752)
(4051759.44777627,2490422.28646614,5283.56048697819)
(4047098.50464649,2485114.07223993,10202.6312347606)
(4037555.47639314,2474823.98030417,21023.7320355124)
(4018809.94992711,2453630.02227275,44802.160513361)
(3984125.32509831,2408679.1968544,93299.4863303034)
(3917772.04940109,2315227.351304,188327.974893923)
(3724229.79482663,2126710.07275463,468709.978539888)
(3028150.6030378,1657739.77668606,1657395.31785284)
(0,0,0)
(0,0,0)
(0,0,0)
(0,0,0)
(0,0,0)
(0,0,0)
(0,0,0)
(0,0,0)
(0,0,0)
(0,0,0)
(0,0,0)
(0,0,0)
(0,0,0)
(0,0,0)
(0,0,0)
(0,0,0)
(0,0,0)
(0,0,0)
(0,0,0)
(0,0,0)
(0,0,0)
(0,0,0)
(0,0,0)
(0,0,0)
(0,0,0)
(0,0,0)
(0,0,0)
(0,0,0)
(0,0,0)
(0,0,0)
(0,0,0)
(0,0,0)
(0,0,0)
(0,0,0)
(0,0,0)
(0,0,0)
(0,0,0)
(0,0,0)
(0,0,0)
(0,0,0)
(0,0,0)
(0,0,0)
(0,0,0)
(0,0,0)
(0,0,0)
(0,0,0)
(0,0,0)
(0,0,0)
(0,0,0)
(0,0,0)
(0,0,0)
(0,0,0)
(0,0,0)
(0,0,0)
(0,0,0)
(0,0,0)
(0,0,0)
(0,0,0)
(0,0,0)
(0,0,0)
(0,0,0)
(0,0,0)
(0,0,0)
(0,0,0)
(0,0,0)
(0,0,0)
(0,0,0)
(0,0,0)
(0,0,0)
(0,0,0)
(0,0,0)
(0,0,0)
(0,0,0)
(0,0,0)
(0,0,0)
(0,0,0)
(0,0,0)
(0,0,0)
(0,0,0)
(0,0,0)
(0,0,0)
(0,0,0)
(0,0,0)
(0,0,0)
(0,0,0)
(0,0,0)
(0,0,0)
(0,0,0)
(0,0,0)
(0,0,0)
(0,0,0)
(0,0,0)
(0,0,0)
(0,0,0)
(0,0,0)
(0,0,0)
(0,0,0)
(0,0,0)
(0,0,0)
(0,0,0)
(0,0,0)
(0,0,0)
(-106459.007552663,15564.5486230027,12967.5519146434)
(-110862.103042962,14661.8426391009,27246.9185528808)
(-120781.785577469,12627.2028928906,44323.1898102159)
(-138838.926881014,9094.36008709275,65905.2501650164)
(-169719.701536341,3736.07010006965,93308.1100287824)
(-221300.804338593,-3213.31651792189,125107.669807526)
(-305745.226923921,-9565.03710225024,148317.866140528)
(-439610.358310466,-10894.4771445522,110018.330829164)
(-631640.277360857,-7485.8787438093,-183575.194881713)
(-774535.388539457,-3418.47356194589,-1543883.32193255)
(0,0,0)
(0,0,0)
(0,0,0)
(0,0,0)
(0,0,0)
(0,0,0)
(-111141.063443282,32648.8946898185,12020.1257576061)
(-115469.517033971,30926.1621035162,25183.3322316514)
(-125269.727481584,27018.2830838064,40805.4075720776)
(-143321.610380478,19999.9557506538,60586.1171392872)
(-174673.14724233,8689.26589023562,86423.4196674389)
(-227654.088010478,-7427.25747166285,118752.220232859)
(-314079.945542059,-24181.2314706132,146980.79381809)
(-446640.295960684,-27036.3018784158,113421.643685445)
(-635152.127932891,-16778.9271248932,-179533.229190278)
(-775763.915910043,-7017.67510097945,-1540473.31097811)
(0,0,0)
(0,0,0)
(0,0,0)
(0,0,0)
(0,0,0)
(0,0,0)
(-121539.547995035,52668.683719189,10233.7595510178)
(-125731.163651041,50358.6380456514,21235.9198932936)
(-135358.401574987,45099.7375228017,33826.6602118683)
(-153554.839572453,35241.6827583,49329.4936996455)
(-186519.31378239,17953.427877793,70366.9275702471)
(-244955.907488293,-10528.4596128,101977.91686381)
(-341938.586250592,-47536.3063575151,144121.130409424)
(-470987.055295286,-52758.537417788,123714.500950906)
(-645804.213760999,-26989.6549925962,-169718.652547772)
(-779161.714522246,-9449.89837771487,-1533415.22644941)
(0,0,0)
(0,0,0)
(0,0,0)
(0,0,0)
(0,0,0)
(0,0,0)
(-140076.886501714,76627.7227380108,7922.85377579791)
(-144029.406468267,74190.9956979484,15933.0068916183)
(-153380.954203064,68622.2686133463,23981.7683984708)
(-171972.603367433,57982.6861848066,32060.2468190892)
(-208642.503713867,38175.6006448698,41908.4920604154)
(-283107.823976191,387.355894277624,64989.0599599031)
(-428561.236555241,-66506.054785787,139001.16787486)
(-550797.396605468,-77022.4425863149,149616.605450093)
(-672584.462632046,-26610.3973749976,-152054.67311845)
(-786518.37875424,-5776.54007820036,-1523890.4669922)
(0,0,0)
(0,0,0)
(0,0,0)
(0,0,0)
(0,0,0)
(0,0,0)
(-171254.343353996,104431.583214915,5474.22112643445)
(-174842.282382468,102339.23787998,10316.0425971592)
(-183650.992725074,97727.3032300806,13346.3188332143)
(-202272.780533313,89465.7309729555,12241.4297011482)
(-243353.920177936,75754.2088968868,4080.52248603936)
(-348459.881334989,54844.6342436899,-1892.62452122607)
(-692107.401077269,30909.8680239852,128617.94124198)
(-820923.87296843,19999.9426289471,200209.350455021)
(-725175.517079966,17564.041340012,-131019.636369925)
(-798583.04719243,11104.3528843281,-1517969.43224532)
(0,0,0)
(0,0,0)
(0,0,0)
(0,0,0)
(0,0,0)
(0,0,0)
(-222618.908920347,132705.4231261,3354.35934405272)
(-225733.021123152,131190.007455098,5641.40378887494)
(-233613.308858222,128115.184477584,5060.01485723195)
(-250930.448796518,123157.706563537,-1513.91160654577)
(-290935.226952707,115732.026784151,-16932.1415310577)
(-395868.076904159,104678.03413308,-25824.4067843774)
(-722998.010452628,88930.5571477423,117879.666017772)
(-841127.333803556,79878.0870972231,198016.284484935)
(-749856.837392056,57677.9696490412,-137200.304656495)
(-810701.738976365,28734.8789849723,-1528826.10775179)
(0,0,0)
(0,0,0)
(0,0,0)
(0,0,0)
(0,0,0)
(0,0,0)
(-306510.160101883,148000.934964174,1926.11674757191)
(-309098.3740524,147120.90553783,2622.40009118141)
(-315750.930372401,145679.336685334,141.838246504707)
(-330877.001113663,144248.85875986,-8934.54325517809)
(-367639.568287428,143927.502545894,-28055.6532089661)
(-470495.535823214,145398.366713901,-41564.6436497712)
(-811920.902989288,145631.725787634,108953.888579002)
(-921033.851904414,166789.643004967,176049.563422302)
(-787136.42685398,93287.5157797272,-165897.811782583)
(-830691.387849022,38753.6919758521,-1557329.3012296)
(0,0,0)
(0,0,0)
(0,0,0)
(0,0,0)
(0,0,0)
(0,0,0)
(-440622.056873949,101430.236676904,1122.81056704471)
(-442584.088009842,101003.585357557,1230.77823894832)
(-447663.719467373,100708.555720705,-1239.40164116008)
(-459552.10635443,101985.913257043,-9234.11673361347)
(-490009.056091237,108711.135360018,-26546.5133866069)
(-584480.730518687,130072.782972014,-41211.435712361)
(-957613.184976219,175917.98025549,130278.616758388)
(-780614.077268379,113137.795009147,102780.809481153)
(-816870.119910834,41814.4470255543,-220131.422295619)
(-861596.665303362,476.349416773226,-1595756.33861308)
(0,0,0)
(0,0,0)
(0,0,0)
(0,0,0)
(0,0,0)
(0,0,0)
(-633204.96213102,-197176.895001886,736.05251901743)
(-634462.91586305,-197491.288045081,931.893290772481)
(-637726.655896218,-197774.938185286,27.03197776974)
(-645061.963775365,-197170.137222322,-2504.16436753891)
(-661864.413788666,-194040.085989682,-5124.39152350051)
(-702012.706182688,-186688.549239106,4717.40317853164)
(-789706.470858703,-181329.62572249,67623.5948011399)
(-818308.543230376,-222084.525043045,31648.4922940576)
(-893581.38608937,-259022.138464219,-261156.750037582)
(-907751.881841939,-225294.599322966,-1595873.90080237)
(0,0,0)
(0,0,0)
(0,0,0)
(0,0,0)
(0,0,0)
(0,0,0)
(-775698.058091314,-1559504.01817096,444.2761418852)
(-776293.571887209,-1559850.82014791,686.466472810025)
(-777863.093572407,-1560467.48211655,675.785160642886)
(-781282.748467977,-1561146.2619624,707.39642293499)
(-788521.375840303,-1561933.86256431,2352.25863885904)
(-803652.116558174,-1564416.9975141,10217.0068069131)
(-831589.474112539,-1574764.37059168,27040.7842947904)
(-862575.825156987,-1601930.79680721,-5090.83597527974)
(-908047.400119631,-1596990.52827092,-227171.017814512)
(-876331.093998864,-1370021.0817701,-1370288.60492295)
(0,0,0)
(0,0,0)
(0,0,0)
(0,0,0)
(0,0,0)
(0,0,0)
(0,0,0)
(0,0,0)
(0,0,0)
(0,0,0)
(0,0,0)
(0,0,0)
(0,0,0)
(0,0,0)
(0,0,0)
(0,0,0)
(0,0,0)
(0,0,0)
(0,0,0)
(0,0,0)
(0,0,0)
(0,0,0)
(0,0,0)
(0,0,0)
(0,0,0)
(0,0,0)
(0,0,0)
(0,0,0)
(0,0,0)
(0,0,0)
(0,0,0)
(0,0,0)
(0,0,0)
(0,0,0)
(0,0,0)
(0,0,0)
(0,0,0)
(0,0,0)
(0,0,0)
(0,0,0)
(0,0,0)
(0,0,0)
(0,0,0)
(0,0,0)
(0,0,0)
(0,0,0)
(0,0,0)
(0,0,0)
(0,0,0)
(0,0,0)
(0,0,0)
(0,0,0)
(0,0,0)
(0,0,0)
(0,0,0)
(0,0,0)
(0,0,0)
(0,0,0)
(0,0,0)
(0,0,0)
(0,0,0)
(0,0,0)
(0,0,0)
(0,0,0)
(0,0,0)
(0,0,0)
(0,0,0)
(0,0,0)
(0,0,0)
(0,0,0)
(0,0,0)
(0,0,0)
(0,0,0)
(0,0,0)
(0,0,0)
(0,0,0)
(0,0,0)
(0,0,0)
(0,0,0)
(0,0,0)
(0,0,0)
(0,0,0)
(0,0,0)
(0,0,0)
(0,0,0)
(0,0,0)
(0,0,0)
(0,0,0)
(0,0,0)
(0,0,0)
(0,0,0)
(0,0,0)
(0,0,0)
(0,0,0)
(0,0,0)
(0,0,0)
(0,0,0)
(0,0,0)
(0,0,0)
(0,0,0)
(0,0,0)
(0,0,0)
(-125950.775616042,10905.4483110952,8586.31975228314)
(-129694.80427951,10065.4050959452,17353.61589289)
(-137868.975147643,8116.21922182769,26324.5862412391)
(-152143.111354201,4563.72595381135,35065.0447606111)
(-175183.899008736,-1256.15518670012,41785.3974197051)
(-210719.767773101,-9594.44639445266,40798.8072486657)
(-261855.77076571,-17922.6787288048,14832.0298192594)
(-325356.383033001,-17945.3353333934,-81476.6101248101)
(-376241.698865236,-11026.1458871924,-325849.042733203)
(-327049.479390728,-4668.03149172371,-768666.920390184)
(0,0,0)
(0,0,0)
(0,0,0)
(0,0,0)
(0,0,0)
(0,0,0)
(-130190.775771376,22238.6973101074,7716.46332908048)
(-133725.233991587,20649.981130308,15387.6042523352)
(-141436.196331791,16900.8282086026,22769.4641157708)
(-154950.460290003,9705.83790158215,29256.2020775194)
(-176939.266770047,-3214.9663944971,33481.1328130281)
(-211418.090371505,-24779.1797991939,32429.8685788009)
(-262207.803930031,-52108.8619547373,14743.9101927066)
(-323794.462416939,-51465.4048260169,-74581.8538584133)
(-373733.555378096,-27499.7491409646,-319526.823159418)
(-325507.685244078,-10448.0217853426,-764003.063531845)
(0,0,0)
(0,0,0)
(0,0,0)
(0,0,0)
(0,0,0)
(0,0,0)
(-139439.765700496,34045.6503927791,6093.26462279433)
(-142580.120697893,31952.9594739919,11639.2433259608)
(-149393.390818624,26957.2689213186,15617.7918568795)
(-161323.996391767,16728.424911391,16364.3616663843)
(-181124.046627863,-4213.79149644688,11967.9196138053)
(-214167.029781652,-48712.1501099059,5112.01221786021)
(-270082.823462054,-134224.419311689,15371.8067862743)
(-323824.84776651,-132649.977008636,-50605.8285599002)
(-367635.565305137,-53817.8752925561,-302456.350864168)
(-321748.798242273,-16805.772707482,-753511.516222021)
(0,0,0)
(0,0,0)
(0,0,0)
(0,0,0)
(0,0,0)
(0,0,0)
(-155393.34959286,45369.5866196732,3992.52686426095)
(-157935.417920611,43253.0685110442,6598.42927955791)
(-163404.938046153,38186.1732074887,5393.50883648234)
(-172795.443754189,27537.1243193792,-4592.35018474986)
(-188327.338724989,3408.874863419,-32530.1815334909)
(-218985.333265715,-65000.7334392177,-80364.0889146623)
(-330118.183271907,-330081.995382095,17050.4338724066)
(-347560.97281507,-347157.569204591,28321.6022779536)
(-353506.151180878,-79225.0815201959,-265349.502945589)
(-314191.294916593,-17848.8534925762,-736633.505998205)
(0,0,0)
(0,0,0)
(0,0,0)
(0,0,0)
(0,0,0)
(0,0,0)
(-180645.354996324,52899.2510791045,1861.34718289643)
(-182486.611549796,51265.6441280549,1493.10073321534)
(-186288.173941824,47554.9123375911,-5238.45718012969)
(-191815.864534907,40589.7301983383,-28747.9790574934)
(-195763.025876365,28039.3925283565,-100969.391024008)
(-176343.346615042,7355.06358405984,-345441.72276724)
(-6.9384362142281e-05,-1.83554611225827e-05,4.4961219348278e-05)