/*--------------------------------*- C++ -*----------------------------------*\
| =========                 |                                                 |
| \\      /  F ield         | foam-extend: Open Source Cstd::filesystem::create_directory();FD                    |
|  \\    /   O peration     | Version:     4.0                                |
|   \\  /    A nd           | Web:         http://www.foam-extend.org         |
|    \\/     M anipulation  |                                                 |
\*---------------------------------------------------------------------------*/
FoamFile
{
    version 2.0;
    format ascii;
    class volVectorField;
    location "Data/3497";
    object      H;
}
// * * * * * * * * * * * * * * * * * * * * * * * * * * * * * * * * * * * * * //

dimensions      [0 1 -1 0 0 0 0];

internalField   nonuniform List<vector>
4096
(
(0,0,0)
(0,0,0)
(0,0,0)
(0,0,0)
(0,0,0)
(0,0,0)
(0,0,0)
(0,0,0)
(0,0,0)
(0,0,0)
(0,0,0)
(0,0,0)
(0,0,0)
(0,0,0)
(0,0,0)
(0,0,0)
(0,0,0)
(0,0,0)
(0,0,0)
(0,0,0)
(0,0,0)
(0,0,0)
(0,0,0)
(0,0,0)
(0,0,0)
(0,0,0)
(0,0,0)
(0,0,0)
(0,0,0)
(0,0,0)
(0,0,0)
(0,0,0)
(0,0,0)
(0,0,0)
(0,0,0)
(0,0,0)
(0,0,0)
(0,0,0)
(0,0,0)
(0,0,0)
(0,0,0)
(0,0,0)
(0,0,0)
(0,0,0)
(0,0,0)
(0,0,0)
(0,0,0)
(0,0,0)
(0,0,0)
(0,0,0)
(0,0,0)
(0,0,0)
(0,0,0)
(0,0,0)
(0,0,0)
(0,0,0)
(0,0,0)
(0,0,0)
(0,0,0)
(0,0,0)
(0,0,0)
(0,0,0)
(0,0,0)
(0,0,0)
(0,0,0)
(0,0,0)
(0,0,0)
(0,0,0)
(0,0,0)
(0,0,0)
(0,0,0)
(0,0,0)
(0,0,0)
(0,0,0)
(0,0,0)
(0,0,0)
(0,0,0)
(0,0,0)
(0,0,0)
(0,0,0)
(0,0,0)
(0,0,0)
(0,0,0)
(0,0,0)
(0,0,0)
(0,0,0)
(0,0,0)
(0,0,0)
(0,0,0)
(0,0,0)
(0,0,0)
(0,0,0)
(0,0,0)
(0,0,0)
(0,0,0)
(0,0,0)
(0,0,0)
(0,0,0)
(0,0,0)
(0,0,0)
(0,0,0)
(0,0,0)
(0,0,0)
(0,0,0)
(0,0,0)
(0,0,0)
(0,0,0)
(0,0,0)
(0,0,0)
(0,0,0)
(0,0,0)
(0,0,0)
(0,0,0)
(0,0,0)
(0,0,0)
(0,0,0)
(0,0,0)
(0,0,0)
(0,0,0)
(0,0,0)
(0,0,0)
(0,0,0)
(0,0,0)
(0,0,0)
(0,0,0)
(0,0,0)
(0,0,0)
(0,0,0)
(0,0,0)
(0,0,0)
(0,0,0)
(0,0,0)
(0,0,0)
(0,0,0)
(0,0,0)
(0,0,0)
(0,0,0)
(0,0,0)
(0,0,0)
(0,0,0)
(0,0,0)
(0,0,0)
(0,0,0)
(0,0,0)
(0,0,0)
(0,0,0)
(0,0,0)
(0,0,0)
(0,0,0)
(0,0,0)
(0,0,0)
(0,0,0)
(0,0,0)
(0,0,0)
(0,0,0)
(0,0,0)
(0,0,0)
(0,0,0)
(0,0,0)
(0,0,0)
(0,0,0)
(0,0,0)
(0,0,0)
(0,0,0)
(0,0,0)
(0,0,0)
(0,0,0)
(0,0,0)
(0,0,0)
(0,0,0)
(0,0,0)
(0,0,0)
(0,0,0)
(0,0,0)
(0,0,0)
(0,0,0)
(0,0,0)
(0,0,0)
(0,0,0)
(0,0,0)
(0,0,0)
(0,0,0)
(0,0,0)
(0,0,0)
(0,0,0)
(0,0,0)
(0,0,0)
(0,0,0)
(0,0,0)
(0,0,0)
(0,0,0)
(0,0,0)
(0,0,0)
(0,0,0)
(0,0,0)
(0,0,0)
(0,0,0)
(0,0,0)
(0,0,0)
(0,0,0)
(0,0,0)
(0,0,0)
(0,0,0)
(0,0,0)
(0,0,0)
(0,0,0)
(0,0,0)
(0,0,0)
(0,0,0)
(0,0,0)
(0,0,0)
(0,0,0)
(0,0,0)
(0,0,0)
(0,0,0)
(0,0,0)
(0,0,0)
(0,0,0)
(0,0,0)
(0,0,0)
(0,0,0)
(0,0,0)
(0,0,0)
(0,0,0)
(0,0,0)
(0,0,0)
(0,0,0)
(0,0,0)
(0,0,0)
(0,0,0)
(0,0,0)
(0,0,0)
(0,0,0)
(0,0,0)
(0,0,0)
(0,0,0)
(0,0,0)
(0,0,0)
(0,0,0)
(0,0,0)
(0,0,0)
(0,0,0)
(0,0,0)
(0,0,0)
(0,0,0)
(0,0,0)
(0,0,0)
(0,0,0)
(0,0,0)
(0,0,0)
(0,0,0)
(0,0,0)
(0,0,0)
(0,0,0)
(0,0,0)
(0,0,0)
(0,0,0)
(0,0,0)
(0,0,0)
(0,0,0)
(0,0,0)
(0,0,0)
(0,0,0)
(0,0,0)
(0,0,0)
(0,0,0)
(0,0,0)
(0,0,0)
(0,0,0)
(0,0,0)
(0,0,0)
(0,0,0)
(0,0,0)
(0,0,0)
(0,0,0)
(0,0,0)
(0,0,0)
(0,0,0)
(0,0,0)
(0,0,0)
(0,0,0)
(0,0,0)
(0,0,0)
(0,0,0)
(0,0,0)
(0,0,0)
(0,0,0)
(0,0,0)
(0,0,0)
(0,0,0)
(0,0,0)
(0,0,0)
(0,0,0)
(0,0,0)
(0,0,0)
(0,0,0)
(0,0,0)
(0,0,0)
(0,0,0)
(0,0,0)
(0,0,0)
(0,0,0)
(0,0,0)
(0,0,0)
(0,0,0)
(0,0,0)
(0,0,0)
(0,0,0)
(0,0,0)
(0,0,0)
(0,0,0)
(0,0,0)
(0,0,0)
(0,0,0)
(0,0,0)
(0,0,0)
(0,0,0)
(0,0,0)
(0,0,0)
(0,0,0)
(0,0,0)
(0,0,0)
(0,0,0)
(0,0,0)
(0,0,0)
(0,0,0)
(0,0,0)
(0,0,0)
(0,0,0)
(0,0,0)
(0,0,0)
(0,0,0)
(0,0,0)
(0,0,0)
(0,0,0)
(0,0,0)
(0,0,0)
(0,0,0)
(0,0,0)
(0,0,0)
(0,0,0)
(0,0,0)
(0,0,0)
(0,0,0)
(0,0,0)
(0,0,0)
(0,0,0)
(0,0,0)
(0,0,0)
(0,0,0)
(0,0,0)
(0,0,0)
(0,0,0)
(0,0,0)
(0,0,0)
(0,0,0)
(0,0,0)
(0,0,0)
(0,0,0)
(0,0,0)
(0,0,0)
(0,0,0)
(0,0,0)
(0,0,0)
(0,0,0)
(0,0,0)
(0,0,0)
(0,0,0)
(0,0,0)
(0,0,0)
(0,0,0)
(0,0,0)
(0,0,0)
(0,0,0)
(0,0,0)
(0,0,0)
(0,0,0)
(0,0,0)
(0,0,0)
(0,0,0)
(0,0,0)
(0,0,0)
(0,0,0)
(0,0,0)
(0,0,0)
(0,0,0)
(0,0,0)
(0,0,0)
(0,0,0)
(0,0,0)
(0,0,0)
(0,0,0)
(0,0,0)
(0,0,0)
(0,0,0)
(0,0,0)
(0,0,0)
(0,0,0)
(0,0,0)
(0,0,0)
(0,0,0)
(0,0,0)
(0,0,0)
(0,0,0)
(0,0,0)
(0,0,0)
(0,0,0)
(0,0,0)
(0,0,0)
(0,0,0)
(0,0,0)
(0,0,0)
(0,0,0)
(0,0,0)
(0,0,0)
(0,0,0)
(0,0,0)
(0,0,0)
(0,0,0)
(0,0,0)
(0,0,0)
(0,0,0)
(0,0,0)
(0,0,0)
(0,0,0)
(0,0,0)
(0,0,0)
(0,0,0)
(0,0,0)
(0,0,0)
(0,0,0)
(0,0,0)
(0,0,0)
(0,0,0)
(0,0,0)
(0,0,0)
(0,0,0)
(0,0,0)
(0,0,0)
(0,0,0)
(0,0,0)
(0,0,0)
(0,0,0)
(0,0,0)
(0,0,0)
(0,0,0)
(0,0,0)
(0,0,0)
(0,0,0)
(0,0,0)
(0,0,0)
(0,0,0)
(0,0,0)
(0,0,0)
(0,0,0)
(0,0,0)
(0,0,0)
(0,0,0)
(0,0,0)
(0,0,0)
(0,0,0)
(0,0,0)
(0,0,0)
(0,0,0)
(0,0,0)
(0,0,0)
(0,0,0)
(0,0,0)
(0,0,0)
(0,0,0)
(0,0,0)
(0,0,0)
(0,0,0)
(0,0,0)
(0,0,0)
(0,0,0)
(0,0,0)
(0,0,0)
(0,0,0)
(0,0,0)
(0,0,0)
(0,0,0)
(0,0,0)
(0,0,0)
(0,0,0)
(0,0,0)
(0,0,0)
(0,0,0)
(0,0,0)
(0,0,0)
(0,0,0)
(0,0,0)
(0,0,0)
(0,0,0)
(0,0,0)
(0,0,0)
(0,0,0)
(0,0,0)
(0,0,0)
(0,0,0)
(0,0,0)
(0,0,0)
(0,0,0)
(0,0,0)
(0,0,0)
(0,0,0)
(0,0,0)
(0,0,0)
(0,0,0)
(0,0,0)
(0,0,0)
(0,0,0)
(0,0,0)
(0,0,0)
(0,0,0)
(0,0,0)
(0,0,0)
(0,0,0)
(0,0,0)
(0,0,0)
(0,0,0)
(0,0,0)
(0,0,0)
(0,0,0)
(0,0,0)
(0,0,0)
(0,0,0)
(0,0,0)
(0,0,0)
(0,0,0)
(0,0,0)
(0,0,0)
(0,0,0)
(0,0,0)
(0,0,0)
(0,0,0)
(0,0,0)
(0,0,0)
(0,0,0)
(0,0,0)
(0,0,0)
(0,0,0)
(0,0,0)
(0,0,0)
(0,0,0)
(0,0,0)
(0,0,0)
(0,0,0)
(0,0,0)
(0,0,0)
(0,0,0)
(0,0,0)
(0,0,0)
(0,0,0)
(0,0,0)
(0,0,0)
(0,0,0)
(0,0,0)
(0,0,0)
(0,0,0)
(0,0,0)
(0,0,0)
(0,0,0)
(0,0,0)
(0,0,0)
(0,0,0)
(0,0,0)
(0,0,0)
(0,0,0)
(0,0,0)
(0,0,0)
(0,0,0)
(0,0,0)
(0,0,0)
(0,0,0)
(0,0,0)
(0,0,0)
(0,0,0)
(0,0,0)
(0,0,0)
(0,0,0)
(0,0,0)
(0,0,0)
(0,0,0)
(0,0,0)
(0,0,0)
(0,0,0)
(0,0,0)
(0,0,0)
(0,0,0)
(0,0,0)
(0,0,0)
(0,0,0)
(0,0,0)
(0,0,0)
(0,0,0)
(0,0,0)
(0,0,0)
(0,0,0)
(0,0,0)
(0,0,0)
(0,0,0)
(0,0,0)
(0,0,0)
(0,0,0)
(0,0,0)
(0,0,0)
(0,0,0)
(0,0,0)
(0,0,0)
(0,0,0)
(0,0,0)
(0,0,0)
(0,0,0)
(0,0,0)
(0,0,0)
(0,0,0)
(0,0,0)
(0,0,0)
(0,0,0)
(0,0,0)
(0,0,0)
(0,0,0)
(0,0,0)
(0,0,0)
(0,0,0)
(0,0,0)
(0,0,0)
(0,0,0)
(0,0,0)
(0,0,0)
(0,0,0)
(0,0,0)
(0,0,0)
(0,0,0)
(0,0,0)
(0,0,0)
(0,0,0)
(0,0,0)
(0,0,0)
(0,0,0)
(0,0,0)
(0,0,0)
(0,0,0)
(0,0,0)
(0,0,0)
(0,0,0)
(0,0,0)
(0,0,0)
(0,0,0)
(0,0,0)
(0,0,0)
(0,0,0)
(0,0,0)
(0,0,0)
(0,0,0)
(0,0,0)
(0,0,0)
(0,0,0)
(0,0,0)
(0,0,0)
(0,0,0)
(0,0,0)
(0,0,0)
(0,0,0)
(0,0,0)
(0,0,0)
(0,0,0)
(0,0,0)
(0,0,0)
(0,0,0)
(0,0,0)
(0,0,0)
(0,0,0)
(0,0,0)
(0,0,0)
(0,0,0)
(0,0,0)
(0,0,0)
(0,0,0)
(0,0,0)
(0,0,0)
(0,0,0)
(0,0,0)
(0,0,0)
(0,0,0)
(0,0,0)
(0,0,0)
(0,0,0)
(0,0,0)
(0,0,0)
(0,0,0)
(0,0,0)
(0,0,0)
(0,0,0)
(0,0,0)
(0,0,0)
(0,0,0)
(0,0,0)
(0,0,0)
(0,0,0)
(0,0,0)
(0,0,0)
(0,0,0)
(0,0,0)
(0,0,0)
(0,0,0)
(0,0,0)
(0,0,0)
(0,0,0)
(0,0,0)
(0,0,0)
(0,0,0)
(0,0,0)
(0,0,0)
(0,0,0)
(0,0,0)
(0,0,0)
(0,0,0)
(0,0,0)
(0,0,0)
(0,0,0)
(0,0,0)
(0,0,0)
(0,0,0)
(0,0,0)
(0,0,0)
(0,0,0)
(0,0,0)
(0,0,0)
(0,0,0)
(0,0,0)
(0,0,0)
(0,0,0)
(0,0,0)
(0,0,0)
(0,0,0)
(0,0,0)
(0,0,0)
(0,0,0)
(0,0,0)
(0,0,0)
(0,0,0)
(0,0,0)
(0,0,0)
(0,0,0)
(0,0,0)
(0,0,0)
(0,0,0)
(0,0,0)
(0,0,0)
(0,0,0)
(0,0,0)
(0,0,0)
(0,0,0)
(0,0,0)
(0,0,0)
(0,0,0)
(0,0,0)
(0,0,0)
(0,0,0)
(0,0,0)
(0,0,0)
(0,0,0)
(0,0,0)
(0,0,0)
(0,0,0)
(0,0,0)
(0,0,0)
(0,0,0)
(0,0,0)
(0,0,0)
(0,0,0)
(0,0,0)
(0,0,0)
(0,0,0)
(0,0,0)
(0,0,0)
(0,0,0)
(0,0,0)
(0,0,0)
(0,0,0)
(0,0,0)
(0,0,0)
(0,0,0)
(0,0,0)
(0,0,0)
(0,0,0)
(0,0,0)
(0,0,0)
(0,0,0)
(0,0,0)
(0,0,0)
(0,0,0)
(0,0,0)
(0,0,0)
(0,0,0)
(0,0,0)
(0,0,0)
(0,0,0)
(0,0,0)
(0,0,0)
(0,0,0)
(0,0,0)
(0,0,0)
(0,0,0)
(0,0,0)
(0,0,0)
(0,0,0)
(0,0,0)
(0,0,0)
(0,0,0)
(0,0,0)
(0,0,0)
(0,0,0)
(0,0,0)
(0,0,0)
(0,0,0)
(0,0,0)
(1.23807094171476e-12,1.06054484146777e-11,-1.14725197101012e-11)
(1.53299158384968e-12,2.20918130812233e-11,-1.07914822800068e-11)
(1.75459084830953e-12,3.70339783467593e-11,-9.6733338084026e-12)
(2.13105528138823e-12,5.85299663014729e-11,-7.94142549411179e-12)
(2.09018485571951e-12,9.06416878265319e-11,-5.90519507558627e-12)
(6.50731882365584e-13,1.40684126281471e-10,-3.79834261249118e-12)
(-2.50994199319346e-12,2.22623018080986e-10,-1.91728544675269e-12)
(-6.90780187906925e-12,3.60089638599763e-10,-6.11482782327844e-13)
(-1.03374128930737e-11,5.88006210898372e-10,-2.16374198017553e-13)
(-1.20641158871263e-11,9.05479249332133e-10,-8.92113928053181e-14)
(0,0,0)
(0,0,0)
(0,0,0)
(0,0,0)
(0,0,0)
(0,0,0)
(2.2167845111924e-12,9.89754215227033e-12,-2.38355942015799e-11)
(3.40719901222148e-12,2.04146812395922e-11,-2.2534558188889e-11)
(4.22896351889037e-12,3.45061539262719e-11,-2.08463330447138e-11)
(4.06142447826878e-12,5.56608621073972e-11,-1.80999972579359e-11)
(3.05338267524422e-12,8.813205444963e-11,-1.42756248839383e-11)
(-1.22207505555125e-13,1.38717363925961e-10,-9.8531162252636e-12)
(-5.78805359890698e-12,2.21365824584228e-10,-5.87820298743536e-12)
(-1.2918796021083e-11,3.59725880063884e-10,-3.0434142682778e-12)
(-1.81685902314822e-11,5.87993747066506e-10,-1.74648949138466e-12)
(-2.11255770492975e-11,9.05735428655761e-10,-9.994915489463e-13)
(0,0,0)
(0,0,0)
(0,0,0)
(0,0,0)
(0,0,0)
(0,0,0)
(3.23990372401133e-12,8.89631911450445e-12,-3.9068194566491e-11)
(5.21905973326484e-12,1.83831825198673e-11,-3.76913077659611e-11)
(7.16518594740422e-12,3.12296046376945e-11,-3.5725328101741e-11)
(6.8378651441105e-12,5.11281314843111e-11,-3.21781782656206e-11)
(4.34157619232997e-12,8.3222676463139e-11,-2.73306090775227e-11)
(-6.60550623086154e-13,1.34495825695721e-10,-2.12791136585485e-11)
(-7.86228152775161e-12,2.18553501536895e-10,-1.50643190231378e-11)
(-1.65080035100966e-11,3.58933555269521e-10,-1.03598420155172e-11)
(-2.32766579251522e-11,5.8810198638215e-10,-6.92096169953548e-12)
(-2.70603690415524e-11,9.05629526787753e-10,-3.56883924484734e-12)
(0,0,0)
(0,0,0)
(0,0,0)
(0,0,0)
(0,0,0)
(0,0,0)
(3.29909301579767e-12,7.52680689573413e-12,-6.1319160515644e-11)
(6.27415527490774e-12,1.56614113264496e-11,-5.98014370869442e-11)
(8.29912460759381e-12,2.69864893445845e-11,-5.70620551334242e-11)
(7.88286256687314e-12,4.5430862852951e-11,-5.27445309844435e-11)
(5.20088024217597e-12,7.60770427027337e-11,-4.72297880292553e-11)
(-7.10920143227853e-13,1.27444960901873e-10,-4.0411465598801e-11)
(-9.20601727823393e-12,2.13689872158956e-10,-3.2626677473268e-11)
(-1.80135919382985e-11,3.56496584185888e-10,-2.52007881556656e-11)
(-2.42256580848233e-11,5.86019765648343e-10,-1.7543680109562e-11)
(-2.75056100344245e-11,9.03014135387683e-10,-8.91164857118484e-12)
(0,0,0)
(0,0,0)
(0,0,0)
(0,0,0)
(0,0,0)
(0,0,0)
(2.7231533497281e-12,6.11694956363986e-12,-9.31966304147588e-11)
(5.96587882889949e-12,1.27713400137625e-11,-9.19216250727358e-11)
(7.22437734369376e-12,2.24012447540411e-11,-8.90559678211379e-11)
(6.48561064486094e-12,3.9002124483724e-11,-8.47543331769951e-11)
(3.06370099232491e-12,6.72232736683945e-11,-7.95945398177836e-11)
(-2.70712513625461e-12,1.17413298431392e-10,-7.34108678461309e-11)
(-1.12614656485584e-11,2.0542866254152e-10,-6.49728674964721e-11)
(-1.88541260488809e-11,3.50331402322433e-10,-5.20701328083488e-11)
(-2.3624143767608e-11,5.7941770065875e-10,-3.66452873984518e-11)
(-2.59096185056935e-11,8.95460495099178e-10,-1.89051669948725e-11)
(0,0,0)
(0,0,0)
(0,0,0)
(0,0,0)
(0,0,0)
(0,0,0)
(2.33552223785568e-12,4.82410150523422e-12,-1.41826374149975e-10)
(5.28110798746964e-12,9.71749951952636e-12,-1.40531609036764e-10)
(6.29389425737441e-12,1.7531955447715e-11,-1.38013923795385e-10)
(4.79051393009208e-12,3.19913433882473e-11,-1.34273050580943e-10)
(8.97907176846871e-13,5.74089607639375e-11,-1.29630727372626e-10)
(-4.97387046873744e-12,1.05515105530307e-10,-1.23244620654135e-10)
(-1.22315401694378e-11,1.94210835103365e-10,-1.12844294177244e-10)
(-1.74749703291419e-11,3.3776722650288e-10,-9.46757982647532e-11)
(-2.03925996493516e-11,5.64247611343144e-10,-6.89815878804046e-11)
(-2.19070489658976e-11,8.78243642606376e-10,-3.67011564764766e-11)
(0,0,0)
(0,0,0)
(0,0,0)
(0,0,0)
(0,0,0)
(0,0,0)
(2.60517111812015e-12,3.19320397382601e-12,-2.19617649882451e-10)
(5.15213514411975e-12,6.87667839962729e-12,-2.18963488329114e-10)
(5.47451610430985e-12,1.30262112400269e-11,-2.17186310699666e-10)
(3.1332114229308e-12,2.48618991186952e-11,-2.14122194700711e-10)
(-8.93910303084962e-13,4.73190144918559e-11,-2.10266566409417e-10)
(-6.62746952729602e-12,9.2087758158183e-11,-2.03170449316963e-10)
(-1.22868554392392e-11,1.77343079452274e-10,-1.88519568112475e-10)
(-1.62195741630113e-11,3.14371769823436e-10,-1.63360550412969e-10)
(-1.71318601136338e-11,5.34220058588106e-10,-1.22573806916897e-10)
(-1.73943414087708e-11,8.43665913239849e-10,-6.6827565610296e-11)
(0,0,0)
(0,0,0)
(0,0,0)
(0,0,0)
(0,0,0)
(0,0,0)
(3.46284184277081e-12,2.18946548314285e-12,-3.53288786189786e-10)
(5.45609388278787e-12,4.96768597338631e-12,-3.53057056240011e-10)
(5.25727701338883e-12,9.4879063911101e-12,-3.51752487757416e-10)
(2.89552872109367e-12,1.92349697230812e-11,-3.49098947354034e-10)
(-1.15476405288053e-12,3.90367697390219e-11,-3.4499430641847e-10)
(-6.26232314025169e-12,7.89709659407218e-11,-3.35927952314819e-10)
(-1.19470942366017e-11,1.52903725837818e-10,-3.15990445177033e-10)
(-1.67199869917952e-11,2.74531657571717e-10,-2.78122881843248e-10)
(-1.72751323238076e-11,4.79916716271497e-10,-2.15652281438147e-10)
(-1.69779431268923e-11,7.7863414963806e-10,-1.22235262713046e-10)
(0,0,0)
(0,0,0)
(0,0,0)
(0,0,0)
(0,0,0)
(0,0,0)
(4.3010374037506e-12,1.40749272378903e-12,-5.78337988861348e-10)
(6.8502226717313e-12,3.37995470303098e-12,-5.78100662776592e-10)
(7.14583911260516e-12,6.33649890632474e-12,-5.76985623395624e-10)
(4.71825380715731e-12,1.35807535014543e-11,-5.74208624451874e-10)
(3.69219222683292e-13,2.87857243620581e-11,-5.68729108043033e-10)
(-5.15656964737333e-12,5.90591238241418e-11,-5.56429418628535e-10)
(-1.12604006685374e-11,1.14784710007498e-10,-5.30222031944716e-10)
(-1.54153539336925e-11,2.11706897032567e-10,-4.79285157066505e-10)
(-1.55735131595885e-11,3.8683225855195e-10,-3.88186869559469e-10)
(-1.65264425895377e-11,6.57197727017185e-10,-2.33175550161655e-10)
(0,0,0)
(0,0,0)
(0,0,0)
(0,0,0)
(0,0,0)
(0,0,0)
(6.16953695185381e-12,7.72011340949877e-13,-8.95117656706929e-10)
(8.60321123754663e-12,2.00909399761587e-12,-8.94532275192184e-10)
(8.16294318827941e-12,3.43458313065104e-12,-8.92739346898895e-10)
(4.44370726249782e-12,7.30289478262839e-12,-8.89304848432588e-10)
(-3.16737052438387e-13,1.57876038477163e-11,-8.83110297961567e-10)
(-5.36230675343655e-12,3.22324429320039e-11,-8.68482204139155e-10)
(-1.10317564134235e-11,6.29391290541325e-11,-8.3739760673857e-10)
(-1.39764105861539e-11,1.19817684736367e-10,-7.75823188321312e-10)
(-1.43314041688946e-11,2.31989664193318e-10,-6.56687188452527e-10)
(-1.58296165309127e-11,4.2434220898988e-10,-4.24367093991699e-10)
(0,0,0)
(0,0,0)
(0,0,0)
(0,0,0)
(0,0,0)
(0,0,0)
(0,0,0)
(0,0,0)
(0,0,0)
(0,0,0)
(0,0,0)
(0,0,0)
(0,0,0)
(0,0,0)
(0,0,0)
(0,0,0)
(0,0,0)
(0,0,0)
(0,0,0)
(0,0,0)
(0,0,0)
(0,0,0)
(0,0,0)
(0,0,0)
(0,0,0)
(0,0,0)
(0,0,0)
(0,0,0)
(0,0,0)
(0,0,0)
(0,0,0)
(0,0,0)
(0,0,0)
(0,0,0)
(0,0,0)
(0,0,0)
(0,0,0)
(0,0,0)
(0,0,0)
(0,0,0)
(0,0,0)
(0,0,0)
(0,0,0)
(0,0,0)
(0,0,0)
(0,0,0)
(0,0,0)
(0,0,0)
(0,0,0)
(0,0,0)
(0,0,0)
(0,0,0)
(0,0,0)
(0,0,0)
(0,0,0)
(0,0,0)
(0,0,0)
(0,0,0)
(0,0,0)
(0,0,0)
(0,0,0)
(0,0,0)
(0,0,0)
(0,0,0)
(0,0,0)
(0,0,0)
(0,0,0)
(0,0,0)
(0,0,0)
(0,0,0)
(0,0,0)
(0,0,0)
(0,0,0)
(0,0,0)
(0,0,0)
(0,0,0)
(0,0,0)
(0,0,0)
(0,0,0)
(0,0,0)
(0,0,0)
(0,0,0)
(0,0,0)
(0,0,0)
(0,0,0)
(0,0,0)
(0,0,0)
(0,0,0)
(0,0,0)
(0,0,0)
(0,0,0)
(0,0,0)
(0,0,0)
(0,0,0)
(0,0,0)
(0,0,0)
(0,0,0)
(0,0,0)
(0,0,0)
(0,0,0)
(0,0,0)
(0,0,0)
(1.26493977402676e-12,2.0153119474108e-11,-2.09750161929906e-11)
(2.09197495387599e-12,4.17127706049367e-11,-1.98489188218293e-11)
(2.55050695451208e-12,6.85106897406352e-11,-1.7664478290355e-11)
(2.96392905691686e-12,1.05547809001143e-10,-1.41254214908875e-11)
(2.49296576948153e-12,1.61874830842778e-10,-1.00973982861302e-11)
(7.36437072181585e-13,2.4938152931964e-10,-5.67757433362818e-12)
(-2.55855116077951e-12,3.89678493755975e-10,-1.6442507835792e-12)
(-6.93915192761291e-12,6.28342889381613e-10,3.93817316062749e-13)
(-1.04521118668926e-11,1.08332956309808e-09,9.09770718357878e-13)
(-1.2409506603915e-11,2.12551745096353e-09,3.81373325269105e-13)
(0,0,0)
(0,0,0)
(0,0,0)
(0,0,0)
(0,0,0)
(0,0,0)
(1.91697153626659e-12,1.87013393668585e-11,-4.31360399947639e-11)
(3.75047258778347e-12,3.87578985708098e-11,-4.1133334381598e-11)
(4.75917702067272e-12,6.4263733421913e-11,-3.76371298694571e-11)
(4.76978272736811e-12,1.00956763792899e-10,-3.16998697484971e-11)
(3.54025200305394e-12,1.5735366374297e-10,-2.3823565652262e-11)
(1.2441748683247e-13,2.45758627636668e-10,-1.44689402009104e-11)
(-5.81051927084646e-12,3.88239452325328e-10,-5.96231057087824e-12)
(-1.34233960032257e-11,6.28854475743667e-10,-1.55767490577081e-12)
(-1.90238274891648e-11,1.08485124915407e-09,-2.59030221734907e-13)
(-2.20191667302673e-11,2.12686606615395e-09,-5.14778784888151e-13)
(0,0,0)
(0,0,0)
(0,0,0)
(0,0,0)
(0,0,0)
(0,0,0)
(3.23252914225322e-12,1.63996647177435e-11,-7.19233630511122e-11)
(5.97485126246591e-12,3.44291747208075e-11,-6.96213854583365e-11)
(7.86115140441806e-12,5.75166409901822e-11,-6.50514198610105e-11)
(7.68756458736855e-12,9.21091587359332e-11,-5.69980558018824e-11)
(5.43571453372846e-12,1.47362004924586e-10,-4.58564626236553e-11)
(1.7551953534782e-13,2.37125658495497e-10,-3.19161816450346e-11)
(-7.70312915737154e-12,3.84217049704312e-10,-1.82648093752314e-11)
(-1.75099127426841e-11,6.29514734548435e-10,-1.14711015216655e-11)
(-2.45465596461615e-11,1.08733561107026e-09,-7.80821130590351e-12)
(-2.80138168864677e-11,2.12850388878562e-09,-4.3308859675391e-12)
(0,0,0)
(0,0,0)
(0,0,0)
(0,0,0)
(0,0,0)
(0,0,0)
(3.19122691919243e-12,1.36561191946957e-11,-1.12477972935247e-10)
(6.42484463407277e-12,2.90387700613099e-11,-1.09913133102625e-10)
(8.56684504915076e-12,4.87315784838374e-11,-1.04182144654044e-10)
(8.79685798091069e-12,7.98332224396029e-11,-9.49503736156223e-11)
(7.23632684605811e-12,1.31723961043541e-10,-8.21617993153135e-11)
(1.53595420172994e-12,2.21306517912534e-10,-6.5821430659956e-11)
(-8.37069697840948e-12,3.755556300288e-10,-4.82938061593074e-11)
(-1.95055181208763e-11,6.28464967221724e-10,-3.73679884498427e-11)
(-2.62556246330056e-11,1.08734553572927e-09,-2.71269709978189e-11)
(-2.88636183160946e-11,2.12733072472906e-09,-1.42581735085037e-11)
(0,0,0)
(0,0,0)
(0,0,0)
(0,0,0)
(0,0,0)
(0,0,0)
(2.74099606610968e-12,1.05493330595115e-11,-1.6824937973144e-10)
(6.15406207153595e-12,2.29321090088106e-11,-1.65976752820181e-10)
(7.79203200587325e-12,3.90237909063006e-11,-1.60461967597705e-10)
(8.33659838112262e-12,6.55251552480536e-11,-1.52055648272229e-10)
(6.69434192513965e-12,1.1160731676608e-10,-1.41052696377167e-10)
(7.53067415107521e-13,1.96822493828576e-10,-1.28397173150663e-10)
(-1.29463728984481e-11,3.56213259288997e-10,-1.1685636384624e-10)
(-2.17147956390877e-11,6.21358876749815e-10,-9.17965404008022e-11)
(-2.61941748557758e-11,1.0795484420325e-09,-6.47443971610622e-11)
(-2.75979330081979e-11,2.11742971690003e-09,-3.35761229620537e-11)
(0,0,0)
(0,0,0)
(0,0,0)
(0,0,0)
(0,0,0)
(0,0,0)
(2.67165465605369e-12,7.61648135797776e-12,-2.51567769543324e-10)
(5.60424386598665e-12,1.6664659492192e-11,-2.4942158303893e-10)
(7.0587652506157e-12,2.92423630046944e-11,-2.45029337413468e-10)
(7.27763499133339e-12,5.09626603395961e-11,-2.38236170151651e-10)
(4.60174673044387e-12,9.07199916724495e-11,-2.29929275142773e-10)
(-1.94684957353255e-12,1.71801763532915e-10,-2.19631914708089e-10)
(-1.3532280430846e-11,3.38314332256836e-10,-2.05652018022981e-10)
(-1.97737240340827e-11,6.01951594524658e-10,-1.72096468079713e-10)
(-2.26454782984946e-11,1.05426252747897e-09,-1.24330846858854e-10)
(-2.40304760753417e-11,2.08786280025618e-09,-6.55698379665801e-11)
(0,0,0)
(0,0,0)
(0,0,0)
(0,0,0)
(0,0,0)
(0,0,0)
(2.95474805546536e-12,4.97973077426528e-12,-3.8337308210144e-10)
(5.28394994091442e-12,1.14390314410461e-11,-3.81893950881454e-10)
(5.94870495427539e-12,2.06262660197753e-11,-3.78997753245531e-10)
(4.9045125272447e-12,3.78302256431459e-11,-3.74822344023382e-10)
(2.92217357326037e-13,7.13361049031203e-11,-3.70409956561863e-10)
(-8.16155851430923e-12,1.44617267135379e-10,-3.62169693765722e-10)
(-1.30065195242882e-11,3.09759968674682e-10,-3.36105723942209e-10)
(-1.71662054075451e-11,5.61361658776947e-10,-2.95657628230645e-10)
(-1.85747591035935e-11,1.000982652641e-09,-2.19055716820506e-10)
(-1.91901434165863e-11,2.02625846655285e-09,-1.18202895369711e-10)
(0,0,0)
(0,0,0)
(0,0,0)
(0,0,0)
(0,0,0)
(0,0,0)
(4.01308465234915e-12,3.03259520235632e-12,-6.14228348883584e-10)
(5.73925667055033e-12,7.69470023049406e-12,-6.13252694376139e-10)
(5.75514409479557e-12,1.46889605018985e-11,-6.11397808056797e-10)
(4.44510400715056e-12,2.96254883893282e-11,-6.08689787739898e-10)
(2.99272204121959e-14,6.0942002312179e-11,-6.04316143384685e-10)
(-6.2879881614244e-12,1.29677376840337e-10,-5.93784849225704e-10)
(-1.16956417400059e-11,2.69193864297357e-10,-5.63857477970978e-10)
(-1.63658268578971e-11,4.87422195130005e-10,-4.96149403348565e-10)
(-1.76076933292465e-11,9.03853088272918e-10,-3.8299848709797e-10)
(-1.7776783219702e-11,1.91177500830173e-09,-2.17794932673114e-10)
(0,0,0)
(0,0,0)
(0,0,0)
(0,0,0)
(0,0,0)
(0,0,0)
(4.69919270183386e-12,1.66166228833124e-12,-1.06494901877507e-09)
(7.10604399617839e-12,4.83875064093701e-12,-1.06414340598105e-09)
(7.27075594453268e-12,1.00583889271334e-11,-1.06255150274052e-09)
(5.51659611714949e-12,2.17228584869769e-11,-1.05912246102328e-09)
(1.06765032253819e-12,4.68859230419541e-11,-1.05127790214858e-09)
(-4.53727543906652e-12,9.99230207660762e-11,-1.0332986162834e-09)
(-1.03516945933752e-11,2.00418334413198e-10,-9.9066658214171e-10)
(-1.46244291445305e-11,3.74255584347552e-10,-9.01575572518328e-10)
(-1.57422381988213e-11,7.40232638415918e-10,-7.41688213666414e-10)
(-1.68464747240646e-11,1.69608415609895e-09,-4.63357977697699e-10)
(0,0,0)
(0,0,0)
(0,0,0)
(0,0,0)
(0,0,0)
(0,0,0)
(6.35616677805887e-12,3.79184687735163e-13,-2.10421387053859e-09)
(8.81937694187358e-12,2.20313870843703e-12,-2.10344715345055e-09)
(8.16302785262032e-12,5.38209648703378e-12,-2.10146257962311e-09)
(5.55205157410421e-12,1.19496412821307e-11,-2.09671282482823e-09)
(8.42772972857724e-13,2.60374073279269e-11,-2.08641914880727e-09)
(-4.2144612220306e-12,5.4831885846464e-11,-2.06305126299066e-09)
(-9.66704577657833e-12,1.09135355317108e-10,-2.01101431011347e-09)
(-1.32947257185429e-11,2.13033519473128e-10,-1.90487153774452e-09)
(-1.46618344364064e-11,4.62074259540272e-10,-1.69395190499963e-09)
(-1.585450153262e-11,1.23303367942815e-09,-1.2324264912293e-09)
(0,0,0)
(0,0,0)
(0,0,0)
(0,0,0)
(0,0,0)
(0,0,0)
(0,0,0)
(0,0,0)
(0,0,0)
(0,0,0)
(0,0,0)
(0,0,0)
(0,0,0)
(0,0,0)
(0,0,0)
(0,0,0)
(0,0,0)
(0,0,0)
(0,0,0)
(0,0,0)
(0,0,0)
(0,0,0)
(0,0,0)
(0,0,0)
(0,0,0)
(0,0,0)
(0,0,0)
(0,0,0)
(0,0,0)
(0,0,0)
(0,0,0)
(0,0,0)
(0,0,0)
(0,0,0)
(0,0,0)
(0,0,0)
(0,0,0)
(0,0,0)
(0,0,0)
(0,0,0)
(0,0,0)
(0,0,0)
(0,0,0)
(0,0,0)
(0,0,0)
(0,0,0)
(0,0,0)
(0,0,0)
(0,0,0)
(0,0,0)
(0,0,0)
(0,0,0)
(0,0,0)
(0,0,0)
(0,0,0)
(0,0,0)
(0,0,0)
(0,0,0)
(0,0,0)
(0,0,0)
(0,0,0)
(0,0,0)
(0,0,0)
(0,0,0)
(0,0,0)
(0,0,0)
(0,0,0)
(0,0,0)
(0,0,0)
(0,0,0)
(0,0,0)
(0,0,0)
(0,0,0)
(0,0,0)
(0,0,0)
(0,0,0)
(0,0,0)
(0,0,0)
(0,0,0)
(0,0,0)
(0,0,0)
(0,0,0)
(0,0,0)
(0,0,0)
(0,0,0)
(0,0,0)
(0,0,0)
(0,0,0)
(0,0,0)
(0,0,0)
(0,0,0)
(0,0,0)
(0,0,0)
(0,0,0)
(0,0,0)
(0,0,0)
(0,0,0)
(0,0,0)
(0,0,0)
(0,0,0)
(0,0,0)
(0,0,0)
(1.59062250976526e-12,2.64836473659773e-11,-2.881187883784e-11)
(2.86240645645504e-12,5.51011441700854e-11,-2.70548450397618e-11)
(3.25840647470571e-12,9.00817239010139e-11,-2.34888260046083e-11)
(3.52695106003339e-12,1.36166760747158e-10,-1.80057289236598e-11)
(2.59430891642383e-12,2.05163448850962e-10,-1.1707143429878e-11)
(3.26015205886077e-13,3.082000551511e-10,-4.4110806986368e-12)
(-3.15757783064062e-12,4.592848831056e-10,2.3180213734084e-12)
(-7.96669169227696e-12,6.79071195877151e-10,4.74514368715242e-12)
(-1.14454005294711e-11,9.90865391866243e-10,4.26060516363156e-12)
(-1.33767484697424e-11,1.37081708727119e-09,2.06408149338143e-12)
(0,0,0)
(0,0,0)
(0,0,0)
(0,0,0)
(0,0,0)
(0,0,0)
(2.215940572325e-12,2.46716255102208e-11,-5.9422649469963e-11)
(4.58299192544368e-12,5.12777226195936e-11,-5.64991885051201e-11)
(5.56900933009868e-12,8.45269102341255e-11,-5.07375172283442e-11)
(5.74108368846128e-12,1.30117465135534e-10,-4.12275635345028e-11)
(4.17728537053544e-12,1.98233221516158e-10,-2.78455190164489e-11)
(2.50756997717941e-13,3.02366966679168e-10,-1.10128034931527e-11)
(-6.19275231551197e-12,4.58474197561374e-10,4.73605925452296e-12)
(-1.53822994915422e-11,6.81709266247503e-10,9.01729901976392e-12)
(-2.12524408414121e-11,9.9465705647988e-10,6.91485487219425e-12)
(-2.41717681467059e-11,1.3739791953894e-09,2.89973853461876e-12)
(0,0,0)
(0,0,0)
(0,0,0)
(0,0,0)
(0,0,0)
(0,0,0)
(3.67409707093081e-12,2.17652637706477e-11,-9.74705409845589e-11)
(6.79529032560536e-12,4.51072906330961e-11,-9.38479898131711e-11)
(8.59284985212356e-12,7.46782493223601e-11,-8.64718773675618e-11)
(8.82190770535596e-12,1.16843229191351e-10,-7.34861118662203e-11)
(7.13347743568071e-12,1.81930796501132e-10,-5.32756196969582e-11)
(2.34328784856056e-12,2.87899659181601e-10,-2.54011335721377e-11)
(-5.83541733535209e-12,4.56406342839007e-10,4.44426479105284e-12)
(-2.01230356316525e-11,6.88045241501103e-10,7.51414014785721e-12)
(-2.80338096428796e-11,1.0020599797265e-09,2.54897074211859e-12)
(-3.11715387978382e-11,1.3792667709763e-09,-2.66475449796176e-13)
(0,0,0)
(0,0,0)
(0,0,0)
(0,0,0)
(0,0,0)
(0,0,0)
(3.73317322103752e-12,1.79937387321698e-11,-1.48059200589527e-10)
(6.80051723890971e-12,3.72152989101541e-11,-1.4416045476503e-10)
(9.04286158780672e-12,6.13583854361577e-11,-1.35851557771597e-10)
(1.03163508708137e-11,9.69560646812843e-11,-1.21422025180803e-10)
(1.10126024683167e-11,1.54667714768362e-10,-9.8013477790382e-11)
(8.49235378594692e-12,2.58138162791403e-10,-6.26940195590618e-11)
(4.58560522669076e-14,4.50487318490631e-10,-1.62208580767965e-11)
(-2.26404451015046e-11,7.00228304864007e-10,-1.60657154389544e-11)
(-3.13273284242931e-11,1.01117155346763e-09,-1.85119484182257e-11)
(-3.32207839972149e-11,1.38365061508583e-09,-1.21770175472233e-11)
(0,0,0)
(0,0,0)
(0,0,0)
(0,0,0)
(0,0,0)
(0,0,0)
(3.401220855883e-12,1.33550212458951e-11,-2.16412067473664e-10)
(6.90672636657728e-12,2.78701915846615e-11,-2.12706787768409e-10)
(9.16714058060112e-12,4.60344073389246e-11,-2.04894044537132e-10)
(1.18961413945177e-11,7.29327730471202e-11,-1.92269757965023e-10)
(1.49261437942195e-11,1.16987926676047e-10,-1.73296444002748e-10)
(1.42329884054201e-11,2.00887843726464e-10,-1.5131947303713e-10)
(-2.0107269313183e-11,3.99757963706093e-10,-1.61142727427855e-10)
(-2.93596566540983e-11,7.1313829744816e-10,-1.06579904440867e-10)
(-3.20765344993591e-11,1.0146782392596e-09,-7.32693422133352e-11)
(-3.16071393266001e-11,1.37841643581524e-09,-3.85354474798996e-11)
(0,0,0)
(0,0,0)
(0,0,0)
(0,0,0)
(0,0,0)
(0,0,0)
(3.16221873544545e-12,9.11811012086375e-12,-3.11322636208927e-10)
(6.43762629152137e-12,1.89749439184017e-11,-3.08443311739594e-10)
(8.8816949739851e-12,3.13421166861681e-11,-3.02754722334252e-10)
(1.21031746791702e-11,4.95708712552644e-11,-2.9361035295997e-10)
(1.36882730647655e-11,8.10094935586619e-11,-2.81745067963189e-10)
(1.12577501387925e-11,1.56569291333645e-10,-2.68762713055451e-10)
(-1.85334667909725e-11,3.9819752704051e-10,-2.7595317996445e-10)
(-2.6949409508158e-11,7.01804162532131e-10,-2.19032235856411e-10)
(-2.81266123520287e-11,9.90771580476949e-10,-1.52504398573996e-10)
(-2.79959803391113e-11,1.34636626186947e-09,-7.8471742499756e-11)
(0,0,0)
(0,0,0)
(0,0,0)
(0,0,0)
(0,0,0)
(0,0,0)
(3.42275240923876e-12,6.03575002014393e-12,-4.48765712144793e-10)
(6.13208351330095e-12,1.22198576042443e-11,-4.46765065186793e-10)
(7.71060125043301e-12,1.92701344342454e-11,-4.43685923319147e-10)
(8.696862319562e-12,3.0182780010805e-11,-4.40764780459573e-10)
(2.44605715229843e-12,4.77801092898779e-11,-4.42153273952239e-10)
(-1.92856380423596e-11,9.55260918224711e-11,-4.50307358273929e-10)
(-1.2888510858705e-11,3.69754999659205e-10,-3.98542372052064e-10)
(-1.98286531721444e-11,6.55742159252231e-10,-3.83447082194554e-10)
(-2.22980161854349e-11,9.26616623694603e-10,-2.66361381706774e-10)
(-2.2909580535532e-11,1.27311694140685e-09,-1.36935230379911e-10)
(0,0,0)
(0,0,0)
(0,0,0)
(0,0,0)
(0,0,0)
(0,0,0)
(4.40836306011786e-12,3.61809006515834e-12,-6.55568170496366e-10)
(6.740319940926e-12,7.84646983243957e-12,-6.54222977402514e-10)
(7.67769535207189e-12,1.31668277787473e-11,-6.52564364560633e-10)
(7.9740895547289e-12,2.43462342940388e-11,-6.52279948621597e-10)
(3.55471233161545e-12,4.99324839655637e-11,-6.55362983723165e-10)
(-6.46100334229599e-12,1.23494206801265e-10,-6.62022854169014e-10)
(-1.0628186478223e-11,3.35429795598264e-10,-6.50387783031736e-10)
(-1.63501323268899e-11,5.42487589859235e-10,-5.55211366358782e-10)
(-1.91907978971339e-11,8.01598540443851e-10,-4.05471533815824e-10)
(-1.9880863689061e-11,1.13935351641729e-09,-2.18832134596913e-10)
(0,0,0)
(0,0,0)
(0,0,0)
(0,0,0)
(0,0,0)
(0,0,0)
(5.17605750755213e-12,1.83516890926264e-12,-9.60798081849296e-10)
(8.14975268768107e-12,4.63103122688305e-12,-9.59697403966548e-10)
(8.5180066686174e-12,9.5525054226379e-12,-9.5809130343906e-10)
(7.44525444678352e-12,2.05802805420677e-11,-9.56304346788618e-10)
(3.93688017217582e-12,4.62860368583326e-11,-9.52907020073654e-10)
(-2.07817466134573e-12,1.08449224274263e-10,-9.42330011970387e-10)
(-8.15972512013938e-12,2.36291615936071e-10,-9.03485590157673e-10)
(-1.32897231236927e-11,3.92877037405965e-10,-7.95237779056509e-10)
(-1.5914095290716e-11,6.15973811671016e-10,-6.16438716247846e-10)
(-1.71539757513762e-11,9.215301165659e-10,-3.54098283357458e-10)
(0,0,0)
(0,0,0)
(0,0,0)
(0,0,0)
(0,0,0)
(0,0,0)
(5.96863437655265e-12,4.08083782449382e-13,-1.3369815688108e-09)
(9.03794182305783e-12,1.95251811334284e-12,-1.33611977050492e-09)
(8.79536954481037e-12,5.38902926621194e-12,-1.33425403089242e-09)
(7.20801683546017e-12,1.23440495311879e-11,-1.33045063402851e-09)
(3.5122944843805e-12,2.77699282308914e-11,-1.32186359130266e-09)
(-1.41952825358361e-12,6.16644269657302e-11,-1.30001851902419e-09)
(-6.67446282757916e-12,1.23705490748429e-10,-1.24496124460426e-09)