/*--------------------------------*- C++ -*----------------------------------*\
| =========                 |                                                 |
| \\      /  F ield         | foam-extend: Open Source Cstd::filesystem::create_directory();FD                    |
|  \\    /   O peration     | Version:     4.0                                |
|   \\  /    A nd           | Web:         http://www.foam-extend.org         |
|    \\/     M anipulation  |                                                 |
\*---------------------------------------------------------------------------*/
FoamFile
{
    version 2.0;
    format ascii;
    class volVectorField;
    location "Data/1478";
    object      H;
}
// * * * * * * * * * * * * * * * * * * * * * * * * * * * * * * * * * * * * * //

dimensions      [0 1 -1 0 0 0 0];

internalField   nonuniform List<vector>
4096
(
(0,0,0)
(0,0,0)
(0,0,0)
(0,0,0)
(0,0,0)
(0,0,0)
(0,0,0)
(0,0,0)
(0,0,0)
(0,0,0)
(0,0,0)
(0,0,0)
(0,0,0)
(0,0,0)
(0,0,0)
(0,0,0)
(0,0,0)
(0,0,0)
(0,0,0)
(0,0,0)
(0,0,0)
(0,0,0)
(0,0,0)
(0,0,0)
(0,0,0)
(0,0,0)
(0,0,0)
(0,0,0)
(0,0,0)
(0,0,0)
(0,0,0)
(0,0,0)
(0,0,0)
(0,0,0)
(0,0,0)
(0,0,0)
(0,0,0)
(0,0,0)
(0,0,0)
(0,0,0)
(0,0,0)
(0,0,0)
(0,0,0)
(0,0,0)
(0,0,0)
(0,0,0)
(0,0,0)
(0,0,0)
(0,0,0)
(0,0,0)
(0,0,0)
(0,0,0)
(0,0,0)
(0,0,0)
(0,0,0)
(0,0,0)
(0,0,0)
(0,0,0)
(0,0,0)
(0,0,0)
(0,0,0)
(0,0,0)
(0,0,0)
(0,0,0)
(0,0,0)
(0,0,0)
(0,0,0)
(0,0,0)
(0,0,0)
(0,0,0)
(0,0,0)
(0,0,0)
(0,0,0)
(0,0,0)
(0,0,0)
(0,0,0)
(0,0,0)
(0,0,0)
(0,0,0)
(0,0,0)
(0,0,0)
(0,0,0)
(0,0,0)
(0,0,0)
(0,0,0)
(0,0,0)
(0,0,0)
(0,0,0)
(0,0,0)
(0,0,0)
(0,0,0)
(0,0,0)
(0,0,0)
(0,0,0)
(0,0,0)
(0,0,0)
(0,0,0)
(0,0,0)
(0,0,0)
(0,0,0)
(0,0,0)
(0,0,0)
(0,0,0)
(0,0,0)
(0,0,0)
(0,0,0)
(0,0,0)
(0,0,0)
(0,0,0)
(0,0,0)
(0,0,0)
(0,0,0)
(0,0,0)
(0,0,0)
(0,0,0)
(0,0,0)
(0,0,0)
(0,0,0)
(0,0,0)
(0,0,0)
(0,0,0)
(0,0,0)
(0,0,0)
(0,0,0)
(0,0,0)
(0,0,0)
(0,0,0)
(0,0,0)
(0,0,0)
(0,0,0)
(0,0,0)
(0,0,0)
(0,0,0)
(0,0,0)
(0,0,0)
(0,0,0)
(0,0,0)
(0,0,0)
(0,0,0)
(0,0,0)
(0,0,0)
(0,0,0)
(0,0,0)
(0,0,0)
(0,0,0)
(0,0,0)
(0,0,0)
(0,0,0)
(0,0,0)
(0,0,0)
(0,0,0)
(0,0,0)
(0,0,0)
(0,0,0)
(0,0,0)
(0,0,0)
(0,0,0)
(0,0,0)
(0,0,0)
(0,0,0)
(0,0,0)
(0,0,0)
(0,0,0)
(0,0,0)
(0,0,0)
(0,0,0)
(0,0,0)
(0,0,0)
(0,0,0)
(0,0,0)
(0,0,0)
(0,0,0)
(0,0,0)
(0,0,0)
(0,0,0)
(0,0,0)
(0,0,0)
(0,0,0)
(0,0,0)
(0,0,0)
(0,0,0)
(0,0,0)
(0,0,0)
(0,0,0)
(0,0,0)
(0,0,0)
(0,0,0)
(0,0,0)
(0,0,0)
(0,0,0)
(0,0,0)
(0,0,0)
(0,0,0)
(0,0,0)
(0,0,0)
(0,0,0)
(0,0,0)
(0,0,0)
(0,0,0)
(0,0,0)
(0,0,0)
(0,0,0)
(0,0,0)
(0,0,0)
(0,0,0)
(0,0,0)
(0,0,0)
(0,0,0)
(0,0,0)
(0,0,0)
(0,0,0)
(0,0,0)
(0,0,0)
(0,0,0)
(0,0,0)
(0,0,0)
(0,0,0)
(0,0,0)
(0,0,0)
(0,0,0)
(0,0,0)
(0,0,0)
(0,0,0)
(0,0,0)
(0,0,0)
(0,0,0)
(0,0,0)
(0,0,0)
(0,0,0)
(0,0,0)
(0,0,0)
(0,0,0)
(0,0,0)
(0,0,0)
(0,0,0)
(0,0,0)
(0,0,0)
(0,0,0)
(0,0,0)
(0,0,0)
(0,0,0)
(0,0,0)
(0,0,0)
(0,0,0)
(0,0,0)
(0,0,0)
(0,0,0)
(0,0,0)
(0,0,0)
(0,0,0)
(0,0,0)
(0,0,0)
(0,0,0)
(0,0,0)
(0,0,0)
(0,0,0)
(0,0,0)
(0,0,0)
(0,0,0)
(0,0,0)
(0,0,0)
(0,0,0)
(0,0,0)
(0,0,0)
(0,0,0)
(0,0,0)
(0,0,0)
(0,0,0)
(0,0,0)
(0,0,0)
(0,0,0)
(0,0,0)
(0,0,0)
(0,0,0)
(0,0,0)
(0,0,0)
(0,0,0)
(0,0,0)
(0,0,0)
(0,0,0)
(0,0,0)
(0,0,0)
(0,0,0)
(0,0,0)
(0,0,0)
(0,0,0)
(0,0,0)
(0,0,0)
(0,0,0)
(0,0,0)
(0,0,0)
(0,0,0)
(0,0,0)
(0,0,0)
(0,0,0)
(0,0,0)
(0,0,0)
(0,0,0)
(0,0,0)
(0,0,0)
(0,0,0)
(0,0,0)
(0,0,0)
(0,0,0)
(0,0,0)
(0,0,0)
(0,0,0)
(0,0,0)
(0,0,0)
(0,0,0)
(0,0,0)
(0,0,0)
(0,0,0)
(0,0,0)
(0,0,0)
(0,0,0)
(0,0,0)
(0,0,0)
(0,0,0)
(0,0,0)
(0,0,0)
(0,0,0)
(0,0,0)
(0,0,0)
(0,0,0)
(0,0,0)
(0,0,0)
(0,0,0)
(0,0,0)
(0,0,0)
(0,0,0)
(0,0,0)
(0,0,0)
(0,0,0)
(0,0,0)
(0,0,0)
(0,0,0)
(0,0,0)
(0,0,0)
(0,0,0)
(0,0,0)
(0,0,0)
(0,0,0)
(0,0,0)
(0,0,0)
(0,0,0)
(0,0,0)
(0,0,0)
(0,0,0)
(0,0,0)
(0,0,0)
(0,0,0)
(0,0,0)
(0,0,0)
(0,0,0)
(0,0,0)
(0,0,0)
(0,0,0)
(0,0,0)
(0,0,0)
(0,0,0)
(0,0,0)
(0,0,0)
(0,0,0)
(0,0,0)
(0,0,0)
(0,0,0)
(0,0,0)
(0,0,0)
(0,0,0)
(0,0,0)
(0,0,0)
(0,0,0)
(0,0,0)
(0,0,0)
(0,0,0)
(0,0,0)
(0,0,0)
(0,0,0)
(0,0,0)
(0,0,0)
(0,0,0)
(0,0,0)
(0,0,0)
(0,0,0)
(0,0,0)
(0,0,0)
(0,0,0)
(0,0,0)
(0,0,0)
(0,0,0)
(0,0,0)
(0,0,0)
(0,0,0)
(0,0,0)
(0,0,0)
(0,0,0)
(0,0,0)
(0,0,0)
(0,0,0)
(0,0,0)
(0,0,0)
(0,0,0)
(0,0,0)
(0,0,0)
(0,0,0)
(0,0,0)
(0,0,0)
(0,0,0)
(0,0,0)
(0,0,0)
(0,0,0)
(0,0,0)
(0,0,0)
(0,0,0)
(0,0,0)
(0,0,0)
(0,0,0)
(0,0,0)
(0,0,0)
(0,0,0)
(0,0,0)
(0,0,0)
(0,0,0)
(0,0,0)
(0,0,0)
(0,0,0)
(0,0,0)
(0,0,0)
(0,0,0)
(0,0,0)
(0,0,0)
(0,0,0)
(0,0,0)
(0,0,0)
(0,0,0)
(0,0,0)
(0,0,0)
(0,0,0)
(0,0,0)
(0,0,0)
(0,0,0)
(0,0,0)
(0,0,0)
(0,0,0)
(0,0,0)
(0,0,0)
(0,0,0)
(0,0,0)
(0,0,0)
(0,0,0)
(0,0,0)
(0,0,0)
(0,0,0)
(0,0,0)
(0,0,0)
(0,0,0)
(0,0,0)
(0,0,0)
(0,0,0)
(0,0,0)
(0,0,0)
(0,0,0)
(0,0,0)
(0,0,0)
(0,0,0)
(0,0,0)
(0,0,0)
(0,0,0)
(0,0,0)
(0,0,0)
(0,0,0)
(0,0,0)
(0,0,0)
(0,0,0)
(0,0,0)
(0,0,0)
(0,0,0)
(0,0,0)
(0,0,0)
(0,0,0)
(0,0,0)
(0,0,0)
(0,0,0)
(0,0,0)
(0,0,0)
(0,0,0)
(0,0,0)
(0,0,0)
(0,0,0)
(0,0,0)
(0,0,0)
(0,0,0)
(0,0,0)
(0,0,0)
(0,0,0)
(0,0,0)
(0,0,0)
(0,0,0)
(0,0,0)
(0,0,0)
(0,0,0)
(0,0,0)
(0,0,0)
(0,0,0)
(0,0,0)
(0,0,0)
(0,0,0)
(0,0,0)
(0,0,0)
(0,0,0)
(0,0,0)
(0,0,0)
(0,0,0)
(0,0,0)
(0,0,0)
(0,0,0)
(0,0,0)
(0,0,0)
(0,0,0)
(0,0,0)
(0,0,0)
(0,0,0)
(0,0,0)
(0,0,0)
(0,0,0)
(0,0,0)
(0,0,0)
(0,0,0)
(0,0,0)
(0,0,0)
(0,0,0)
(0,0,0)
(0,0,0)
(0,0,0)
(0,0,0)
(0,0,0)
(0,0,0)
(0,0,0)
(0,0,0)
(0,0,0)
(0,0,0)
(0,0,0)
(0,0,0)
(0,0,0)
(0,0,0)
(0,0,0)
(0,0,0)
(0,0,0)
(0,0,0)
(0,0,0)
(0,0,0)
(0,0,0)
(0,0,0)
(0,0,0)
(0,0,0)
(0,0,0)
(0,0,0)
(0,0,0)
(0,0,0)
(0,0,0)
(0,0,0)
(0,0,0)
(0,0,0)
(0,0,0)
(0,0,0)
(0,0,0)
(0,0,0)
(0,0,0)
(0,0,0)
(0,0,0)
(0,0,0)
(0,0,0)
(0,0,0)
(0,0,0)
(0,0,0)
(0,0,0)
(0,0,0)
(0,0,0)
(0,0,0)
(0,0,0)
(0,0,0)
(0,0,0)
(0,0,0)
(0,0,0)
(0,0,0)
(0,0,0)
(0,0,0)
(0,0,0)
(0,0,0)
(0,0,0)
(0,0,0)
(0,0,0)
(0,0,0)
(0,0,0)
(0,0,0)
(0,0,0)
(0,0,0)
(0,0,0)
(0,0,0)
(0,0,0)
(0,0,0)
(0,0,0)
(0,0,0)
(0,0,0)
(0,0,0)
(0,0,0)
(0,0,0)
(0,0,0)
(0,0,0)
(0,0,0)
(0,0,0)
(0,0,0)
(0,0,0)
(0,0,0)
(0,0,0)
(0,0,0)
(0,0,0)
(0,0,0)
(0,0,0)
(0,0,0)
(0,0,0)
(0,0,0)
(0,0,0)
(0,0,0)
(0,0,0)
(0,0,0)
(0,0,0)
(0,0,0)
(0,0,0)
(0,0,0)
(0,0,0)
(0,0,0)
(0,0,0)
(0,0,0)
(0,0,0)
(0,0,0)
(0,0,0)
(0,0,0)
(0,0,0)
(0,0,0)
(0,0,0)
(0,0,0)
(0,0,0)
(0,0,0)
(0,0,0)
(0,0,0)
(0,0,0)
(0,0,0)
(0,0,0)
(0,0,0)
(0,0,0)
(0,0,0)
(0,0,0)
(0,0,0)
(0,0,0)
(0,0,0)
(0,0,0)
(0,0,0)
(0,0,0)
(0,0,0)
(0,0,0)
(0,0,0)
(0,0,0)
(0,0,0)
(0,0,0)
(0,0,0)
(0,0,0)
(0,0,0)
(0,0,0)
(0,0,0)
(0,0,0)
(0,0,0)
(0,0,0)
(0,0,0)
(0,0,0)
(0,0,0)
(0,0,0)
(0,0,0)
(0,0,0)
(0,0,0)
(0,0,0)
(0,0,0)
(0,0,0)
(0,0,0)
(0,0,0)
(0,0,0)
(0,0,0)
(0,0,0)
(0,0,0)
(0,0,0)
(0,0,0)
(0,0,0)
(0,0,0)
(0,0,0)
(0,0,0)
(0,0,0)
(0,0,0)
(0,0,0)
(0,0,0)
(0,0,0)
(0,0,0)
(0,0,0)
(0,0,0)
(0,0,0)
(0,0,0)
(0,0,0)
(0,0,0)
(0,0,0)
(0,0,0)
(0,0,0)
(0,0,0)
(0,0,0)
(0,0,0)
(0,0,0)
(0,0,0)
(0,0,0)
(0,0,0)
(0,0,0)
(0,0,0)
(0,0,0)
(0,0,0)
(0,0,0)
(0,0,0)
(0,0,0)
(0,0,0)
(0,0,0)
(0,0,0)
(0,0,0)
(0,0,0)
(0,0,0)
(0,0,0)
(0,0,0)
(0,0,0)
(0,0,0)
(0,0,0)
(0,0,0)
(0,0,0)
(0,0,0)
(0,0,0)
(0,0,0)
(0,0,0)
(0,0,0)
(0,0,0)
(0,0,0)
(0,0,0)
(0,0,0)
(0,0,0)
(0,0,0)
(0,0,0)
(0,0,0)
(0,0,0)
(0,0,0)
(0,0,0)
(0,0,0)
(0,0,0)
(0,0,0)
(0,0,0)
(0,0,0)
(0,0,0)
(0,0,0)
(0,0,0)
(0,0,0)
(0,0,0)
(0,0,0)
(0,0,0)
(0,0,0)
(0,0,0)
(0,0,0)
(0,0,0)
(0,0,0)
(0,0,0)
(0,0,0)
(0,0,0)
(0,0,0)
(0,0,0)
(0,0,0)
(0,0,0)
(0,0,0)
(0,0,0)
(0,0,0)
(0,0,0)
(0,0,0)
(0,0,0)
(0,0,0)
(0,0,0)
(0,0,0)
(0,0,0)
(0,0,0)
(0,0,0)
(0,0,0)
(0,0,0)
(0,0,0)
(0,0,0)
(0,0,0)
(0,0,0)
(0,0,0)
(0,0,0)
(0,0,0)
(0,0,0)
(0,0,0)
(0,0,0)
(0,0,0)
(0,0,0)
(0,0,0)
(0,0,0)
(0,0,0)
(0,0,0)
(0,0,0)
(0,0,0)
(0,0,0)
(0,0,0)
(0,0,0)
(0,0,0)
(0,0,0)
(0,0,0)
(0,0,0)
(0,0,0)
(0,0,0)
(-1.31721990429061e-12,5.97797895422509e-12,-3.89848365599131e-12)
(-2.09796702770544e-12,1.26026258204295e-11,-3.88189681157821e-12)
(-2.25035951802663e-12,2.02191003783273e-11,-3.45039936348578e-12)
(-1.40919754641304e-12,3.20949918408486e-11,-2.986750403278e-12)
(-1.29911198158604e-12,5.2361569954605e-11,-2.59143205064136e-12)
(-3.84796011212603e-13,8.37206179129821e-11,-2.01672358380583e-12)
(-2.88275251902781e-13,1.36077952545838e-10,-1.55691828238523e-12)
(-1.38119606475702e-13,2.22589234495483e-10,-8.83852437784001e-13)
(-2.68729625885353e-14,3.66202442282223e-10,-4.99369677435698e-13)
(-1.44775049452795e-13,5.64228311963833e-10,5.12097706750466e-14)
(0,0,0)
(0,0,0)
(0,0,0)
(0,0,0)
(0,0,0)
(0,0,0)
(-1.74058766986948e-12,5.55188500753322e-12,-8.96449921282098e-12)
(-2.23348075964093e-12,1.13551849684059e-11,-9.02783636076863e-12)
(-2.56617137082667e-12,1.89234939342791e-11,-8.40501496699085e-12)
(-2.18334467640103e-12,3.10390238198238e-11,-7.73293448574462e-12)
(-1.98345873950078e-12,5.13396902272026e-11,-6.89908452761729e-12)
(-9.76457907898777e-13,8.32169156053836e-11,-5.5150437849488e-12)
(-1.07891186860267e-12,1.35680965903776e-10,-3.94079067299026e-12)
(-2.16566603776128e-12,2.22791567187502e-10,-2.88065018500197e-12)
(-2.499075520305e-12,3.66557641960589e-10,-2.31886398384253e-12)
(-2.13471483837452e-12,5.65136083416363e-10,-1.15296509218517e-12)
(0,0,0)
(0,0,0)
(0,0,0)
(0,0,0)
(0,0,0)
(0,0,0)
(-1.05581835067587e-12,4.99775931878218e-12,-1.80851948124761e-11)
(-5.23505481237844e-13,9.9103382845224e-12,-1.78023601443775e-11)
(-1.37965510445308e-12,1.73109865400623e-11,-1.68529497506555e-11)
(-2.05032324669317e-12,2.95950792384594e-11,-1.58408270311287e-11)
(-1.84832966768285e-12,4.98881003818295e-11,-1.43853078306484e-11)
(-1.21939766312891e-12,8.22040881673305e-11,-1.18391189875428e-11)
(-1.40084514132291e-12,1.35281421122249e-10,-9.0344283882094e-12)
(-2.73180588314661e-12,2.23050052429094e-10,-7.14135315690183e-12)
(-3.35318451661071e-12,3.66542057886579e-10,-5.47025781559185e-12)
(-3.42667302528836e-12,5.65086983080795e-10,-2.9220779619336e-12)
(0,0,0)
(0,0,0)
(0,0,0)
(0,0,0)
(0,0,0)
(0,0,0)
(4.61762772268351e-13,4.23243913827668e-12,-3.29185735695982e-11)
(2.53581602715977e-12,8.63697688811411e-12,-3.26441621479596e-11)
(2.24145468708726e-12,1.53291572427023e-11,-3.16661119337163e-11)
(1.20951412639274e-12,2.69421678935879e-11,-3.01991889857292e-11)
(1.04057813344154e-12,4.65393466297692e-11,-2.78431378481798e-11)
(6.214080582389e-13,7.92289070667938e-11,-2.42132557361319e-11)
(-2.33821856074384e-13,1.33366528159209e-10,-2.0046413072624e-11)
(-2.55712421721659e-12,2.22241581049555e-10,-1.61802069709597e-11)
(-4.26789102503028e-12,3.65525436289256e-10,-1.17253798426628e-11)
(-4.9625631448778e-12,5.63360720175801e-10,-6.11313235066876e-12)
(0,0,0)
(0,0,0)
(0,0,0)
(0,0,0)
(0,0,0)
(0,0,0)
(2.48045362433515e-12,3.5258479915417e-12,-5.4609818379987e-11)
(5.52087547740951e-12,7.59498169093496e-12,-5.40296845455653e-11)
(5.76107660246858e-12,1.2997169519785e-11,-5.27162989548862e-11)
(5.70732338323905e-12,2.28195576366478e-11,-5.10165853671217e-11)
(5.56450331241571e-12,4.09103521848758e-11,-4.88586841636493e-11)
(3.66899516389096e-12,7.34277256728932e-11,-4.55421882477859e-11)
(1.18695594577224e-12,1.28800322646663e-10,-4.08929170187634e-11)
(-1.85904149944004e-12,2.19043960365211e-10,-3.34121931980299e-11)
(-3.70675672788413e-12,3.62001998881125e-10,-2.37712376540858e-11)
(-4.29727407421517e-12,5.59185498834862e-10,-1.22589935137424e-11)
(0,0,0)
(0,0,0)
(0,0,0)
(0,0,0)
(0,0,0)
(0,0,0)
(3.34522199799645e-12,2.9393403454345e-12,-8.54346480841084e-11)
(6.6908383741969e-12,6.35137188859436e-12,-8.52266886888268e-11)
(7.80878431468608e-12,1.06096241330483e-11,-8.42229385379931e-11)
(8.58318743111706e-12,1.91335535786087e-11,-8.3030458524673e-11)
(7.95820197993863e-12,3.53383895117826e-11,-8.11897958981101e-11)
(5.24326551615615e-12,6.66730767069392e-11,-7.79127738732033e-11)
(2.68131818293876e-12,1.22709841658875e-10,-7.17015237542513e-11)
(-1.14710176691574e-17,2.11753554677269e-10,-6.04733817823931e-11)
(-2.30013494754361e-12,3.53299952703961e-10,-4.42834450657502e-11)
(-3.69126973190767e-12,5.50077671928432e-10,-2.34168241721727e-11)
(0,0,0)
(0,0,0)
(0,0,0)
(0,0,0)
(0,0,0)
(0,0,0)
(2.9437332902631e-12,2.50758420863489e-12,-1.35441732377159e-10)
(6.78894312215648e-12,4.93760077341131e-12,-1.35359642698064e-10)
(8.95871695320576e-12,8.63428317463887e-12,-1.34754482888539e-10)
(9.63652245517806e-12,1.6045160635517e-11,-1.34200190585549e-10)
(9.01567507796852e-12,3.01455656280229e-11,-1.32650830853538e-10)
(6.21161682505511e-12,5.873499340261e-11,-1.28878586679808e-10)
(4.39009935169914e-12,1.1274954683281e-10,-1.19982119628823e-10)
(2.51416982911329e-12,1.97811604483105e-10,-1.03474679160548e-10)
(2.03441630043413e-13,3.34976722161838e-10,-7.72737971673329e-11)
(-2.28306514851964e-12,5.29368099088079e-10,-4.17915037232248e-11)
(0,0,0)
(0,0,0)
(0,0,0)
(0,0,0)
(0,0,0)
(0,0,0)
(1.77915413956888e-12,1.92118130301024e-12,-2.19020345863916e-10)
(4.44177537575519e-12,3.72307570686182e-12,-2.18914890332802e-10)
(6.446430048888e-12,7.19681677898419e-12,-2.18515270727264e-10)
(8.09862778930136e-12,1.330386002347e-11,-2.1811175169215e-10)
(9.41661027386885e-12,2.54446733548066e-11,-2.16626546333262e-10)
(7.97337704975476e-12,5.05098180065881e-11,-2.11727538874965e-10)
(6.36208089663339e-12,9.72518702780615e-11,-1.9990947906181e-10)
(4.09886394616968e-12,1.7337104205286e-10,-1.75498015988244e-10)
(1.86190373889037e-12,3.01609953683592e-10,-1.35668067948644e-10)
(-7.28722686759588e-13,4.89423640371449e-10,-7.65647872983007e-11)
(0,0,0)
(0,0,0)
(0,0,0)
(0,0,0)
(0,0,0)
(0,0,0)
(1.75425686317175e-13,1.27460702853421e-12,-3.59914140086743e-10)
(1.36540771805572e-12,2.33875840913955e-12,-3.60092399271293e-10)
(3.75351248721428e-12,5.09914169223707e-12,-3.60045221588415e-10)
(6.92281049543951e-12,9.77004363758667e-12,-3.59213148662473e-10)
(9.44500599706165e-12,1.89092370896546e-11,-3.56789372642851e-10)
(9.39336074387507e-12,3.80420868259144e-11,-3.49605864261072e-10)
(8.43080508439892e-12,7.29943197255723e-11,-3.332525498645e-10)
(6.06109103405536e-12,1.3405622053926e-10,-3.0060347948061e-10)
(3.33188498972269e-12,2.4337925665525e-10,-2.43156082722963e-10)
(-8.30203641917843e-14,4.13270080843291e-10,-1.45850413771905e-10)
(0,0,0)
(0,0,0)
(0,0,0)
(0,0,0)
(0,0,0)
(0,0,0)
(-9.88818712550851e-14,5.9771388410995e-13,-5.58356986981566e-10)
(-1.77333629717228e-13,1.06970793610708e-12,-5.58566351146326e-10)
(1.77056657022863e-12,2.62848091226012e-12,-5.587026127005e-10)
(5.64380730076328e-12,5.36093684450329e-12,-5.57896155002336e-10)
(9.04591437852588e-12,1.01763607479996e-11,-5.54687035581665e-10)
(1.04701396555981e-11,2.07021134194055e-11,-5.45964305150328e-10)
(9.91632102740758e-12,4.01433759615871e-11,-5.26211715553002e-10)
(7.8011681974887e-12,7.60946940548547e-11,-4.86512390697179e-10)
(5.54092611999854e-12,1.45719641117564e-10,-4.11084425000691e-10)
(1.66838437988058e-12,2.66369583428489e-10,-2.65537419635044e-10)
(0,0,0)
(0,0,0)
(0,0,0)
(0,0,0)
(0,0,0)
(0,0,0)
(0,0,0)
(0,0,0)
(0,0,0)
(0,0,0)
(0,0,0)
(0,0,0)
(0,0,0)
(0,0,0)
(0,0,0)
(0,0,0)
(0,0,0)
(0,0,0)
(0,0,0)
(0,0,0)
(0,0,0)
(0,0,0)
(0,0,0)
(0,0,0)
(0,0,0)
(0,0,0)
(0,0,0)
(0,0,0)
(0,0,0)
(0,0,0)
(0,0,0)
(0,0,0)
(0,0,0)
(0,0,0)
(0,0,0)
(0,0,0)
(0,0,0)
(0,0,0)
(0,0,0)
(0,0,0)
(0,0,0)
(0,0,0)
(0,0,0)
(0,0,0)
(0,0,0)
(0,0,0)
(0,0,0)
(0,0,0)
(0,0,0)
(0,0,0)
(0,0,0)
(0,0,0)
(0,0,0)
(0,0,0)
(0,0,0)
(0,0,0)
(0,0,0)
(0,0,0)
(0,0,0)
(0,0,0)
(0,0,0)
(0,0,0)
(0,0,0)
(0,0,0)
(0,0,0)
(0,0,0)
(0,0,0)
(0,0,0)
(0,0,0)
(0,0,0)
(0,0,0)
(0,0,0)
(0,0,0)
(0,0,0)
(0,0,0)
(0,0,0)
(0,0,0)
(0,0,0)
(0,0,0)
(0,0,0)
(0,0,0)
(0,0,0)
(0,0,0)
(0,0,0)
(0,0,0)
(0,0,0)
(0,0,0)
(0,0,0)
(0,0,0)
(0,0,0)
(0,0,0)
(0,0,0)
(0,0,0)
(0,0,0)
(0,0,0)
(0,0,0)
(0,0,0)
(0,0,0)
(0,0,0)
(0,0,0)
(0,0,0)
(0,0,0)
(-9.07712802006724e-13,1.08876386412675e-11,-8.44846489783503e-12)
(-1.28202362377856e-12,2.32547772273337e-11,-8.51740523512026e-12)
(-1.41840203418944e-12,3.74589522245927e-11,-7.79439292392027e-12)
(-7.48547878044325e-13,5.79069457427671e-11,-6.60212591252255e-12)
(-8.51940721045056e-13,9.30510676311434e-11,-4.78527390347478e-12)
(-3.40899004981426e-13,1.49204904872826e-10,-2.50699621723227e-12)
(-5.64354454354265e-13,2.38601748424522e-10,-8.07802688536357e-13)
(-7.24935059066445e-13,3.88668756339112e-10,2.48270175291427e-13)
(-9.32652089188936e-13,6.74955573646877e-10,6.16615293325607e-13)
(-1.00133673149482e-12,1.32723027408109e-09,5.70530480458614e-13)
(0,0,0)
(0,0,0)
(0,0,0)
(0,0,0)
(0,0,0)
(0,0,0)
(-1.12312483317043e-12,1.01456267058065e-11,-1.91749569044479e-11)
(-1.41145546953096e-12,2.13521222061699e-11,-1.90507836267101e-11)
(-1.62574445784759e-12,3.51340758705686e-11,-1.74550575462843e-11)
(-1.57325005315816e-12,5.57695199599073e-11,-1.50764568966289e-11)
(-1.91590963676593e-12,9.09204928143488e-11,-1.17112429931101e-11)
(-1.5378835818157e-12,1.48104838218173e-10,-7.43237657813045e-12)
(-1.73950757513183e-12,2.3838152596239e-10,-3.29927367150626e-12)
(-2.98593748040708e-12,3.89536929170671e-10,-1.33437571364031e-12)
(-3.64939033751876e-12,6.76107064037025e-10,-8.56719577414378e-13)
(-3.23857959501443e-12,1.32868567995249e-09,-3.69968575174558e-13)
(0,0,0)
(0,0,0)
(0,0,0)
(0,0,0)
(0,0,0)
(0,0,0)
(-5.73332838267307e-13,9.24009629046142e-12,-3.64315874155596e-11)
(-1.99554478548851e-13,1.89704002000751e-11,-3.54810095818405e-11)
(-4.09948526611361e-13,3.18316334589881e-11,-3.29998422794447e-11)
(-8.52931102299696e-13,5.18533303713353e-11,-2.94878490709249e-11)
(-1.04576475879251e-12,8.63217464718205e-11,-2.45897936993418e-11)
(-1.04890716196007e-12,1.44428348040556e-10,-1.79910316341422e-11)
(-1.37902740955562e-12,2.37637122115019e-10,-1.07156285568075e-11)
(-3.59442984492407e-12,3.91135756031204e-10,-7.2205672622077e-12)
(-4.88474277314623e-12,6.77516113727331e-10,-5.46914677208405e-12)
(-4.62248808232885e-12,1.32975424787349e-09,-2.86926738658453e-12)
(0,0,0)
(0,0,0)
(0,0,0)
(0,0,0)
(0,0,0)
(0,0,0)
(8.93942497363674e-13,7.64249147622001e-12,-6.24103448976679e-11)
(2.59976101009446e-12,1.59261173863514e-11,-6.12714908652556e-11)
(3.10651946201283e-12,2.73418907989504e-11,-5.87648406506315e-11)
(2.97607324578746e-12,4.57656931920758e-11,-5.4812931492327e-11)
(3.03969046629035e-12,7.82227867173907e-11,-4.83911800830992e-11)
(2.25574678864856e-12,1.3609810112938e-10,-3.96548123831547e-11)
(4.66177554782227e-13,2.33757542873943e-10,-2.97564290643041e-11)
(-3.81433066124517e-12,3.92002846074221e-10,-2.29871685985404e-11)
(-6.35670110855617e-12,6.78145142754405e-10,-1.68040595527489e-11)
(-6.90047415459308e-12,1.3292583653245e-09,-8.81854266235742e-12)
(0,0,0)
(0,0,0)
(0,0,0)
(0,0,0)
(0,0,0)
(0,0,0)
(2.48682743601985e-12,6.0105976647897e-12,-9.94159551446608e-11)
(5.45109968906815e-12,1.29288493640913e-11,-9.80571756118596e-11)
(6.44890840143981e-12,2.22409525824804e-11,-9.5552940881839e-11)
(7.23542623781295e-12,3.75562133464764e-11,-9.17435778201618e-11)
(7.8199700696664e-12,6.63777836631534e-11,-8.62466783629633e-11)
(5.77437290076082e-12,1.2157764353275e-10,-7.9735010665275e-11)
(-2.03286887079162e-13,2.22437564006406e-10,-7.41033883336811e-11)
(-4.20959135533498e-12,3.89124012991329e-10,-5.79739138826769e-11)
(-6.5169546910282e-12,6.74857498519098e-10,-4.02811103786918e-11)
(-7.44844068188386e-12,1.32448232517658e-09,-2.07664561574957e-11)
(0,0,0)
(0,0,0)
(0,0,0)
(0,0,0)
(0,0,0)
(0,0,0)
(3.56901873951465e-12,4.39262334502069e-12,-1.52254151034602e-10)
(7.10085933854586e-12,9.94425954120439e-12,-1.51544631933062e-10)
(8.59164525977093e-12,1.72081050913824e-11,-1.49782129118194e-10)
(9.83091774763958e-12,2.97497644248713e-11,-1.47207395483564e-10)
(9.87400383879205e-12,5.48970216863631e-11,-1.43228514796279e-10)
(6.97009870152946e-12,1.07830080603077e-10,-1.37564254281165e-10)
(1.41347103719192e-12,2.13797697517884e-10,-1.29190975828421e-10)
(-2.24799799347859e-12,3.78512017354928e-10,-1.08007316809507e-10)
(-4.84352529904084e-12,6.6090065185449e-10,-7.76257905137771e-11)
(-6.39852106341231e-12,1.30829633581585e-09,-4.07335361010105e-11)
(0,0,0)
(0,0,0)
(0,0,0)
(0,0,0)
(0,0,0)
(0,0,0)
(3.4480465167929e-12,3.34084677669051e-12,-2.3584050665886e-10)
(7.39830837918146e-12,7.49842126630228e-12,-2.35680126674731e-10)
(9.84189104587121e-12,1.32314205735486e-11,-2.34778629617782e-10)
(1.08284633352121e-11,2.30077827614941e-11,-2.33930684751016e-10)
(9.94432317746951e-12,4.40390570427593e-11,-2.32280590913989e-10)
(5.54032517011622e-12,9.15164905727182e-11,-2.27480516362651e-10)
(3.38033543818979e-12,1.96520911782231e-10,-2.10956120686591e-10)
(7.53850266072218e-13,3.53659102596522e-10,-1.85007014196323e-10)
(-1.9120833359967e-12,6.28178626432811e-10,-1.36613180297429e-10)
(-4.1301101545445e-12,1.27083887687253e-09,-7.34578579747411e-11)
(0,0,0)
(0,0,0)
(0,0,0)
(0,0,0)
(0,0,0)
(0,0,0)
(2.32027288293037e-12,2.42047015212668e-12,-3.79900136830152e-10)
(5.42647306793944e-12,5.68187352370452e-12,-3.80184530163432e-10)
(8.14058610052323e-12,1.09335933163813e-11,-3.80086711595146e-10)
(1.01472388162962e-11,1.91945050988003e-11,-3.79882598290976e-10)
(1.1053039080703e-11,3.8411200910167e-11,-3.7869261205127e-10)
(8.62304841728487e-12,8.216645683189e-11,-3.72694830774828e-10)
(6.20816837555974e-12,1.70825787691846e-10,-3.54418332531348e-10)
(3.58373742002415e-12,3.07296002028717e-10,-3.1154777219317e-10)
(9.89320117034376e-13,5.67037612765957e-10,-2.39903128204778e-10)
(-1.13995045753389e-12,1.19890859408559e-09,-1.36129616612397e-10)
(0,0,0)
(0,0,0)
(0,0,0)
(0,0,0)
(0,0,0)
(0,0,0)
(1.03057801529111e-12,1.62177207287975e-12,-6.61508534269598e-10)
(2.58728050821132e-12,3.7909636108571e-12,-6.62104086328056e-10)
(5.39210034125114e-12,8.01394630182004e-12,-6.62568158633086e-10)
(8.90814126890456e-12,1.49776040514654e-11,-6.61917346424176e-10)
(1.09943739569483e-11,3.0319330733518e-11,-6.58845997588568e-10)
(1.03800197537948e-11,6.38090386895315e-11,-6.48377188079802e-10)
(8.63267846448596e-12,1.27479990120242e-10,-6.21769367032982e-10)
(6.57522076082367e-12,2.36078624439919e-10,-5.65011612358561e-10)
(3.68583157628003e-12,4.6386446265072e-10,-4.63891897731932e-10)
(9.67063278960001e-13,1.06299354991021e-09,-2.89579629153317e-10)
(0,0,0)
(0,0,0)
(0,0,0)
(0,0,0)
(0,0,0)
(0,0,0)
(7.08196177614236e-13,9.22066227804478e-13,-1.31367269841929e-09)
(1.02863586056391e-12,1.88469954853786e-12,-1.31399822192602e-09)
(3.59258978432402e-12,4.27570808599045e-12,-1.31479504583292e-09)
(7.79562472459684e-12,8.65682359734339e-12,-1.31413972322484e-09)
(1.04995446951842e-11,1.70720529390085e-11,-1.30939577687488e-09)
(1.1419663477673e-11,3.51565497696475e-11,-1.29560377706441e-09)
(1.03603721331693e-11,6.95278249044642e-11,-1.26270530161475e-09)
(8.46789655586689e-12,1.34477371530993e-10,-1.19454625238282e-09)
(5.71356187191032e-12,2.89342277689793e-10,-1.06081031499521e-09)
(2.50054817335807e-12,7.72687163027953e-10,-7.71689461428765e-10)
(0,0,0)
(0,0,0)
(0,0,0)
(0,0,0)
(0,0,0)
(0,0,0)
(0,0,0)
(0,0,0)
(0,0,0)
(0,0,0)
(0,0,0)
(0,0,0)
(0,0,0)
(0,0,0)
(0,0,0)
(0,0,0)
(0,0,0)
(0,0,0)
(0,0,0)
(0,0,0)
(0,0,0)
(0,0,0)
(0,0,0)
(0,0,0)
(0,0,0)
(0,0,0)
(0,0,0)
(0,0,0)
(0,0,0)
(0,0,0)
(0,0,0)
(0,0,0)
(0,0,0)
(0,0,0)
(0,0,0)
(0,0,0)
(0,0,0)
(0,0,0)
(0,0,0)
(0,0,0)
(0,0,0)
(0,0,0)
(0,0,0)
(0,0,0)
(0,0,0)
(0,0,0)
(0,0,0)
(0,0,0)
(0,0,0)
(0,0,0)
(0,0,0)
(0,0,0)
(0,0,0)
(0,0,0)
(0,0,0)
(0,0,0)
(0,0,0)
(0,0,0)
(0,0,0)
(0,0,0)
(0,0,0)
(0,0,0)
(0,0,0)
(0,0,0)
(0,0,0)
(0,0,0)
(0,0,0)
(0,0,0)
(0,0,0)
(0,0,0)
(0,0,0)
(0,0,0)
(0,0,0)
(0,0,0)
(0,0,0)
(0,0,0)
(0,0,0)
(0,0,0)
(0,0,0)
(0,0,0)
(0,0,0)
(0,0,0)
(0,0,0)
(0,0,0)
(0,0,0)
(0,0,0)
(0,0,0)
(0,0,0)
(0,0,0)
(0,0,0)
(0,0,0)
(0,0,0)
(0,0,0)
(0,0,0)
(0,0,0)
(0,0,0)
(0,0,0)
(0,0,0)
(0,0,0)
(0,0,0)
(0,0,0)
(0,0,0)
(-9.67605290489554e-14,1.50013973785882e-11,-1.25242600280906e-11)
(-1.02380914679417e-13,2.99365291093781e-11,-1.20476611286946e-11)
(-2.85792690936546e-13,4.87305823362332e-11,-1.0692796910587e-11)
(-4.27974103693102e-13,7.60533271048275e-11,-8.42772847327727e-12)
(-9.99643590917836e-13,1.19473357942021e-10,-5.37147814326268e-12)
(-9.40025879233483e-13,1.85455253698092e-10,-1.59258626469443e-12)
(-1.40020485619462e-12,2.81386117943985e-10,1.54914798550958e-12)
(-1.96145300871139e-12,4.1940097865775e-10,2.53798899617685e-12)
(-2.03805766647235e-12,6.15430920894364e-10,2.28234227053818e-12)
(-1.88621212238081e-12,8.52577746409904e-10,1.24572535928493e-12)
(0,0,0)
(0,0,0)
(0,0,0)
(0,0,0)
(0,0,0)
(0,0,0)
(-3.41767695442823e-13,1.39335683148801e-11,-2.83009272706152e-11)
(-6.25459544462177e-13,2.80382236740591e-11,-2.73544746374269e-11)
(-7.01902696201791e-13,4.63043772683759e-11,-2.47411735381137e-11)
(-1.02227436775153e-12,7.3272160651133e-11,-2.03928450533064e-11)
(-1.59602970894849e-12,1.16038273012239e-10,-1.40732758285785e-11)
(-1.99449631088206e-12,1.83139529598522e-10,-5.90891090750079e-12)
(-2.96000168689367e-12,2.81711508866418e-10,2.23154670916539e-12)
(-5.06242047584088e-12,4.21520188844142e-10,4.10908832500368e-12)
(-5.5451910303346e-12,6.1793846694445e-10,2.74081604186953e-12)
(-4.67711609119784e-12,8.55154266456556e-10,1.13928808821027e-12)
(0,0,0)
(0,0,0)
(0,0,0)
(0,0,0)
(0,0,0)
(0,0,0)
(7.36941408026251e-14,1.23791961956883e-11,-5.22069674158271e-11)
(3.63561034078836e-13,2.50412223998329e-11,-5.01853661187809e-11)
(5.67800925098396e-13,4.16177585882635e-11,-4.58265579981751e-11)
(3.36650705196812e-13,6.65167675385595e-11,-3.89699721247565e-11)
(4.54432929719109e-13,1.07425622475767e-10,-2.91742420634648e-11)
(5.93667181575164e-15,1.7577776319132e-10,-1.52303320668739e-11)
(-9.94509461840714e-13,2.82079363386151e-10,1.53168683843629e-12)
(-6.21294037911374e-12,4.26493022922888e-10,3.54113347652953e-12)
(-8.11365118498357e-12,6.22511915443021e-10,7.77990165840983e-13)
(-6.99587292026626e-12,8.58819214049748e-10,-3.03181255450491e-13)
(0,0,0)
(0,0,0)
(0,0,0)
(0,0,0)
(0,0,0)
(0,0,0)
(1.386982276012e-12,9.85856419970098e-12,-8.51350420998299e-11)
(3.09037881859482e-12,2.02413695209409e-11,-8.27113015551057e-11)
(4.25554851969234e-12,3.42285086554149e-11,-7.78195132638163e-11)
(4.76380168167561e-12,5.55236187870275e-11,-6.99099484931316e-11)
(6.14832582115313e-12,9.18606426309418e-11,-5.77143939190443e-11)
(6.87782106654812e-12,1.58502542866714e-10,-3.88690135957352e-11)
(5.0168959563682e-12,2.79629282447079e-10,-1.21423345461051e-11)
(-7.11860662444933e-12,4.35289869926715e-10,-1.06801095933699e-11)
(-1.10545737631805e-11,6.2920155868304e-10,-1.13027775915883e-11)
(-1.09429766688165e-11,8.62927090541083e-10,-7.13194444784792e-12)
(0,0,0)
(0,0,0)
(0,0,0)
(0,0,0)
(0,0,0)
(0,0,0)
(2.74602222283363e-12,7.06507418213777e-12,-1.2970043186363e-10)
(5.93145478240757e-12,1.48777296982948e-11,-1.27061325343754e-10)
(7.67239283051603e-12,2.55526742758246e-11,-1.22416433408743e-10)
(9.54497570175033e-12,4.14065683117494e-11,-1.15604436474509e-10)
(1.27890643499407e-11,6.92408927362583e-11,-1.06065028961582e-10)
(1.38903134984405e-11,1.23534965130033e-10,-9.53929345147512e-11)
(-7.69289485003262e-12,2.46766615879643e-10,-1.06197038502181e-10)
(-1.12903992237274e-11,4.44488126836203e-10,-6.82197822360162e-11)
(-1.20747622459692e-11,6.33178183614644e-10,-4.55639792289123e-11)
(-1.20289074789629e-11,8.61598394364201e-10,-2.36812113709847e-11)
(0,0,0)
(0,0,0)
(0,0,0)
(0,0,0)
(0,0,0)
(0,0,0)
(3.91127620703253e-12,4.07636244636971e-12,-1.89750731667913e-10)
(7.78419479803854e-12,9.62135841079415e-12,-1.879322640348e-10)
(9.99359614244113e-12,1.72819287823812e-11,-1.84928531234821e-10)
(1.25940187249365e-11,2.80205614094669e-11,-1.81275952701658e-10)
(1.50677079664243e-11,4.84427301930343e-11,-1.76154244413179e-10)
(1.49104102795297e-11,9.84308780627924e-11,-1.69246537040399e-10)
(-2.49340224601305e-12,2.53799832740854e-10,-1.73812756471449e-10)
(-7.77660953124464e-12,4.40410722245425e-10,-1.36914814329183e-10)
(-9.01375428995286e-12,6.2031560313245e-10,-9.4598224860754e-11)
(-9.67459822143706e-12,8.43200726172619e-10,-4.86634956191289e-11)
(0,0,0)
(0,0,0)
(0,0,0)
(0,0,0)
(0,0,0)
(0,0,0)
(4.20804315773285e-12,2.21107161404471e-12,-2.77011249857938e-10)
(8.31335906445735e-12,6.1310396866926e-12,-2.76426488461616e-10)
(1.12917734359168e-11,1.15149731826828e-11,-2.75338589600159e-10)
(1.2991647161093e-11,1.73905212727142e-11,-2.75400004383925e-10)
(1.07721047592344e-11,2.83953765825333e-11,-2.78052597427812e-10)
(-1.63403676538079e-12,6.00432336147343e-11,-2.8342944070743e-10)
(3.12635303850607e-12,2.34295203190763e-10,-2.50047785286647e-10)
(-1.2768830655064e-12,4.12272207108015e-10,-2.38966972876322e-10)
(-3.92639199136178e-12,5.80934774386398e-10,-1.65690035071227e-10)
(-5.65768534258472e-12,7.97888647505346e-10,-8.51125479894447e-11)
(0,0,0)
(0,0,0)
(0,0,0)
(0,0,0)
(0,0,0)
(0,0,0)
(3.40336429600528e-12,1.48514180911997e-12,-4.06057830528837e-10)
(7.21956441204574e-12,4.32581934698049e-12,-4.06871369340598e-10)
(1.08561198104663e-11,8.91232973868011e-12,-4.07718396724566e-10)
(1.31741536248816e-11,1.48636339956647e-11,-4.08831435499399e-10)
(1.31471279805832e-11,3.01744589172716e-11,-4.11826146303424e-10)
(8.7039683159772e-12,7.68818590781824e-11,-4.15895164995684e-10)
(6.68340560949951e-12,2.11047822447857e-10,-4.08476117139178e-10)
(3.15647101945202e-12,3.40948310158968e-10,-3.47260647103276e-10)
(3.88958640176807e-13,5.0245863805926e-10,-2.52806764502679e-10)
(-1.35452289422555e-12,7.13963646306695e-10,-1.36074623668476e-10)
(0,0,0)
(0,0,0)
(0,0,0)
(0,0,0)
(0,0,0)
(0,0,0)
(2.32583591810372e-12,1.34059251522407e-12,-5.9597247191701e-10)
(4.95761687556878e-12,3.29753471768673e-12,-5.9725176839467e-10)
(8.47952634819647e-12,6.59632561644851e-12,-5.98798544408941e-10)
(1.21575728875777e-11,1.28499683692314e-11,-5.9934754625156e-10)
(1.37728422433287e-11,2.82045573537399e-11,-5.98231841210089e-10)
(1.2424687626855e-11,6.7282384506865e-11,-5.9165022592135e-10)
(9.82708900524696e-12,1.48747782722055e-10,-5.67097771578253e-10)
(7.05675904268603e-12,2.47090766139876e-10,-4.97713841255983e-10)
(3.8957479592276e-12,3.85962599350081e-10,-3.84533268304296e-10)
(1.69382100774969e-12,5.77676035182647e-10,-2.20485543506732e-10)
(0,0,0)
(0,0,0)
(0,0,0)
(0,0,0)
(0,0,0)
(0,0,0)
(1.95578591167694e-12,9.53395940882822e-13,-8.32454459962858e-10)
(3.71015931527178e-12,1.76473715200963e-12,-8.33294869531767e-10)
(7.21297526286229e-12,3.38626981425538e-12,-8.3498337266421e-10)
(1.17085019715372e-11,7.66716532618478e-12,-8.35143615855128e-10)
(1.3779597824302e-11,1.69877237634883e-11,-8.3071548520864e-10)
(1.36777377973789e-11,3.82947219961783e-11,-8.17358701126993e-10)
(1.17291478060017e-11,7.80958322402672e-11,-7.82295353326589e-10)