/*--------------------------------*- C++ -*----------------------------------*\
| =========                 |                                                 |
| \\      /  F ield         | foam-extend: Open Source Cstd::filesystem::create_directory();FD                    |
|  \\    /   O peration     | Version:     4.0                                |
|   \\  /    A nd           | Web:         http://www.foam-extend.org         |
|    \\/     M anipulation  |                                                 |
\*---------------------------------------------------------------------------*/
FoamFile
{
    version 2.0;
    format ascii;
    class volVectorField;
    location "Data/444";
    object      H;
}
// * * * * * * * * * * * * * * * * * * * * * * * * * * * * * * * * * * * * * //

dimensions      [0 1 -1 0 0 0 0];

internalField   nonuniform List<vector>
4096
(
(0,0,0)
(0,0,0)
(0,0,0)
(0,0,0)
(0,0,0)
(0,0,0)
(0,0,0)
(0,0,0)
(0,0,0)
(0,0,0)
(0,0,0)
(0,0,0)
(0,0,0)
(0,0,0)
(0,0,0)
(0,0,0)
(0,0,0)
(0,0,0)
(0,0,0)
(0,0,0)
(0,0,0)
(0,0,0)
(0,0,0)
(0,0,0)
(0,0,0)
(0,0,0)
(0,0,0)
(0,0,0)
(0,0,0)
(0,0,0)
(0,0,0)
(0,0,0)
(0,0,0)
(0,0,0)
(0,0,0)
(0,0,0)
(0,0,0)
(0,0,0)
(0,0,0)
(0,0,0)
(0,0,0)
(0,0,0)
(0,0,0)
(0,0,0)
(0,0,0)
(0,0,0)
(0,0,0)
(0,0,0)
(0,0,0)
(0,0,0)
(0,0,0)
(0,0,0)
(0,0,0)
(0,0,0)
(0,0,0)
(0,0,0)
(0,0,0)
(0,0,0)
(0,0,0)
(0,0,0)
(0,0,0)
(0,0,0)
(0,0,0)
(0,0,0)
(0,0,0)
(0,0,0)
(0,0,0)
(0,0,0)
(0,0,0)
(0,0,0)
(0,0,0)
(0,0,0)
(0,0,0)
(0,0,0)
(0,0,0)
(0,0,0)
(0,0,0)
(0,0,0)
(0,0,0)
(0,0,0)
(0,0,0)
(0,0,0)
(0,0,0)
(0,0,0)
(0,0,0)
(0,0,0)
(0,0,0)
(0,0,0)
(0,0,0)
(0,0,0)
(0,0,0)
(0,0,0)
(0,0,0)
(0,0,0)
(0,0,0)
(0,0,0)
(0,0,0)
(0,0,0)
(0,0,0)
(0,0,0)
(0,0,0)
(0,0,0)
(0,0,0)
(0,0,0)
(0,0,0)
(0,0,0)
(0,0,0)
(0,0,0)
(0,0,0)
(0,0,0)
(0,0,0)
(0,0,0)
(0,0,0)
(0,0,0)
(0,0,0)
(0,0,0)
(0,0,0)
(0,0,0)
(0,0,0)
(0,0,0)
(0,0,0)
(0,0,0)
(0,0,0)
(0,0,0)
(0,0,0)
(0,0,0)
(0,0,0)
(0,0,0)
(0,0,0)
(0,0,0)
(0,0,0)
(0,0,0)
(0,0,0)
(0,0,0)
(0,0,0)
(0,0,0)
(0,0,0)
(0,0,0)
(0,0,0)
(0,0,0)
(0,0,0)
(0,0,0)
(0,0,0)
(0,0,0)
(0,0,0)
(0,0,0)
(0,0,0)
(0,0,0)
(0,0,0)
(0,0,0)
(0,0,0)
(0,0,0)
(0,0,0)
(0,0,0)
(0,0,0)
(0,0,0)
(0,0,0)
(0,0,0)
(0,0,0)
(0,0,0)
(0,0,0)
(0,0,0)
(0,0,0)
(0,0,0)
(0,0,0)
(0,0,0)
(0,0,0)
(0,0,0)
(0,0,0)
(0,0,0)
(0,0,0)
(0,0,0)
(0,0,0)
(0,0,0)
(0,0,0)
(0,0,0)
(0,0,0)
(0,0,0)
(0,0,0)
(0,0,0)
(0,0,0)
(0,0,0)
(0,0,0)
(0,0,0)
(0,0,0)
(0,0,0)
(0,0,0)
(0,0,0)
(0,0,0)
(0,0,0)
(0,0,0)
(0,0,0)
(0,0,0)
(0,0,0)
(0,0,0)
(0,0,0)
(0,0,0)
(0,0,0)
(0,0,0)
(0,0,0)
(0,0,0)
(0,0,0)
(0,0,0)
(0,0,0)
(0,0,0)
(0,0,0)
(0,0,0)
(0,0,0)
(0,0,0)
(0,0,0)
(0,0,0)
(0,0,0)
(0,0,0)
(0,0,0)
(0,0,0)
(0,0,0)
(0,0,0)
(0,0,0)
(0,0,0)
(0,0,0)
(0,0,0)
(0,0,0)
(0,0,0)
(0,0,0)
(0,0,0)
(0,0,0)
(0,0,0)
(0,0,0)
(0,0,0)
(0,0,0)
(0,0,0)
(0,0,0)
(0,0,0)
(0,0,0)
(0,0,0)
(0,0,0)
(0,0,0)
(0,0,0)
(0,0,0)
(0,0,0)
(0,0,0)
(0,0,0)
(0,0,0)
(0,0,0)
(0,0,0)
(0,0,0)
(0,0,0)
(0,0,0)
(0,0,0)
(0,0,0)
(0,0,0)
(0,0,0)
(0,0,0)
(0,0,0)
(0,0,0)
(0,0,0)
(0,0,0)
(0,0,0)
(0,0,0)
(0,0,0)
(0,0,0)
(0,0,0)
(0,0,0)
(0,0,0)
(0,0,0)
(0,0,0)
(0,0,0)
(0,0,0)
(0,0,0)
(0,0,0)
(0,0,0)
(0,0,0)
(0,0,0)
(0,0,0)
(0,0,0)
(0,0,0)
(0,0,0)
(0,0,0)
(0,0,0)
(0,0,0)
(0,0,0)
(0,0,0)
(0,0,0)
(0,0,0)
(0,0,0)
(0,0,0)
(0,0,0)
(0,0,0)
(0,0,0)
(0,0,0)
(0,0,0)
(0,0,0)
(0,0,0)
(0,0,0)
(0,0,0)
(0,0,0)
(0,0,0)
(0,0,0)
(0,0,0)
(0,0,0)
(0,0,0)
(0,0,0)
(0,0,0)
(0,0,0)
(0,0,0)
(0,0,0)
(0,0,0)
(0,0,0)
(0,0,0)
(0,0,0)
(0,0,0)
(0,0,0)
(0,0,0)
(0,0,0)
(0,0,0)
(0,0,0)
(0,0,0)
(0,0,0)
(0,0,0)
(0,0,0)
(0,0,0)
(0,0,0)
(0,0,0)
(0,0,0)
(0,0,0)
(0,0,0)
(0,0,0)
(0,0,0)
(0,0,0)
(0,0,0)
(0,0,0)
(0,0,0)
(0,0,0)
(0,0,0)
(0,0,0)
(0,0,0)
(0,0,0)
(0,0,0)
(0,0,0)
(0,0,0)
(0,0,0)
(0,0,0)
(0,0,0)
(0,0,0)
(0,0,0)
(0,0,0)
(0,0,0)
(0,0,0)
(0,0,0)
(0,0,0)
(0,0,0)
(0,0,0)
(0,0,0)
(0,0,0)
(0,0,0)
(0,0,0)
(0,0,0)
(0,0,0)
(0,0,0)
(0,0,0)
(0,0,0)
(0,0,0)
(0,0,0)
(0,0,0)
(0,0,0)
(0,0,0)
(0,0,0)
(0,0,0)
(0,0,0)
(0,0,0)
(0,0,0)
(0,0,0)
(0,0,0)
(0,0,0)
(0,0,0)
(0,0,0)
(0,0,0)
(0,0,0)
(0,0,0)
(0,0,0)
(0,0,0)
(0,0,0)
(0,0,0)
(0,0,0)
(0,0,0)
(0,0,0)
(0,0,0)
(0,0,0)
(0,0,0)
(0,0,0)
(0,0,0)
(0,0,0)
(0,0,0)
(0,0,0)
(0,0,0)
(0,0,0)
(0,0,0)
(0,0,0)
(0,0,0)
(0,0,0)
(0,0,0)
(0,0,0)
(0,0,0)
(0,0,0)
(0,0,0)
(0,0,0)
(0,0,0)
(0,0,0)
(0,0,0)
(0,0,0)
(0,0,0)
(0,0,0)
(0,0,0)
(0,0,0)
(0,0,0)
(0,0,0)
(0,0,0)
(0,0,0)
(0,0,0)
(0,0,0)
(0,0,0)
(0,0,0)
(0,0,0)
(0,0,0)
(0,0,0)
(0,0,0)
(0,0,0)
(0,0,0)
(0,0,0)
(0,0,0)
(0,0,0)
(0,0,0)
(0,0,0)
(0,0,0)
(0,0,0)
(0,0,0)
(0,0,0)
(0,0,0)
(0,0,0)
(0,0,0)
(0,0,0)
(0,0,0)
(0,0,0)
(0,0,0)
(0,0,0)
(0,0,0)
(0,0,0)
(0,0,0)
(0,0,0)
(0,0,0)
(0,0,0)
(0,0,0)
(0,0,0)
(0,0,0)
(0,0,0)
(0,0,0)
(0,0,0)
(0,0,0)
(0,0,0)
(0,0,0)
(0,0,0)
(0,0,0)
(0,0,0)
(0,0,0)
(0,0,0)
(0,0,0)
(0,0,0)
(0,0,0)
(0,0,0)
(0,0,0)
(0,0,0)
(0,0,0)
(0,0,0)
(0,0,0)
(0,0,0)
(0,0,0)
(0,0,0)
(0,0,0)
(0,0,0)
(0,0,0)
(0,0,0)
(0,0,0)
(0,0,0)
(0,0,0)
(0,0,0)
(0,0,0)
(0,0,0)
(0,0,0)
(0,0,0)
(0,0,0)
(0,0,0)
(0,0,0)
(0,0,0)
(0,0,0)
(0,0,0)
(0,0,0)
(0,0,0)
(0,0,0)
(0,0,0)
(0,0,0)
(0,0,0)
(0,0,0)
(0,0,0)
(0,0,0)
(0,0,0)
(0,0,0)
(0,0,0)
(0,0,0)
(0,0,0)
(0,0,0)
(0,0,0)
(0,0,0)
(0,0,0)
(0,0,0)
(0,0,0)
(0,0,0)
(0,0,0)
(0,0,0)
(0,0,0)
(0,0,0)
(0,0,0)
(0,0,0)
(0,0,0)
(0,0,0)
(0,0,0)
(0,0,0)
(0,0,0)
(0,0,0)
(0,0,0)
(0,0,0)
(0,0,0)
(0,0,0)
(0,0,0)
(0,0,0)
(0,0,0)
(0,0,0)
(0,0,0)
(0,0,0)
(0,0,0)
(0,0,0)
(0,0,0)
(0,0,0)
(0,0,0)
(0,0,0)
(0,0,0)
(0,0,0)
(0,0,0)
(0,0,0)
(0,0,0)
(0,0,0)
(0,0,0)
(0,0,0)
(0,0,0)
(0,0,0)
(0,0,0)
(0,0,0)
(0,0,0)
(0,0,0)
(0,0,0)
(0,0,0)
(0,0,0)
(0,0,0)
(0,0,0)
(0,0,0)
(0,0,0)
(0,0,0)
(0,0,0)
(0,0,0)
(0,0,0)
(0,0,0)
(0,0,0)
(0,0,0)
(0,0,0)
(0,0,0)
(0,0,0)
(0,0,0)
(0,0,0)
(0,0,0)
(0,0,0)
(0,0,0)
(0,0,0)
(0,0,0)
(0,0,0)
(0,0,0)
(0,0,0)
(0,0,0)
(0,0,0)
(0,0,0)
(0,0,0)
(0,0,0)
(0,0,0)
(0,0,0)
(0,0,0)
(0,0,0)
(0,0,0)
(0,0,0)
(0,0,0)
(0,0,0)
(0,0,0)
(0,0,0)
(0,0,0)
(0,0,0)
(0,0,0)
(0,0,0)
(0,0,0)
(0,0,0)
(0,0,0)
(0,0,0)
(0,0,0)
(0,0,0)
(0,0,0)
(0,0,0)
(0,0,0)
(0,0,0)
(0,0,0)
(0,0,0)
(0,0,0)
(0,0,0)
(0,0,0)
(0,0,0)
(0,0,0)
(0,0,0)
(0,0,0)
(0,0,0)
(0,0,0)
(0,0,0)
(0,0,0)
(0,0,0)
(0,0,0)
(0,0,0)
(0,0,0)
(0,0,0)
(0,0,0)
(0,0,0)
(0,0,0)
(0,0,0)
(0,0,0)
(0,0,0)
(0,0,0)
(0,0,0)
(0,0,0)
(0,0,0)
(0,0,0)
(0,0,0)
(0,0,0)
(0,0,0)
(0,0,0)
(0,0,0)
(0,0,0)
(0,0,0)
(0,0,0)
(0,0,0)
(0,0,0)
(0,0,0)
(0,0,0)
(0,0,0)
(0,0,0)
(0,0,0)
(0,0,0)
(0,0,0)
(0,0,0)
(0,0,0)
(0,0,0)
(0,0,0)
(0,0,0)
(0,0,0)
(0,0,0)
(0,0,0)
(0,0,0)
(0,0,0)
(0,0,0)
(0,0,0)
(0,0,0)
(0,0,0)
(0,0,0)
(0,0,0)
(0,0,0)
(0,0,0)
(0,0,0)
(0,0,0)
(0,0,0)
(0,0,0)
(0,0,0)
(0,0,0)
(0,0,0)
(0,0,0)
(0,0,0)
(0,0,0)
(0,0,0)
(0,0,0)
(0,0,0)
(0,0,0)
(0,0,0)
(0,0,0)
(0,0,0)
(0,0,0)
(0,0,0)
(0,0,0)
(0,0,0)
(0,0,0)
(0,0,0)
(0,0,0)
(0,0,0)
(0,0,0)
(0,0,0)
(0,0,0)
(0,0,0)
(0,0,0)
(0,0,0)
(0,0,0)
(0,0,0)
(0,0,0)
(0,0,0)
(0,0,0)
(0,0,0)
(0,0,0)
(0,0,0)
(0,0,0)
(0,0,0)
(0,0,0)
(0,0,0)
(0,0,0)
(0,0,0)
(0,0,0)
(0,0,0)
(0,0,0)
(0,0,0)
(0,0,0)
(0,0,0)
(0,0,0)
(0,0,0)
(0,0,0)
(0,0,0)
(0,0,0)
(0,0,0)
(0,0,0)
(0,0,0)
(0,0,0)
(0,0,0)
(0,0,0)
(0,0,0)
(0,0,0)
(0,0,0)
(0,0,0)
(0,0,0)
(0,0,0)
(0,0,0)
(0,0,0)
(0,0,0)
(0,0,0)
(0,0,0)
(0,0,0)
(0,0,0)
(0,0,0)
(0,0,0)
(0,0,0)
(0,0,0)
(0,0,0)
(0,0,0)
(0,0,0)
(0,0,0)
(0,0,0)
(0,0,0)
(0,0,0)
(0,0,0)
(0,0,0)
(0,0,0)
(0,0,0)
(0,0,0)
(0,0,0)
(0,0,0)
(0,0,0)
(0,0,0)
(0,0,0)
(0,0,0)
(0,0,0)
(0,0,0)
(0,0,0)
(0,0,0)
(0,0,0)
(0,0,0)
(0,0,0)
(0,0,0)
(0,0,0)
(0,0,0)
(0,0,0)
(0,0,0)
(0,0,0)
(0,0,0)
(0,0,0)
(0,0,0)
(0,0,0)
(0,0,0)
(0,0,0)
(0,0,0)
(0,0,0)
(0,0,0)
(0,0,0)
(0,0,0)
(0,0,0)
(0,0,0)
(0,0,0)
(0,0,0)
(0,0,0)
(0,0,0)
(0,0,0)
(0,0,0)
(0,0,0)
(0,0,0)
(0,0,0)
(0,0,0)
(0,0,0)
(0,0,0)
(0,0,0)
(0,0,0)
(0,0,0)
(0,0,0)
(0,0,0)
(0,0,0)
(6.0830901947202e-13,5.64687111059133e-12,-6.61681199719084e-12)
(1.30824543673865e-12,1.29512192666373e-11,-6.69103449423672e-12)
(1.83064394267962e-12,2.29537059613303e-11,-6.17669160727682e-12)
(1.38915941480186e-12,3.57873755051601e-11,-5.25006009440652e-12)
(9.16188490524703e-13,5.4924849368241e-11,-4.19511010171674e-12)
(5.32788862303807e-13,8.53087346292917e-11,-2.92321655075331e-12)
(3.4809107322115e-14,1.33751279347987e-10,-1.34837150345567e-12)
(9.72445082707877e-13,2.14511727390462e-10,-2.13254287804718e-13)
(2.96990551396763e-12,3.49383098407665e-10,2.12124975501538e-13)
(3.24159344586293e-12,5.37469603021256e-10,4.00887565097484e-13)
(0,0,0)
(0,0,0)
(0,0,0)
(0,0,0)
(0,0,0)
(0,0,0)
(9.44307154931293e-13,5.8302418328529e-12,-1.4327326470691e-11)
(1.82361253909355e-12,1.30576950722198e-11,-1.40882134864925e-11)
(2.70661965211438e-12,2.26385475480036e-11,-1.28839402061927e-11)
(2.9366181485256e-12,3.52027519838318e-11,-1.12736941696737e-11)
(3.50024649053533e-12,5.38201079814847e-11,-9.20455730802288e-12)
(3.38284624847936e-12,8.39381849393754e-11,-6.35237043064636e-12)
(2.48122689209782e-12,1.32975552115065e-10,-3.44763793791965e-12)
(3.70853386961968e-12,2.14278268183882e-10,-1.39747940527139e-12)
(6.69665817404532e-12,3.49548779616565e-10,-6.3193873665055e-13)
(7.48826200058689e-12,5.37884872010045e-10,-2.05349855763698e-13)
(0,0,0)
(0,0,0)
(0,0,0)
(0,0,0)
(0,0,0)
(0,0,0)
(1.23894674048267e-12,5.72562735080181e-12,-2.40080096279427e-11)
(2.99067983166268e-12,1.25418232314774e-11,-2.37485416075698e-11)
(4.55392512650438e-12,2.17666760056463e-11,-2.21411600143511e-11)
(4.39444601762531e-12,3.3861358619551e-11,-1.96792065299703e-11)
(5.32313115559294e-12,5.19436753142389e-11,-1.62479838751425e-11)
(5.39696395948636e-12,8.19700115099705e-11,-1.18145256803276e-11)
(4.10992154182717e-12,1.31689790345883e-10,-7.75676952919738e-12)
(5.16541503113908e-12,2.14077841093461e-10,-5.1450912841096e-12)
(7.85402513719337e-12,3.49883933724907e-10,-3.60105987759715e-12)
(8.26535049629289e-12,5.38155282006216e-10,-1.77419239042042e-12)
(0,0,0)
(0,0,0)
(0,0,0)
(0,0,0)
(0,0,0)
(0,0,0)
(1.32801724048744e-12,5.69336777152045e-12,-3.71469067256602e-11)
(3.03435946065149e-12,1.18987986861004e-11,-3.63607751034533e-11)
(4.91744891050463e-12,2.03109248243127e-11,-3.43023990559106e-11)
(5.4283608267729e-12,3.09244370193129e-11,-3.11480162092425e-11)
(6.72315740350125e-12,4.83591334091985e-11,-2.72723646055331e-11)
(6.56996636406707e-12,7.84701871119876e-11,-2.22813546949955e-11)
(4.84593551491703e-12,1.29051841775642e-10,-1.72288059388985e-11)
(5.50257942176149e-12,2.12811516531504e-10,-1.34022746815392e-11)
(7.2682958276439e-12,3.48727929945536e-10,-9.41888212780029e-12)
(6.51182184133371e-12,5.36678452212533e-10,-4.42847530637307e-12)
(0,0,0)
(0,0,0)
(0,0,0)
(0,0,0)
(0,0,0)
(0,0,0)
(6.55467609919664e-13,5.15796535883123e-12,-5.62248992305557e-11)
(1.98211114492142e-12,1.05659442865594e-11,-5.48532807864237e-11)
(3.72769097660238e-12,1.77045237144861e-11,-5.24608558082713e-11)
(5.01048751385862e-12,2.70956044401085e-11,-4.92474919593292e-11)
(6.51347245893599e-12,4.3735715052532e-11,-4.54625037120833e-11)
(7.01427516240111e-12,7.3127224411965e-11,-4.05272619305585e-11)
(6.03010076592161e-12,1.24193667001202e-10,-3.48334793942822e-11)
(6.36997293678594e-12,2.0894544786831e-10,-2.80126819556953e-11)
(7.12373941116087e-12,3.44361311679006e-10,-1.97229573626062e-11)
(6.23769957595127e-12,5.32026134320734e-10,-9.87852434955089e-12)
(0,0,0)
(0,0,0)
(0,0,0)
(0,0,0)
(0,0,0)
(0,0,0)
(7.48609120857454e-13,3.78652489490743e-12,-8.55548066113271e-11)
(1.04700513026541e-12,8.52625714182093e-12,-8.42553752712637e-11)
(2.27868556593041e-12,1.43761556839479e-11,-8.18515378838957e-11)
(3.37175490621405e-12,2.26800094218042e-11,-7.90208114156074e-11)
(4.50900228086038e-12,3.84733740164687e-11,-7.56305237865992e-11)
(5.75804870330012e-12,6.70067387063874e-11,-7.04593333672009e-11)
(6.30413555762116e-12,1.18162443997384e-10,-6.27746134809438e-11)
(6.47261242054595e-12,2.01582528530636e-10,-5.23076012665987e-11)
(5.93864283093407e-12,3.35268008161868e-10,-3.80190958729361e-11)
(5.20439207585113e-12,5.21707644718479e-10,-2.00308784856603e-11)
(0,0,0)
(0,0,0)
(0,0,0)
(0,0,0)
(0,0,0)
(0,0,0)
(1.32187407603588e-13,2.66368613561229e-12,-1.32861908662481e-10)
(-4.41408198352378e-13,6.54402178153801e-12,-1.3208240078914e-10)
(3.47820423371261e-13,1.13464018898215e-11,-1.30001220948948e-10)
(4.03355093690403e-13,1.85040549961711e-11,-1.2752772250881e-10)
(1.21907782101388e-12,3.27024235774077e-11,-1.24590373921242e-10)
(3.29343708349242e-12,5.91176204275031e-11,-1.19065271605176e-10)
(5.46248694149964e-12,1.07902654884729e-10,-1.08262377180254e-10)
(6.96346562384475e-12,1.8766504507229e-10,-9.24099504585142e-11)
(6.47871288755812e-12,3.17338403847003e-10,-6.87619666443385e-11)
(5.71209037346984e-12,5.00788169222448e-10,-3.72668580734919e-11)
(0,0,0)
(0,0,0)
(0,0,0)
(0,0,0)
(0,0,0)
(0,0,0)
(-8.10213006536032e-13,1.70469977751162e-12,-2.11458622417502e-10)
(-1.74486736213533e-12,4.50456149950834e-12,-2.11314093093367e-10)
(-1.22163204237574e-12,8.60829498112085e-12,-2.0983024390193e-10)
(-1.73822868708775e-12,1.49877183694165e-11,-2.07819563078022e-10)
(-8.93127830150587e-13,2.72959951165142e-11,-2.0489180990364e-10)
(1.80944317135996e-12,5.03668363080019e-11,-1.98551600886242e-10)
(4.86291536525185e-12,9.24713808881741e-11,-1.85276431978262e-10)
(8.03544431217329e-12,1.64034430305549e-10,-1.61969377374215e-10)
(8.31009942098459e-12,2.8541507140855e-10,-1.24984161052452e-10)
(7.37779437132019e-12,4.62051774366417e-10,-7.06138614539658e-11)
(0,0,0)
(0,0,0)
(0,0,0)
(0,0,0)
(0,0,0)
(0,0,0)
(-1.45836222858518e-12,8.83429134550899e-13,-3.43118458568022e-10)
(-2.35215473280709e-12,2.44388979292927e-12,-3.43346421052019e-10)
(-2.66744539687065e-12,5.62332033405341e-12,-3.42681700525818e-10)
(-3.84081547935531e-12,1.09034939071885e-11,-3.4121798196602e-10)
(-2.68884682456182e-12,2.03728030940175e-11,-3.37929486950698e-10)
(8.69028236234053e-13,3.75908067245798e-11,-3.29796883738173e-10)
(4.62099986700495e-12,6.9100622364891e-11,-3.12919011527101e-10)
(8.70466737478856e-12,1.26841481385684e-10,-2.82041600478687e-10)
(1.02699508499617e-11,2.30669780063735e-10,-2.2794372263283e-10)
(9.41066983617819e-12,3.90107245716755e-10,-1.36723257659993e-10)
(0,0,0)
(0,0,0)
(0,0,0)
(0,0,0)
(0,0,0)
(0,0,0)
(-1.38297148610701e-12,1.38038228660268e-13,-5.29090397417127e-10)
(-1.79248668972882e-12,8.60180039434738e-13,-5.29654086096602e-10)
(-2.86899975219936e-12,2.81317579811709e-12,-5.29533681113215e-10)
(-4.43633343145995e-12,5.984632302354e-12,-5.28020626785461e-10)
(-3.31200630505909e-12,1.10768792375432e-11,-5.23984963542022e-10)
(2.55371468497632e-13,2.02344975556205e-11,-5.14550288593852e-10)
(3.80991281627416e-12,3.76452473195431e-11,-4.95303090170757e-10)
(8.05857335655486e-12,7.20586575853937e-11,-4.58646690769754e-10)
(9.9037580135201e-12,1.38728873866244e-10,-3.87740522205847e-10)
(9.24916395508762e-12,2.52098541435941e-10,-2.5046600819589e-10)
(0,0,0)
(0,0,0)
(0,0,0)
(0,0,0)
(0,0,0)
(0,0,0)
(0,0,0)
(0,0,0)
(0,0,0)
(0,0,0)
(0,0,0)
(0,0,0)
(0,0,0)
(0,0,0)
(0,0,0)
(0,0,0)
(0,0,0)
(0,0,0)
(0,0,0)
(0,0,0)
(0,0,0)
(0,0,0)
(0,0,0)
(0,0,0)
(0,0,0)
(0,0,0)
(0,0,0)
(0,0,0)
(0,0,0)
(0,0,0)
(0,0,0)
(0,0,0)
(0,0,0)
(0,0,0)
(0,0,0)
(0,0,0)
(0,0,0)
(0,0,0)
(0,0,0)
(0,0,0)
(0,0,0)
(0,0,0)
(0,0,0)
(0,0,0)
(0,0,0)
(0,0,0)
(0,0,0)
(0,0,0)
(0,0,0)
(0,0,0)
(0,0,0)
(0,0,0)
(0,0,0)
(0,0,0)
(0,0,0)
(0,0,0)
(0,0,0)
(0,0,0)
(0,0,0)
(0,0,0)
(0,0,0)
(0,0,0)
(0,0,0)
(0,0,0)
(0,0,0)
(0,0,0)
(0,0,0)
(0,0,0)
(0,0,0)
(0,0,0)
(0,0,0)
(0,0,0)
(0,0,0)
(0,0,0)
(0,0,0)
(0,0,0)
(0,0,0)
(0,0,0)
(0,0,0)
(0,0,0)
(0,0,0)
(0,0,0)
(0,0,0)
(0,0,0)
(0,0,0)
(0,0,0)
(0,0,0)
(0,0,0)
(0,0,0)
(0,0,0)
(0,0,0)
(0,0,0)
(0,0,0)
(0,0,0)
(0,0,0)
(0,0,0)
(0,0,0)
(0,0,0)
(0,0,0)
(0,0,0)
(0,0,0)
(0,0,0)
(4.99160794254429e-13,1.21372061758813e-11,-1.36102462381466e-11)
(6.87426744196377e-13,2.57979230138547e-11,-1.32085025847457e-11)
(1.21917084313559e-12,4.38080665911478e-11,-1.20311344682025e-11)
(9.18832943435723e-13,6.74463883704988e-11,-1.02272552994563e-11)
(7.49036326281519e-13,1.0052302255771e-10,-7.58461184676147e-12)
(3.28493504987863e-13,1.51411411741624e-10,-4.1747803150979e-12)
(-3.24580875344752e-13,2.33269137454432e-10,-8.92907719263671e-13)
(7.80525025828923e-13,3.7330466710298e-10,8.60059641636866e-13)
(2.61546171530211e-12,6.42626795945149e-10,9.61152157443963e-13)
(3.22721202191795e-12,1.26012298286232e-09,7.30888879194921e-13)
(0,0,0)
(0,0,0)
(0,0,0)
(0,0,0)
(0,0,0)
(0,0,0)
(8.09808652782574e-13,1.19120898494349e-11,-2.7153522303805e-11)
(1.1352110995383e-12,2.52313756759776e-11,-2.6348717230854e-11)
(1.96824515795931e-12,4.26419979675235e-11,-2.42569693498701e-11)
(2.20887465115395e-12,6.58484058596975e-11,-2.09167927908201e-11)
(2.52449228041219e-12,9.82999394366141e-11,-1.55002418365701e-11)
(2.44628718513247e-12,1.48869838289277e-10,-8.63175223480905e-12)
(1.71683012862902e-12,2.31835932817737e-10,-2.72559562605751e-12)
(3.1434202915728e-12,3.73372835432219e-10,-3.98485301483233e-14)
(5.93491518499125e-12,6.43318610094651e-10,3.64311817683648e-13)
(7.01250214897682e-12,1.26098711228889e-09,3.61582737175124e-13)
(0,0,0)
(0,0,0)
(0,0,0)
(0,0,0)
(0,0,0)
(0,0,0)
(1.01173829939115e-12,1.13233182381976e-11,-4.47951795623124e-11)
(2.02632278382042e-12,2.38165269956058e-11,-4.39354072607404e-11)
(3.5477228234535e-12,4.00583494743641e-11,-4.10359586039642e-11)
(3.9001449630441e-12,6.175574625477e-11,-3.57691185597992e-11)
(4.47421486580383e-12,9.32922163497314e-11,-2.75047917327213e-11)
(4.83903220631127e-12,1.44242129898991e-10,-1.72745586021091e-11)
(4.13619186696702e-12,2.29924141374754e-10,-8.3228786861229e-12)
(4.88770818661556e-12,3.74048249726631e-10,-4.74416743210608e-12)
(7.18316142944861e-12,6.44770693274465e-10,-3.43464821144236e-12)
(7.96798789932232e-12,1.2623542830188e-09,-1.58330491189908e-12)
(0,0,0)
(0,0,0)
(0,0,0)
(0,0,0)
(0,0,0)
(0,0,0)
(1.07728803096971e-12,1.07393509071593e-11,-6.80584902839349e-11)
(2.30883781264955e-12,2.18336104914073e-11,-6.64944436478724e-11)
(4.36946717366519e-12,3.59105282057852e-11,-6.27819985286915e-11)
(5.38154180226978e-12,5.46197686153085e-11,-5.63020230865573e-11)
(6.35556584962931e-12,8.44487199332204e-11,-4.7104557566101e-11)
(6.86038030799166e-12,1.35622769442461e-10,-3.51929707373927e-11)
(5.87757903197319e-12,2.2561107902096e-10,-2.32872698382257e-11)
(5.38525553123091e-12,3.74014218637679e-10,-1.74451682880652e-11)
(6.64450727295156e-12,6.45031676267357e-10,-1.2995464058781e-11)
(6.73566442685057e-12,1.26202060512242e-09,-6.68351157486536e-12)
(0,0,0)
(0,0,0)
(0,0,0)
(0,0,0)
(0,0,0)
(0,0,0)
(6.55289629711634e-13,9.19643917724503e-12,-1.01844106937075e-10)
(1.6293733115091e-12,1.8568231229352e-11,-9.95559260911014e-11)
(3.84269515819489e-12,3.01305846335179e-11,-9.53009823154776e-11)
(5.64109428491988e-12,4.59490406117377e-11,-8.86762147510113e-11)
(6.84057171347837e-12,7.27512315560493e-11,-8.02827765889231e-11)
(7.44097833170691e-12,1.21752359894849e-10,-7.01218533620605e-11)
(5.24052633116119e-12,2.1486528642825e-10,-6.08760116356893e-11)
(5.44316768147962e-12,3.70445793754959e-10,-4.72901840376717e-11)
(6.37260991521355e-12,6.40786506922812e-10,-3.34438783641685e-11)
(6.67766482844735e-12,1.25608125773286e-09,-1.72683157348716e-11)
(0,0,0)
(0,0,0)
(0,0,0)
(0,0,0)
(0,0,0)
(0,0,0)
(5.72016540088815e-13,6.70977175532485e-12,-1.51939978975567e-10)
(6.2540310317959e-13,1.44388720528396e-11,-1.49984408810882e-10)
(2.4777128917676e-12,2.36200880674173e-11,-1.46079752096177e-10)
(4.15742170283834e-12,3.70964801972837e-11,-1.40437442196729e-10)
(5.10876230052654e-12,6.12119554956407e-11,-1.33446521125163e-10)
(5.96244709592426e-12,1.08839202773739e-10,-1.23949164646253e-10)
(6.09691245594278e-12,2.06566043205195e-10,-1.11308959859992e-10)
(6.10159048524393e-12,3.59876404234573e-10,-9.33119889908934e-11)
(5.88002975853669e-12,6.26738878053971e-10,-6.76587755226759e-11)
(6.09298908633293e-12,1.23932182556907e-09,-3.55858819578904e-11)
(0,0,0)
(0,0,0)
(0,0,0)
(0,0,0)
(0,0,0)
(0,0,0)
(3.11665892362677e-13,4.80573110531058e-12,-2.31723700177174e-10)
(-4.83127756514602e-13,1.08128156341525e-11,-2.30429558377998e-10)
(6.12428891932948e-13,1.78386534213578e-11,-2.27424491119087e-10)
(9.82343132874641e-13,2.88759518636411e-11,-2.23242880157348e-10)
(1.10040396583942e-12,4.94646191547359e-11,-2.18401431022542e-10)
(1.24132677806476e-12,9.21966899454533e-11,-2.10430079730748e-10)
(5.04133421629692e-12,1.87827570822073e-10,-1.90788030887125e-10)
(6.94609657639822e-12,3.35094704068686e-10,-1.67147681589588e-10)
(6.90693675500636e-12,5.94941237794783e-10,-1.23740446660519e-10)
(7.18162715622178e-12,1.2030309404274e-09,-6.67277053409565e-11)
(0,0,0)
(0,0,0)
(0,0,0)
(0,0,0)
(0,0,0)
(0,0,0)
(-1.3347168771064e-13,3.03924154256983e-12,-3.69169261884358e-10)
(-1.16804484699235e-12,7.33019275337084e-12,-3.68408494853125e-10)
(-2.47338219215274e-13,1.2916064327656e-11,-3.6598123420355e-10)
(-5.81757399241181e-13,2.25881367370116e-11,-3.62684827251705e-10)
(-3.10144825050279e-13,4.19305445181588e-11,-3.5852324348116e-10)
(1.31030384680922e-12,8.18634531252223e-11,-3.5025002033482e-10)
(4.92661928448787e-12,1.62825251557213e-10,-3.30068028118958e-10)
(8.24317691022069e-12,2.90700901393656e-10,-2.89543607287071e-10)
(8.68509116739046e-12,5.36639941906175e-10,-2.23125442508063e-10)
(8.70846156689205e-12,1.13438149123819e-09,-1.26961623013796e-10)
(0,0,0)
(0,0,0)
(0,0,0)
(0,0,0)
(0,0,0)
(0,0,0)
(-4.85008838697238e-13,1.6115462156018e-12,-6.34197550294348e-10)
(-1.43316550551379e-12,4.10391576743451e-12,-6.3383646794936e-10)
(-1.32101942073142e-12,8.26734434382804e-12,-6.32258625016014e-10)
(-2.21044888984198e-12,1.62459997978985e-11,-6.29613101266311e-10)
(-1.52552618061384e-12,3.1953734558892e-11,-6.24696643790078e-10)
(1.34746519412099e-12,6.25432178709234e-11,-6.12790157185134e-10)
(5.1989638639336e-12,1.2070770331328e-10,-5.85815970284679e-10)
(9.38961332922762e-12,2.22985727000695e-10,-5.32217077053094e-10)
(1.09903920745515e-11,4.39295892810185e-10,-4.37441905736561e-10)
(1.06961164570689e-11,1.00598539053509e-09,-2.73327162256173e-10)
(0,0,0)
(0,0,0)
(0,0,0)
(0,0,0)
(0,0,0)
(0,0,0)
(-6.81244577972347e-13,4.73531007228578e-13,-1.24762939039727e-09)
(-1.0527116336806e-12,1.44890813062243e-12,-1.24772209013206e-09)
(-1.56887828183604e-12,3.90081033414272e-12,-1.24718999616458e-09)
(-2.48736437254498e-12,8.78926883541665e-12,-1.24468134190916e-09)
(-1.66980201568581e-12,1.74578853568803e-11,-1.23830712944648e-09)
(1.24267060102149e-12,3.39139372953137e-11,-1.22365064020416e-09)
(4.79876073481499e-12,6.53193511022807e-11,-1.19199068092383e-09)
(9.21106237804051e-12,1.26898105028769e-10,-1.12877562465726e-09)
(1.135811786981e-11,2.74341271097998e-10,-1.00350001064266e-09)
(1.08816971951554e-11,7.31668643966698e-10,-7.30425558585024e-10)
(0,0,0)
(0,0,0)
(0,0,0)
(0,0,0)
(0,0,0)
(0,0,0)
(0,0,0)
(0,0,0)
(0,0,0)
(0,0,0)
(0,0,0)
(0,0,0)
(0,0,0)
(0,0,0)
(0,0,0)
(0,0,0)
(0,0,0)
(0,0,0)
(0,0,0)
(0,0,0)
(0,0,0)
(0,0,0)
(0,0,0)
(0,0,0)
(0,0,0)
(0,0,0)
(0,0,0)
(0,0,0)
(0,0,0)
(0,0,0)
(0,0,0)
(0,0,0)
(0,0,0)
(0,0,0)
(0,0,0)
(0,0,0)
(0,0,0)
(0,0,0)
(0,0,0)
(0,0,0)
(0,0,0)
(0,0,0)
(0,0,0)
(0,0,0)
(0,0,0)
(0,0,0)
(0,0,0)
(0,0,0)
(0,0,0)
(0,0,0)
(0,0,0)
(0,0,0)
(0,0,0)
(0,0,0)
(0,0,0)
(0,0,0)
(0,0,0)
(0,0,0)
(0,0,0)
(0,0,0)
(0,0,0)
(0,0,0)
(0,0,0)
(0,0,0)
(0,0,0)
(0,0,0)
(0,0,0)
(0,0,0)
(0,0,0)
(0,0,0)
(0,0,0)
(0,0,0)
(0,0,0)
(0,0,0)
(0,0,0)
(0,0,0)
(0,0,0)
(0,0,0)
(0,0,0)
(0,0,0)
(0,0,0)
(0,0,0)
(0,0,0)
(0,0,0)
(0,0,0)
(0,0,0)
(0,0,0)
(0,0,0)
(0,0,0)
(0,0,0)
(0,0,0)
(0,0,0)
(0,0,0)
(0,0,0)
(0,0,0)
(0,0,0)
(0,0,0)
(0,0,0)
(0,0,0)
(0,0,0)
(0,0,0)
(0,0,0)
(3.22533467062362e-13,1.69344801622387e-11,-1.83512236974821e-11)
(7.66059654683155e-14,3.49637442540145e-11,-1.73152674843002e-11)
(5.81360297712138e-13,5.87255921846484e-11,-1.51506444882299e-11)
(-1.25827997770353e-13,8.90148717604445e-11,-1.20099704452551e-11)
(-4.37712084670399e-13,1.30094615560321e-10,-7.99197997758654e-12)
(-4.11805638251071e-13,1.90075382388086e-10,-3.24599798258632e-12)
(-6.44343599793189e-13,2.7737546397848e-10,1.49114911481885e-12)
(6.11264180678277e-13,4.04353253813115e-10,3.48760608045555e-12)
(2.15391084399127e-12,5.87569913059249e-10,2.85829753142182e-12)
(3.0939714746989e-12,8.10296974122042e-10,1.58468841357836e-12)
(0,0,0)
(0,0,0)
(0,0,0)
(0,0,0)
(0,0,0)
(0,0,0)
(5.93775191000855e-13,1.61634607686035e-11,-3.69197506585221e-11)
(4.58311899254457e-13,3.33683350830706e-11,-3.51811225783918e-11)
(1.21171709175794e-12,5.63394751818885e-11,-3.16317634719036e-11)
(8.84983301866789e-13,8.59027979741487e-11,-2.58014965781862e-11)
(6.63725765780919e-13,1.26228309066121e-10,-1.72039011909285e-11)
(1.16783896652984e-12,1.86022698140294e-10,-6.4068922548707e-12)
(9.42874475432891e-13,2.75666576731914e-10,4.0039255350309e-12)
(2.06384564987485e-12,4.05342916153096e-10,6.40962619236694e-12)
(4.48556108548056e-12,5.89396212612158e-10,4.50650730203197e-12)
(6.00691415611034e-12,8.12203768352251e-10,2.25414420802562e-12)
(0,0,0)
(0,0,0)
(0,0,0)
(0,0,0)
(0,0,0)
(0,0,0)
(7.35933328644275e-13,1.50090051796433e-11,-6.0362397960866e-11)
(1.10979063142868e-12,3.07172814620156e-11,-5.79884673526824e-11)
(2.42870404785618e-12,5.1691793668134e-11,-5.31926231452745e-11)
(2.77179577551623e-12,7.87161866832543e-11,-4.45832963499347e-11)
(3.08747815168813e-12,1.17067828780421e-10,-3.13644576190305e-11)
(4.50671274660278e-12,1.77379103472224e-10,-1.3314463524627e-11)
(4.87054296706243e-12,2.74451177455895e-10,6.39222246094637e-12)
(3.61222005481154e-12,4.09069052370588e-10,7.98326406663128e-12)
(5.07083513708328e-12,5.93437457193893e-10,3.86942652273594e-12)
(6.7183608838301e-12,8.15563257700876e-10,1.4604963300863e-12)
(0,0,0)
(0,0,0)
(0,0,0)
(0,0,0)
(0,0,0)
(0,0,0)
(1.05615312474037e-12,1.35034980185059e-11,-9.11214292787903e-11)
(1.86177195543459e-12,2.72028243051522e-11,-8.78944800999666e-11)
(3.66943530384647e-12,4.47531808452117e-11,-8.2002238116522e-11)
(4.85480428526564e-12,6.72042492940136e-11,-7.18975377068838e-11)
(6.14146739838403e-12,1.01139265373332e-10,-5.63803130720932e-11)
(8.82508895656098e-12,1.59619541066034e-10,-3.28403629212909e-11)
(1.0781270074066e-11,2.71095458607113e-10,-1.4675627150563e-12)
(4.50397618468506e-12,4.16023716327908e-10,-2.40649652503384e-12)
(4.57772413376516e-12,5.98657494550014e-10,-6.46219407920727e-12)
(5.99150024152556e-12,8.1858162611986e-10,-4.94624641079934e-12)
(0,0,0)
(0,0,0)
(0,0,0)
(0,0,0)
(0,0,0)
(0,0,0)
(8.5377620567619e-13,1.12676275561939e-11,-1.32809494467818e-10)
(1.50378871221106e-12,2.25236998527932e-11,-1.29339750496489e-10)
(3.72842416020815e-12,3.59640850032446e-11,-1.2331157778913e-10)
(6.10021653671991e-12,5.29043355658375e-11,-1.13459283809322e-10)
(8.21892454773603e-12,7.87188235500337e-11,-9.95968483039682e-11)
(1.11082937259429e-11,1.25738396711244e-10,-8.25231220801897e-11)
(-4.60580437157085e-14,2.40919395751567e-10,-8.00451407714653e-11)
(2.16625152809151e-12,4.23211656716919e-10,-5.18789290649949e-11)
(4.2446761551472e-12,6.00855268693185e-10,-3.69463309649451e-11)
(6.16878125731101e-12,8.1555112149226e-10,-1.99409612078985e-11)
(0,0,0)
(0,0,0)
(0,0,0)
(0,0,0)
(0,0,0)
(0,0,0)
(5.20487025321167e-13,8.34176138871655e-12,-1.9043740395298e-10)
(3.4680280741903e-13,1.69835525901944e-11,-1.87765804824295e-10)
(2.61683763837951e-12,2.64438430565375e-11,-1.82959124305358e-10)
(5.38702896476123e-12,3.85868467913971e-11,-1.75433540585522e-10)
(7.35874216250271e-12,5.77836963827731e-11,-1.65320946701954e-10)
(9.96475513789845e-12,1.01816168734377e-10,-1.51366556414428e-10)
(6.83841397017677e-12,2.47327967945322e-10,-1.39456679405815e-10)
(5.23007718263503e-12,4.17301495820719e-10,-1.15955936516384e-10)
(5.60477645324798e-12,5.87412699071595e-10,-8.31367040746602e-11)
(6.79799226965609e-12,7.97105144135258e-10,-4.34905806731459e-11)
(0,0,0)
(0,0,0)
(0,0,0)
(0,0,0)
(0,0,0)
(0,0,0)
(7.84013656179774e-13,5.78513599204128e-12,-2.73903199889582e-10)
(-5.5721350646094e-15,1.18473481397675e-11,-2.71885602398698e-10)
(1.35340702375129e-12,1.82185838485249e-11,-2.6880581315945e-10)
(2.42870912535572e-12,2.61135243663592e-11,-2.65096949976708e-10)
(6.6312731075813e-13,3.67600019705307e-11,-2.62975381272064e-10)
(-8.06748524609149e-12,6.31453919419606e-11,-2.62314900965408e-10)
(6.40330418396483e-12,2.19615694747477e-10,-2.20077076500513e-10)
(7.93266432186971e-12,3.88806062328949e-10,-2.15916366867894e-10)
(8.19549132481495e-12,5.49062554263132e-10,-1.51177288589776e-10)
(9.10337100417031e-12,7.53511739269071e-10,-7.80312507161988e-11)
(0,0,0)
(0,0,0)
(0,0,0)
(0,0,0)
(0,0,0)
(0,0,0)
(5.33456607906013e-13,3.57058465681087e-12,-3.97909163576355e-10)
(-3.69028510839251e-13,7.76575273924835e-12,-3.96633410636456e-10)
(1.10497481274131e-12,1.29297963482317e-11,-3.94722529719873e-10)
(1.59879576987193e-12,2.0733856474389e-11,-3.92607580981907e-10)
(1.39344198714018e-12,3.6173364966084e-11,-3.91926048465781e-10)
(4.48546885392236e-13,7.82422232168456e-11,-3.91753272972479e-10)
(6.51974669696564e-12,2.01829814425479e-10,-3.79432009335547e-10)
(9.54018652391322e-12,3.224643442202e-10,-3.23428009655366e-10)
(9.86532076869082e-12,4.74872721993077e-10,-2.35645677470318e-10)
(1.01429392567088e-11,6.74586209671384e-10,-1.27026946009473e-10)
(0,0,0)
(0,0,0)
(0,0,0)
(0,0,0)
(0,0,0)
(0,0,0)
(2.91924024346576e-13,1.90167866850474e-12,-5.76514229731873e-10)
(-3.56000802067048e-13,4.61042962930634e-12,-5.7597351643313e-10)
(3.99990839105271e-13,8.73493902328196e-12,-5.74859008165435e-10)
(3.29824596796161e-13,1.62100321276808e-11,-5.73264883161127e-10)
(1.06383641632476e-12,3.19469862161112e-11,-5.70327702702329e-10)
(3.00255886958712e-12,6.77598190933275e-11,-5.61261434150174e-10)
(6.98842284308386e-12,1.42171867821938e-10,-5.35166849978499e-10)
(1.07020639847386e-11,2.33285278765213e-10,-4.69827979203107e-10)
(1.18302703061767e-11,3.64907157369431e-10,-3.63463281646308e-10)
(1.16857007693016e-11,5.46443282089289e-10,-2.08543800833616e-10)
(0,0,0)
(0,0,0)
(0,0,0)
(0,0,0)
(0,0,0)
(0,0,0)
(-1.15013836203719e-13,6.82834164333776e-13,-7.96235098924684e-10)
(-1.35897470639462e-13,1.9213663015697e-12,-7.96632137287071e-10)
(-1.76722202935229e-13,4.49858261097513e-12,-7.96550804957585e-10)
(-7.23080001280617e-14,9.30593480310986e-12,-7.94785411024732e-10)
(1.13159409902304e-12,1.87014541472646e-11,-7.89183933946078e-10)
(3.4966486159161e-12,3.82833359223405e-11,-7.74014347116482e-10)
(6.90305557106851e-12,7.41084825396483e-11,-7.39065821280236e-10)
(1.08335533914588e-11,1.25614302599817e-10,-6.67591229027388e-10)