/*--------------------------------*- C++ -*----------------------------------*\
| =========                 |                                                 |
| \\      /  F ield         | foam-extend: Open Source Cstd::filesystem::create_directory();FD                    |
|  \\    /   O peration     | Version:     4.0                                |
|   \\  /    A nd           | Web:         http://www.foam-extend.org         |
|    \\/     M anipulation  |                                                 |
\*---------------------------------------------------------------------------*/
FoamFile
{
    version 2.0;
    format ascii;
    class volVectorField;
    location "Data/1437";
    object      H;
}
// * * * * * * * * * * * * * * * * * * * * * * * * * * * * * * * * * * * * * //

dimensions      [0 1 -1 0 0 0 0];

internalField   nonuniform List<vector>
4096
(
(0,0,0)
(0,0,0)
(0,0,0)
(0,0,0)
(0,0,0)
(0,0,0)
(0,0,0)
(0,0,0)
(0,0,0)
(0,0,0)
(0,0,0)
(0,0,0)
(0,0,0)
(0,0,0)
(0,0,0)
(0,0,0)
(0,0,0)
(0,0,0)
(0,0,0)
(0,0,0)
(0,0,0)
(0,0,0)
(0,0,0)
(0,0,0)
(0,0,0)
(0,0,0)
(0,0,0)
(0,0,0)
(0,0,0)
(0,0,0)
(0,0,0)
(0,0,0)
(0,0,0)
(0,0,0)
(0,0,0)
(0,0,0)
(0,0,0)
(0,0,0)
(0,0,0)
(0,0,0)
(0,0,0)
(0,0,0)
(0,0,0)
(0,0,0)
(0,0,0)
(0,0,0)
(0,0,0)
(0,0,0)
(0,0,0)
(0,0,0)
(0,0,0)
(0,0,0)
(0,0,0)
(0,0,0)
(0,0,0)
(0,0,0)
(0,0,0)
(0,0,0)
(0,0,0)
(0,0,0)
(0,0,0)
(0,0,0)
(0,0,0)
(0,0,0)
(0,0,0)
(0,0,0)
(0,0,0)
(0,0,0)
(0,0,0)
(0,0,0)
(0,0,0)
(0,0,0)
(0,0,0)
(0,0,0)
(0,0,0)
(0,0,0)
(0,0,0)
(0,0,0)
(0,0,0)
(0,0,0)
(0,0,0)
(0,0,0)
(0,0,0)
(0,0,0)
(0,0,0)
(0,0,0)
(0,0,0)
(0,0,0)
(0,0,0)
(0,0,0)
(0,0,0)
(0,0,0)
(0,0,0)
(0,0,0)
(0,0,0)
(0,0,0)
(0,0,0)
(0,0,0)
(0,0,0)
(0,0,0)
(0,0,0)
(0,0,0)
(0,0,0)
(0,0,0)
(0,0,0)
(0,0,0)
(0,0,0)
(0,0,0)
(0,0,0)
(0,0,0)
(0,0,0)
(0,0,0)
(0,0,0)
(0,0,0)
(0,0,0)
(0,0,0)
(0,0,0)
(0,0,0)
(0,0,0)
(0,0,0)
(0,0,0)
(0,0,0)
(0,0,0)
(0,0,0)
(0,0,0)
(0,0,0)
(0,0,0)
(0,0,0)
(0,0,0)
(0,0,0)
(0,0,0)
(0,0,0)
(0,0,0)
(0,0,0)
(0,0,0)
(0,0,0)
(0,0,0)
(0,0,0)
(0,0,0)
(0,0,0)
(0,0,0)
(0,0,0)
(0,0,0)
(0,0,0)
(0,0,0)
(0,0,0)
(0,0,0)
(0,0,0)
(0,0,0)
(0,0,0)
(0,0,0)
(0,0,0)
(0,0,0)
(0,0,0)
(0,0,0)
(0,0,0)
(0,0,0)
(0,0,0)
(0,0,0)
(0,0,0)
(0,0,0)
(0,0,0)
(0,0,0)
(0,0,0)
(0,0,0)
(0,0,0)
(0,0,0)
(0,0,0)
(0,0,0)
(0,0,0)
(0,0,0)
(0,0,0)
(0,0,0)
(0,0,0)
(0,0,0)
(0,0,0)
(0,0,0)
(0,0,0)
(0,0,0)
(0,0,0)
(0,0,0)
(0,0,0)
(0,0,0)
(0,0,0)
(0,0,0)
(0,0,0)
(0,0,0)
(0,0,0)
(0,0,0)
(0,0,0)
(0,0,0)
(0,0,0)
(0,0,0)
(0,0,0)
(0,0,0)
(0,0,0)
(0,0,0)
(0,0,0)
(0,0,0)
(0,0,0)
(0,0,0)
(0,0,0)
(0,0,0)
(0,0,0)
(0,0,0)
(0,0,0)
(0,0,0)
(0,0,0)
(0,0,0)
(0,0,0)
(0,0,0)
(0,0,0)
(0,0,0)
(0,0,0)
(0,0,0)
(0,0,0)
(0,0,0)
(0,0,0)
(0,0,0)
(0,0,0)
(0,0,0)
(0,0,0)
(0,0,0)
(0,0,0)
(0,0,0)
(0,0,0)
(0,0,0)
(0,0,0)
(0,0,0)
(0,0,0)
(0,0,0)
(0,0,0)
(0,0,0)
(0,0,0)
(0,0,0)
(0,0,0)
(0,0,0)
(0,0,0)
(0,0,0)
(0,0,0)
(0,0,0)
(0,0,0)
(0,0,0)
(0,0,0)
(0,0,0)
(0,0,0)
(0,0,0)
(0,0,0)
(0,0,0)
(0,0,0)
(0,0,0)
(0,0,0)
(0,0,0)
(0,0,0)
(0,0,0)
(0,0,0)
(0,0,0)
(0,0,0)
(0,0,0)
(0,0,0)
(0,0,0)
(0,0,0)
(0,0,0)
(0,0,0)
(0,0,0)
(0,0,0)
(0,0,0)
(0,0,0)
(0,0,0)
(0,0,0)
(0,0,0)
(0,0,0)
(0,0,0)
(0,0,0)
(0,0,0)
(0,0,0)
(0,0,0)
(0,0,0)
(0,0,0)
(0,0,0)
(0,0,0)
(0,0,0)
(0,0,0)
(0,0,0)
(0,0,0)
(0,0,0)
(0,0,0)
(0,0,0)
(0,0,0)
(0,0,0)
(0,0,0)
(0,0,0)
(0,0,0)
(0,0,0)
(0,0,0)
(0,0,0)
(0,0,0)
(0,0,0)
(0,0,0)
(0,0,0)
(0,0,0)
(0,0,0)
(0,0,0)
(0,0,0)
(0,0,0)
(0,0,0)
(0,0,0)
(0,0,0)
(0,0,0)
(0,0,0)
(0,0,0)
(0,0,0)
(0,0,0)
(0,0,0)
(0,0,0)
(0,0,0)
(0,0,0)
(0,0,0)
(0,0,0)
(0,0,0)
(0,0,0)
(0,0,0)
(0,0,0)
(0,0,0)
(0,0,0)
(0,0,0)
(0,0,0)
(0,0,0)
(0,0,0)
(0,0,0)
(0,0,0)
(0,0,0)
(0,0,0)
(0,0,0)
(0,0,0)
(0,0,0)
(0,0,0)
(0,0,0)
(0,0,0)
(0,0,0)
(0,0,0)
(0,0,0)
(0,0,0)
(0,0,0)
(0,0,0)
(0,0,0)
(0,0,0)
(0,0,0)
(0,0,0)
(0,0,0)
(0,0,0)
(0,0,0)
(0,0,0)
(0,0,0)
(0,0,0)
(0,0,0)
(0,0,0)
(0,0,0)
(0,0,0)
(0,0,0)
(0,0,0)
(0,0,0)
(0,0,0)
(0,0,0)
(0,0,0)
(0,0,0)
(0,0,0)
(0,0,0)
(0,0,0)
(0,0,0)
(0,0,0)
(0,0,0)
(0,0,0)
(0,0,0)
(0,0,0)
(0,0,0)
(0,0,0)
(0,0,0)
(0,0,0)
(0,0,0)
(0,0,0)
(0,0,0)
(0,0,0)
(0,0,0)
(0,0,0)
(0,0,0)
(0,0,0)
(0,0,0)
(0,0,0)
(0,0,0)
(0,0,0)
(0,0,0)
(0,0,0)
(0,0,0)
(0,0,0)
(0,0,0)
(0,0,0)
(0,0,0)
(0,0,0)
(0,0,0)
(0,0,0)
(0,0,0)
(0,0,0)
(0,0,0)
(0,0,0)
(0,0,0)
(0,0,0)
(0,0,0)
(0,0,0)
(0,0,0)
(0,0,0)
(0,0,0)
(0,0,0)
(0,0,0)
(0,0,0)
(0,0,0)
(0,0,0)
(0,0,0)
(0,0,0)
(0,0,0)
(0,0,0)
(0,0,0)
(0,0,0)
(0,0,0)
(0,0,0)
(0,0,0)
(0,0,0)
(0,0,0)
(0,0,0)
(0,0,0)
(0,0,0)
(0,0,0)
(0,0,0)
(0,0,0)
(0,0,0)
(0,0,0)
(0,0,0)
(0,0,0)
(0,0,0)
(0,0,0)
(0,0,0)
(0,0,0)
(0,0,0)
(0,0,0)
(0,0,0)
(0,0,0)
(0,0,0)
(0,0,0)
(0,0,0)
(0,0,0)
(0,0,0)
(0,0,0)
(0,0,0)
(0,0,0)
(0,0,0)
(0,0,0)
(0,0,0)
(0,0,0)
(0,0,0)
(0,0,0)
(0,0,0)
(0,0,0)
(0,0,0)
(0,0,0)
(0,0,0)
(0,0,0)
(0,0,0)
(0,0,0)
(0,0,0)
(0,0,0)
(0,0,0)
(0,0,0)
(0,0,0)
(0,0,0)
(0,0,0)
(0,0,0)
(0,0,0)
(0,0,0)
(0,0,0)
(0,0,0)
(0,0,0)
(0,0,0)
(0,0,0)
(0,0,0)
(0,0,0)
(0,0,0)
(0,0,0)
(0,0,0)
(0,0,0)
(0,0,0)
(0,0,0)
(0,0,0)
(0,0,0)
(0,0,0)
(0,0,0)
(0,0,0)
(0,0,0)
(0,0,0)
(0,0,0)
(0,0,0)
(0,0,0)
(0,0,0)
(0,0,0)
(0,0,0)
(0,0,0)
(0,0,0)
(0,0,0)
(0,0,0)
(0,0,0)
(0,0,0)
(0,0,0)
(0,0,0)
(0,0,0)
(0,0,0)
(0,0,0)
(0,0,0)
(0,0,0)
(0,0,0)
(0,0,0)
(0,0,0)
(0,0,0)
(0,0,0)
(0,0,0)
(0,0,0)
(0,0,0)
(0,0,0)
(0,0,0)
(0,0,0)
(0,0,0)
(0,0,0)
(0,0,0)
(0,0,0)
(0,0,0)
(0,0,0)
(0,0,0)
(0,0,0)
(0,0,0)
(0,0,0)
(0,0,0)
(0,0,0)
(0,0,0)
(0,0,0)
(0,0,0)
(0,0,0)
(0,0,0)
(0,0,0)
(0,0,0)
(0,0,0)
(0,0,0)
(0,0,0)
(0,0,0)
(0,0,0)
(0,0,0)
(0,0,0)
(0,0,0)
(0,0,0)
(0,0,0)
(0,0,0)
(0,0,0)
(0,0,0)
(0,0,0)
(0,0,0)
(0,0,0)
(0,0,0)
(0,0,0)
(0,0,0)
(0,0,0)
(0,0,0)
(0,0,0)
(0,0,0)
(0,0,0)
(0,0,0)
(0,0,0)
(0,0,0)
(0,0,0)
(0,0,0)
(0,0,0)
(0,0,0)
(0,0,0)
(0,0,0)
(0,0,0)
(0,0,0)
(0,0,0)
(0,0,0)
(0,0,0)
(0,0,0)
(0,0,0)
(0,0,0)
(0,0,0)
(0,0,0)
(0,0,0)
(0,0,0)
(0,0,0)
(0,0,0)
(0,0,0)
(0,0,0)
(0,0,0)
(0,0,0)
(0,0,0)
(0,0,0)
(0,0,0)
(0,0,0)
(0,0,0)
(0,0,0)
(0,0,0)
(0,0,0)
(0,0,0)
(0,0,0)
(0,0,0)
(0,0,0)
(0,0,0)
(0,0,0)
(0,0,0)
(0,0,0)
(0,0,0)
(0,0,0)
(0,0,0)
(0,0,0)
(0,0,0)
(0,0,0)
(0,0,0)
(0,0,0)
(0,0,0)
(0,0,0)
(0,0,0)
(0,0,0)
(0,0,0)
(0,0,0)
(0,0,0)
(0,0,0)
(0,0,0)
(0,0,0)
(0,0,0)
(0,0,0)
(0,0,0)
(0,0,0)
(0,0,0)
(0,0,0)
(0,0,0)
(0,0,0)
(0,0,0)
(0,0,0)
(0,0,0)
(0,0,0)
(0,0,0)
(0,0,0)
(0,0,0)
(0,0,0)
(0,0,0)
(0,0,0)
(0,0,0)
(0,0,0)
(0,0,0)
(0,0,0)
(0,0,0)
(0,0,0)
(0,0,0)
(0,0,0)
(0,0,0)
(0,0,0)
(0,0,0)
(0,0,0)
(0,0,0)
(0,0,0)
(0,0,0)
(0,0,0)
(0,0,0)
(0,0,0)
(0,0,0)
(0,0,0)
(0,0,0)
(0,0,0)
(0,0,0)
(0,0,0)
(0,0,0)
(0,0,0)
(0,0,0)
(0,0,0)
(0,0,0)
(0,0,0)
(0,0,0)
(0,0,0)
(0,0,0)
(0,0,0)
(0,0,0)
(0,0,0)
(0,0,0)
(0,0,0)
(0,0,0)
(0,0,0)
(0,0,0)
(0,0,0)
(0,0,0)
(0,0,0)
(0,0,0)
(0,0,0)
(0,0,0)
(0,0,0)
(0,0,0)
(0,0,0)
(0,0,0)
(0,0,0)
(0,0,0)
(0,0,0)
(0,0,0)
(0,0,0)
(0,0,0)
(0,0,0)
(0,0,0)
(0,0,0)
(0,0,0)
(0,0,0)
(0,0,0)
(0,0,0)
(0,0,0)
(0,0,0)
(0,0,0)
(0,0,0)
(0,0,0)
(0,0,0)
(0,0,0)
(0,0,0)
(0,0,0)
(0,0,0)
(0,0,0)
(0,0,0)
(0,0,0)
(0,0,0)
(0,0,0)
(0,0,0)
(0,0,0)
(0,0,0)
(0,0,0)
(0,0,0)
(0,0,0)
(0,0,0)
(0,0,0)
(0,0,0)
(0,0,0)
(0,0,0)
(0,0,0)
(0,0,0)
(0,0,0)
(0,0,0)
(0,0,0)
(0,0,0)
(0,0,0)
(0,0,0)
(0,0,0)
(0,0,0)
(0,0,0)
(0,0,0)
(0,0,0)
(0,0,0)
(0,0,0)
(0,0,0)
(0,0,0)
(0,0,0)
(0,0,0)
(0,0,0)
(0,0,0)
(0,0,0)
(0,0,0)
(0,0,0)
(0,0,0)
(0,0,0)
(0,0,0)
(0,0,0)
(0,0,0)
(0,0,0)
(0,0,0)
(0,0,0)
(0,0,0)
(0,0,0)
(0,0,0)
(0,0,0)
(0,0,0)
(0,0,0)
(0,0,0)
(0,0,0)
(0,0,0)
(0,0,0)
(0,0,0)
(0,0,0)
(0,0,0)
(0,0,0)
(0,0,0)
(0,0,0)
(0,0,0)
(0,0,0)
(0,0,0)
(0,0,0)
(0,0,0)
(0,0,0)
(0,0,0)
(0,0,0)
(0,0,0)
(0,0,0)
(0,0,0)
(0,0,0)
(0,0,0)
(0,0,0)
(0,0,0)
(0,0,0)
(0,0,0)
(0,0,0)
(0,0,0)
(0,0,0)
(0,0,0)
(0,0,0)
(0,0,0)
(0,0,0)
(0,0,0)
(0,0,0)
(0,0,0)
(0,0,0)
(0,0,0)
(0,0,0)
(0,0,0)
(-1.82184442624396e-13,7.40944712207379e-12,-7.49740318066853e-12)
(-9.76255926562058e-14,1.71976041969156e-11,-7.66193104715291e-12)
(-1.06426866851057e-13,3.019555004149e-11,-7.40281706865412e-12)
(-6.83679396249291e-13,4.83342448473947e-11,-6.58434326618617e-12)
(-8.02429467104376e-13,7.67728645207376e-11,-5.37752807189574e-12)
(-9.85490988877561e-13,1.20896730936127e-10,-3.90792538710077e-12)
(-3.72032415298309e-12,1.92611770965793e-10,-2.1266839451664e-12)
(-6.10654880088571e-12,3.14606201123081e-10,-1.22270008191041e-12)
(-8.14004916490555e-12,5.20182385767016e-10,-7.7057604206154e-13)
(-1.01581308298983e-11,8.06477495344851e-10,-2.26578084281225e-13)
(0,0,0)
(0,0,0)
(0,0,0)
(0,0,0)
(0,0,0)
(0,0,0)
(-7.08678147807846e-13,7.32450630951031e-12,-1.74778790141109e-11)
(-6.89459939128951e-13,1.64871118224052e-11,-1.76415547348708e-11)
(-1.02100355442958e-12,2.90657107511203e-11,-1.70446381625447e-11)
(-1.54422255636202e-12,4.70969772881634e-11,-1.54169308436826e-11)
(-1.66600806213967e-12,7.52328117176293e-11,-1.29052093998552e-11)
(-2.24737935751243e-12,1.19422861852908e-10,-9.70139049852407e-12)
(-5.91995638613443e-12,1.91757259911931e-10,-6.22360406103232e-12)
(-1.06726751163153e-11,3.14544675826693e-10,-3.78013693767191e-12)
(-1.43657437460701e-11,5.20030751038458e-10,-2.28488397035825e-12)
(-1.73812491552903e-11,8.06216747276312e-10,-9.93041857558886e-13)
(0,0,0)
(0,0,0)
(0,0,0)
(0,0,0)
(0,0,0)
(0,0,0)
(-1.71046156203066e-12,6.76611112187294e-12,-3.1674700600935e-11)
(-1.41876348107071e-12,1.52456001432186e-11,-3.17485901536906e-11)
(-9.27412947979593e-13,2.68135150184911e-11,-3.04053194888353e-11)
(-1.28952187189154e-12,4.40438450281918e-11,-2.76678542563432e-11)
(-1.74097007697995e-12,7.1567413394233e-11,-2.39325067792243e-11)
(-2.70001003595638e-12,1.1581926418243e-10,-1.88411792576281e-11)
(-5.87974417247938e-12,1.89260987531439e-10,-1.33573793427534e-11)
(-1.18730583948969e-11,3.13590578429662e-10,-9.50644552796181e-12)
(-1.67496983761845e-11,5.19326611609101e-10,-6.63820068023683e-12)
(-2.02406346033773e-11,8.05440781892478e-10,-3.39055481605566e-12)
(0,0,0)
(0,0,0)
(0,0,0)
(0,0,0)
(0,0,0)
(0,0,0)
(-9.77653342235026e-13,6.05646517609702e-12,-5.11090011115826e-11)
(-8.32888409959622e-13,1.352078361909e-11,-5.06946177732991e-11)
(1.13287479207104e-13,2.36252649563187e-11,-4.90492585883216e-11)
(1.51298670303955e-13,3.96331710378666e-11,-4.60224349627809e-11)
(-8.00202476240022e-13,6.58496627725989e-11,-4.13326721615171e-11)
(-1.77572279301199e-12,1.09836595744297e-10,-3.5040447917598e-11)
(-4.68670636453828e-12,1.85154986252757e-10,-2.80049624452919e-11)
(-1.06774777039122e-11,3.11276527484087e-10,-2.15678186753505e-11)
(-1.53131541460914e-11,5.16849212241534e-10,-1.55571962200255e-11)
(-1.8266271449527e-11,8.02448449096956e-10,-8.19999738955445e-12)
(0,0,0)
(0,0,0)
(0,0,0)
(0,0,0)
(0,0,0)
(0,0,0)
(-2.25186798444929e-13,5.38689723685453e-12,-7.7859205666664e-11)
(-1.10864193314784e-12,1.1584339751783e-11,-7.73574365445869e-11)
(-1.00483293869035e-12,1.99994628127849e-11,-7.59934028968844e-11)
(-4.41011180931635e-13,3.40163154836825e-11,-7.33606414726358e-11)
(-1.45018578077386e-12,5.84371266762936e-11,-6.87641367753529e-11)
(-3.07736550111151e-12,1.01807760542061e-10,-6.27182598035718e-11)
(-5.94262455358009e-12,1.7842893773463e-10,-5.5266556444669e-11)
(-9.21828184963129e-12,3.06342141619133e-10,-4.4560739002063e-11)
(-1.11307479383928e-11,5.11155752435327e-10,-3.20281009977424e-11)
(-1.2579477086585e-11,7.95617181182176e-10,-1.68112825715527e-11)
(0,0,0)
(0,0,0)
(0,0,0)
(0,0,0)
(0,0,0)
(0,0,0)
(-3.16831659379831e-13,4.99159471820528e-12,-1.20123141117583e-10)
(-1.85542315051454e-12,9.36970479898701e-12,-1.19696216966705e-10)
(-1.94341931645005e-12,1.57875379059012e-11,-1.19084805426197e-10)
(-1.39101709706877e-12,2.77702398336961e-11,-1.17250137931222e-10)
(-2.80841082677034e-12,5.02531579845113e-11,-1.13223157772284e-10)
(-4.39730342062708e-12,9.21893587808561e-11,-1.07143774139702e-10)
(-5.65647957967098e-12,1.6896013169986e-10,-9.77646907432366e-11)
(-7.25562196525635e-12,2.95593755473932e-10,-8.2093614178422e-11)
(-7.53911778927574e-12,4.97977447050546e-10,-5.98852271789161e-11)
(-7.42315608819557e-12,7.80626981668372e-10,-3.1918270701744e-11)
(0,0,0)
(0,0,0)
(0,0,0)
(0,0,0)
(0,0,0)
(0,0,0)
(-4.66246135566902e-13,4.0543349582392e-12,-1.90434053573242e-10)
(-1.80446009428996e-12,7.06843595909885e-12,-1.89914568701744e-10)
(-2.96272272081632e-12,1.18555000317371e-11,-1.89366192761597e-10)
(-3.58674547672149e-12,2.17685969382714e-11,-1.8811015100739e-10)
(-5.83779789551392e-12,4.16646602231893e-11,-1.84948395907772e-10)
(-7.27556238874278e-12,8.04080319272336e-11,-1.7860052778855e-10)
(-6.24737419278631e-12,1.53940892141228e-10,-1.65485619961835e-10)
(-6.05346494890619e-12,2.75004252392116e-10,-1.43094135717894e-10)
(-4.66783862723263e-12,4.71862590343507e-10,-1.07106705113715e-10)
(-3.63765579278763e-12,7.50877601935018e-10,-5.86085384983649e-11)
(0,0,0)
(0,0,0)
(0,0,0)
(0,0,0)
(0,0,0)
(0,0,0)
(-1.21773186246822e-12,2.69869217944051e-12,-3.09638343393771e-10)
(-2.56807977044633e-12,4.90223378655063e-12,-3.09135900250317e-10)
(-5.06017253073828e-12,8.72663324730257e-12,-3.08531265341641e-10)
(-6.97488705631373e-12,1.69789937563464e-11,-3.07626432265647e-10)
(-9.50479273429567e-12,3.43379324110713e-11,-3.0502470733853e-10)
(-1.07269939555966e-11,6.84369602031743e-11,-2.97611716269764e-10)
(-8.39533197684885e-12,1.32228841802203e-10,-2.80387722453665e-10)
(-6.51976157828484e-12,2.40358088994455e-10,-2.47118883010627e-10)
(-3.83393349904621e-12,4.2503507419981e-10,-1.91700807187425e-10)
(-2.48200489196525e-12,6.94688025896045e-10,-1.09136403707361e-10)
(0,0,0)
(0,0,0)
(0,0,0)
(0,0,0)
(0,0,0)
(0,0,0)
(-2.28327084763341e-12,1.66192843116598e-12,-5.12554040855062e-10)
(-4.68531580887956e-12,3.35412839547692e-12,-5.12049549898708e-10)
(-7.38021311688367e-12,6.37051486854035e-12,-5.11291104263358e-10)
(-1.0525489511421e-11,1.26466335899429e-11,-5.09808696819275e-10)
(-1.30981061055986e-11,2.58814693887926e-11,-5.06086649257688e-10)
(-1.36365338027201e-11,5.15370375764299e-11,-4.9625627236362e-10)
(-1.03193755730278e-11,9.94834287407972e-11,-4.73884626389026e-10)
(-6.53253847434344e-12,1.85872261686129e-10,-4.29105168760001e-10)
(-2.9010352982814e-12,3.43910925222016e-10,-3.47788468421284e-10)
(-1.73121135363989e-12,5.87778385753118e-10,-2.09453835262841e-10)
(0,0,0)
(0,0,0)
(0,0,0)
(0,0,0)
(0,0,0)
(0,0,0)
(-3.54566587253467e-12,7.85140950917007e-13,-7.97585365390147e-10)
(-7.77372656189352e-12,1.92193589314308e-12,-7.97229653396747e-10)
(-1.01946352276741e-11,3.6580944920612e-12,-7.96356613727475e-10)
(-1.33399099022525e-11,6.85117910881963e-12,-7.941071644486e-10)
(-1.56048698957249e-11,1.40581368146824e-11,-7.89485408011673e-10)
(-1.54404293571906e-11,2.80084528944484e-11,-7.77834637766359e-10)
(-1.21078577749506e-11,5.4508882953222e-11,-7.51286436678929e-10)
(-7.30124826864321e-12,1.05447273281686e-10,-6.9698998467046e-10)
(-3.02360540830029e-12,2.07020473742282e-10,-5.90767950952353e-10)
(-9.16264042676933e-13,3.80651514447847e-10,-3.82756729493315e-10)
(0,0,0)
(0,0,0)
(0,0,0)
(0,0,0)
(0,0,0)
(0,0,0)
(0,0,0)
(0,0,0)
(0,0,0)
(0,0,0)
(0,0,0)
(0,0,0)
(0,0,0)
(0,0,0)
(0,0,0)
(0,0,0)
(0,0,0)
(0,0,0)
(0,0,0)
(0,0,0)
(0,0,0)
(0,0,0)
(0,0,0)
(0,0,0)
(0,0,0)
(0,0,0)
(0,0,0)
(0,0,0)
(0,0,0)
(0,0,0)
(0,0,0)
(0,0,0)
(0,0,0)
(0,0,0)
(0,0,0)
(0,0,0)
(0,0,0)
(0,0,0)
(0,0,0)
(0,0,0)
(0,0,0)
(0,0,0)
(0,0,0)
(0,0,0)
(0,0,0)
(0,0,0)
(0,0,0)
(0,0,0)
(0,0,0)
(0,0,0)
(0,0,0)
(0,0,0)
(0,0,0)
(0,0,0)
(0,0,0)
(0,0,0)
(0,0,0)
(0,0,0)
(0,0,0)
(0,0,0)
(0,0,0)
(0,0,0)
(0,0,0)
(0,0,0)
(0,0,0)
(0,0,0)
(0,0,0)
(0,0,0)
(0,0,0)
(0,0,0)
(0,0,0)
(0,0,0)
(0,0,0)
(0,0,0)
(0,0,0)
(0,0,0)
(0,0,0)
(0,0,0)
(0,0,0)
(0,0,0)
(0,0,0)
(0,0,0)
(0,0,0)
(0,0,0)
(0,0,0)
(0,0,0)
(0,0,0)
(0,0,0)
(0,0,0)
(0,0,0)
(0,0,0)
(0,0,0)
(0,0,0)
(0,0,0)
(0,0,0)
(0,0,0)
(0,0,0)
(0,0,0)
(0,0,0)
(0,0,0)
(0,0,0)
(0,0,0)
(6.72842364275572e-14,1.38221813850161e-11,-1.46303277124636e-11)
(3.53752803348605e-13,3.24255666022006e-11,-1.48240070044946e-11)
(2.04938621042485e-13,5.61083833917184e-11,-1.37968095510655e-11)
(-6.53227031323776e-13,8.86689581543663e-11,-1.18090411306015e-11)
(-7.31979348821052e-13,1.38660171216611e-10,-9.19597873669917e-12)
(-1.29286334752054e-12,2.158537862542e-10,-5.92900773214122e-12)
(-3.76979696230507e-12,3.38573223727603e-10,-2.41561723348801e-12)
(-6.4971475445806e-12,5.50732204550873e-10,-8.97169180828387e-13)
(-8.53241239419154e-12,9.6070393797632e-10,-5.73808933625518e-13)
(-1.01239608459137e-11,1.89876107872817e-09,-1.65716292713729e-13)
(0,0,0)
(0,0,0)
(0,0,0)
(0,0,0)
(0,0,0)
(0,0,0)
(1.33927605901904e-14,1.38236652446653e-11,-3.40373950590996e-11)
(-4.4864832264113e-14,3.12573580654869e-11,-3.3855554890781e-11)
(-3.96515140649944e-13,5.4035249655161e-11,-3.16885984370274e-11)
(-1.0028117402145e-12,8.59192461828528e-11,-2.75301363413175e-11)
(-1.20442864003763e-12,1.35559600189095e-10,-2.16620357163582e-11)
(-2.12156812452068e-12,2.12983074457941e-10,-1.43747501016436e-11)
(-5.86715112905864e-12,3.37149539583268e-10,-6.98837593409973e-12)
(-1.12138306864954e-11,5.50506064165248e-10,-3.31014424570905e-12)
(-1.49534464291822e-11,9.60406000183185e-10,-2.17107910039199e-12)
(-1.75983256288594e-11,1.89823807981324e-09,-1.08383450033703e-12)
(0,0,0)
(0,0,0)
(0,0,0)
(0,0,0)
(0,0,0)
(0,0,0)
(-9.26926063497941e-13,1.29743480819488e-11,-6.04390047311165e-11)
(-1.0372176217966e-12,2.88787421217228e-11,-5.98086947274115e-11)
(-4.76628118286966e-13,4.97055439765785e-11,-5.62300700373267e-11)
(-6.14195358685582e-13,7.96765788169772e-11,-4.99180571559976e-11)
(-1.1145469770005e-12,1.28210758190325e-10,-4.1350900283588e-11)
(-2.2011415127278e-12,2.06034926868262e-10,-2.95566669105705e-11)
(-5.62467670858387e-12,3.33602001671095e-10,-1.682283771256e-11)
(-1.24272522970774e-11,5.49978364447054e-10,-1.05587006338834e-11)
(-1.75199448729585e-11,9.59979627182994e-10,-7.74290340828547e-12)
(-2.06388566240316e-11,1.89739871497356e-09,-4.18781958839633e-12)
(0,0,0)
(0,0,0)
(0,0,0)
(0,0,0)
(0,0,0)
(0,0,0)
(-7.22468741277124e-13,1.12191092570455e-11,-9.52774770653588e-11)
(-5.41803727629412e-13,2.48517078294765e-11,-9.41464873602673e-11)
(7.12265997192985e-13,4.30419789749353e-11,-9.02261288513023e-11)
(1.07839142322757e-12,7.02199814675831e-11,-8.31831872893924e-11)
(3.20109376146173e-13,1.15684996711029e-10,-7.29030671439928e-11)
(-7.82373063063105e-13,1.92803029783316e-10,-5.82053655144667e-11)
(-4.39780161637853e-12,3.26488823627103e-10,-4.15581601795019e-11)
(-1.1753714294325e-11,5.48798529244023e-10,-3.12289256209325e-11)
(-1.69768931700713e-11,9.5835910693478e-10,-2.31132785095112e-11)
(-1.96350009242269e-11,1.89450440564809e-09,-1.24591431925396e-11)
(0,0,0)
(0,0,0)
(0,0,0)
(0,0,0)
(0,0,0)
(0,0,0)
(-3.31653401873679e-13,9.02919127856497e-12,-1.42244509941746e-10)
(-2.58040628057247e-13,1.98919337755744e-11,-1.41306567061915e-10)
(5.74330543942613e-13,3.46966491773116e-11,-1.37804095104786e-10)
(1.20855977178191e-12,5.76967641707627e-11,-1.31504181613485e-10)
(6.87905939249787e-13,9.7923550730269e-11,-1.2213147427598e-10)
(-9.106670988582e-13,1.7173833258441e-10,-1.10170576794963e-10)
(-7.17963596132797e-12,3.1031338697164e-10,-9.8793422644275e-11)
(-1.10025337086729e-11,5.4294246646858e-10,-7.74922296658453e-11)
(-1.31692609797462e-11,9.50828136734514e-10,-5.50386638876797e-11)
(-1.44005601447829e-11,1.88441827032778e-09,-2.88974990453227e-11)
(0,0,0)
(0,0,0)
(0,0,0)
(0,0,0)
(0,0,0)
(0,0,0)
(1.93503949708362e-13,7.89196857206157e-12,-2.15060255675494e-10)
(-1.65565851133808e-13,1.5435818668227e-11,-2.13950460711501e-10)
(1.53951062735837e-13,2.62855644351194e-11,-2.1169340355614e-10)
(5.83645639409951e-13,4.47252185419259e-11,-2.07543799859915e-10)
(-2.99296698032441e-13,7.97315934637212e-11,-2.00461036658287e-10)
(-1.99505996348185e-12,1.50292256226549e-10,-1.90053610323344e-10)
(-6.30831658580694e-12,2.94766046301394e-10,-1.75820010278049e-10)
(-8.87450588292515e-12,5.26179798827312e-10,-1.46854123323192e-10)
(-9.39121755940513e-12,9.29127379248373e-10,-1.0616602657485e-10)
(-9.59204705617065e-12,1.85928499282278e-09,-5.62125730385102e-11)
(0,0,0)
(0,0,0)
(0,0,0)
(0,0,0)
(0,0,0)
(0,0,0)
(3.69911771733642e-13,6.83323226361274e-12,-3.34106735494569e-10)
(-1.86633861889327e-13,1.21217387985424e-11,-3.32675433347893e-10)
(-1.08989769058693e-12,1.97258421656511e-11,-3.31030037296289e-10)
(-1.95889739441445e-12,3.3985908937652e-11,-3.28947056613866e-10)
(-4.85893820260776e-12,6.30713027980096e-11,-3.24943926289771e-10)
(-8.41939849137499e-12,1.26252739420882e-10,-3.16405404138211e-10)
(-6.92680809768412e-12,2.69036317340446e-10,-2.91861554872118e-10)
(-7.39473215547969e-12,4.90871402905447e-10,-2.55993027450698e-10)
(-6.33848909915743e-12,8.84050293365915e-10,-1.89801090421808e-10)
(-6.05661825175631e-12,1.80794009739827e-09,-1.02806432469277e-10)
(0,0,0)
(0,0,0)
(0,0,0)
(0,0,0)
(0,0,0)
(0,0,0)
(-6.83411257647554e-13,5.21263473277146e-12,-5.40099739389277e-10)
(-1.62460928804904e-12,9.19353897504744e-12,-5.3888706658667e-10)
(-3.60888722796966e-12,1.51154881522836e-11,-5.37657630819384e-10)
(-5.24425181702857e-12,2.73481772521055e-11,-5.36669719721104e-10)
(-8.46132078080135e-12,5.40973822608755e-11,-5.33681653996716e-10)
(-1.10510651449392e-11,1.12596503665212e-10,-5.24245809409825e-10)
(-8.91875835849039e-12,2.33668850439919e-10,-4.97495241436229e-10)
(-7.45201009328883e-12,4.27160988370129e-10,-4.37970023828639e-10)
(-5.27418800114427e-12,8.00619947422586e-10,-3.38518545546076e-10)
(-4.70876845691728e-12,1.70915268142083e-09,-1.9316215607296e-10)
(0,0,0)
(0,0,0)
(0,0,0)
(0,0,0)
(0,0,0)
(0,0,0)
(-1.91097432373843e-12,3.71925611839949e-12,-9.45150510545611e-10)
(-4.0115689418947e-12,6.70309353551886e-12,-9.44116384464482e-10)
(-6.15020018448594e-12,1.12534601914576e-11,-9.42997848381936e-10)
(-8.45208259187997e-12,2.09176806346925e-11,-9.41354400678247e-10)
(-1.11051504255479e-11,4.21327907174127e-11,-9.36087947922686e-10)
(-1.24795950953499e-11,8.68644059958662e-11,-9.21061742634427e-10)
(-1.01242874144762e-11,1.74182200606427e-10,-8.84213893418645e-10)
(-7.42425040860755e-12,3.28669479802391e-10,-8.05844275851176e-10)
(-4.34521697705712e-12,6.57629840599398e-10,-6.63861590260784e-10)
(-4.05817531096819e-12,1.51886250988733e-09,-4.15504361886129e-10)
(0,0,0)
(0,0,0)
(0,0,0)
(0,0,0)
(0,0,0)
(0,0,0)
(-3.11623691501804e-12,2.00980414432014e-12,-1.88155855435758e-09)
(-6.72483033802189e-12,3.82491759284884e-12,-1.88086327261107e-09)
(-8.78599001448833e-12,6.40092135534979e-12,-1.87960036737786e-09)
(-1.11104872303594e-11,1.15768302072615e-11,-1.87653203857562e-09)
(-1.31975033263598e-11,2.33692062117293e-11,-1.86901157065299e-09)
(-1.39801775501763e-11,4.77747531244742e-11,-1.84966269865653e-09)
(-1.18954268302052e-11,9.50648548980805e-11,-1.80467775363255e-09)
(-8.0760087050527e-12,1.87369002134803e-10,-1.71078756591347e-09)
(-4.01435312506183e-12,4.11551939315609e-10,-1.52317155560702e-09)
(-3.0214790881128e-12,1.10641980398812e-09,-1.1096946427795e-09)
(0,0,0)
(0,0,0)
(0,0,0)
(0,0,0)
(0,0,0)
(0,0,0)
(0,0,0)
(0,0,0)
(0,0,0)
(0,0,0)
(0,0,0)
(0,0,0)
(0,0,0)
(0,0,0)
(0,0,0)
(0,0,0)
(0,0,0)
(0,0,0)
(0,0,0)
(0,0,0)
(0,0,0)
(0,0,0)
(0,0,0)
(0,0,0)
(0,0,0)
(0,0,0)
(0,0,0)
(0,0,0)
(0,0,0)
(0,0,0)
(0,0,0)
(0,0,0)
(0,0,0)
(0,0,0)
(0,0,0)
(0,0,0)
(0,0,0)
(0,0,0)
(0,0,0)
(0,0,0)
(0,0,0)
(0,0,0)
(0,0,0)
(0,0,0)
(0,0,0)
(0,0,0)
(0,0,0)
(0,0,0)
(0,0,0)
(0,0,0)
(0,0,0)
(0,0,0)
(0,0,0)
(0,0,0)
(0,0,0)
(0,0,0)
(0,0,0)
(0,0,0)
(0,0,0)
(0,0,0)
(0,0,0)
(0,0,0)
(0,0,0)
(0,0,0)
(0,0,0)
(0,0,0)
(0,0,0)
(0,0,0)
(0,0,0)
(0,0,0)
(0,0,0)
(0,0,0)
(0,0,0)
(0,0,0)
(0,0,0)
(0,0,0)
(0,0,0)
(0,0,0)
(0,0,0)
(0,0,0)
(0,0,0)
(0,0,0)
(0,0,0)
(0,0,0)
(0,0,0)
(0,0,0)
(0,0,0)
(0,0,0)
(0,0,0)
(0,0,0)
(0,0,0)
(0,0,0)
(0,0,0)
(0,0,0)
(0,0,0)
(0,0,0)
(0,0,0)
(0,0,0)
(0,0,0)
(0,0,0)
(0,0,0)
(0,0,0)
(2.59479668879326e-13,1.94592670509137e-11,-2.10309402979886e-11)
(4.94763886092455e-13,4.39345425123102e-11,-2.06567430270295e-11)
(2.903039374848e-13,7.47900107147528e-11,-1.86251970640049e-11)
(-5.16577453202293e-13,1.1624180407172e-10,-1.53612876480759e-11)
(-8.98379326317197e-13,1.77228637936522e-10,-1.09994062586377e-11)
(-1.93554204989286e-12,2.67458478027179e-10,-5.15183869705594e-12)
(-3.86456087091494e-12,3.99576219634402e-10,7.60600381912294e-13)
(-6.59436740626259e-12,5.93557000178954e-10,2.6948921759869e-12)
(-8.64256724179367e-12,8.73078878716975e-10,1.90041528367047e-12)
(-9.76667822385666e-12,1.21386276051916e-09,8.96353407395743e-13)
(0,0,0)
(0,0,0)
(0,0,0)
(0,0,0)
(0,0,0)
(0,0,0)
(6.80869755228546e-13,1.88934077784313e-11,-4.71691591256568e-11)
(1.66794657216269e-13,4.19735925319106e-11,-4.59458439868255e-11)
(-2.25271558038012e-13,7.13947213424048e-11,-4.21118694823513e-11)
(-6.28244999012972e-13,1.11600137181571e-10,-3.52488217628874e-11)
(-1.14287225560893e-12,1.7180563097543e-10,-2.50461902761569e-11)
(-2.55979470244165e-12,2.62602197981068e-10,-1.15879724887205e-11)
(-5.9978449066296e-12,3.983915830972e-10,1.77615539859557e-12)
(-1.1825196112194e-11,5.94888958174054e-10,5.21815097349886e-12)
(-1.56143180293843e-11,8.7432087529682e-10,3.16943114563923e-12)
(-1.78427952892959e-11,1.21456360413699e-09,1.28570384330798e-12)
(0,0,0)
(0,0,0)
(0,0,0)
(0,0,0)
(0,0,0)
(0,0,0)
(1.98002756428979e-13,1.72151805771335e-11,-8.14142904910507e-11)
(-5.88808018620787e-13,3.78762168490159e-11,-7.94187182276371e-11)
(-1.25075997555563e-13,6.42942046104254e-11,-7.36082523694362e-11)
(2.75245118079263e-13,1.01274569857742e-10,-6.34002605166685e-11)
(-3.83018871511532e-13,1.5919519502258e-10,-4.78225728371499e-11)
(-1.70307362575123e-12,2.5112888569806e-10,-2.47641876931373e-11)
(-4.77563574198347e-12,3.96475561412484e-10,1.46902310097377e-12)
(-1.40632143207484e-11,5.98862870255578e-10,4.8795741575862e-12)
(-1.94545084439562e-11,8.77569654905649e-10,7.39115424779549e-13)
(-2.19323668873784e-11,1.21644135007406e-09,-8.68003319958689e-13)
(0,0,0)
(0,0,0)
(0,0,0)
(0,0,0)
(0,0,0)
(0,0,0)
(3.36459531734077e-13,1.47197474397865e-11,-1.25628203970924e-10)
(4.97611818074325e-13,3.1524983421738e-11,-1.23278825538236e-10)
(2.01465423251933e-12,5.35694072732715e-11,-1.16834083466136e-10)
(3.32148857414117e-12,8.53639326675091e-11,-1.04866478324167e-10)
(3.3838537280507e-12,1.36762417591406e-10,-8.58194235509144e-11)
(3.63511880082484e-12,2.25781633526879e-10,-5.55238577648359e-11)
(1.44840048044297e-12,3.90689907977887e-10,-1.44057351603167e-11)
(-1.40132986306644e-11,6.07515441952245e-10,-1.35040116490116e-11)
(-2.0100058286431e-11,8.82988149388323e-10,-1.57001132144792e-11)
(-2.20080087961775e-11,1.21784426482302e-09,-1.01980179743026e-11)
(0,0,0)
(0,0,0)
(0,0,0)
(0,0,0)
(0,0,0)
(0,0,0)
(-1.32373575251039e-13,1.18184095086529e-11,-1.83226883575591e-10)
(6.95602522658192e-13,2.44722285021255e-11,-1.81526253868719e-10)
(2.68550179441921e-12,4.09269091466535e-11,-1.75930759685694e-10)
(4.80739806270476e-12,6.50653541026569e-11,-1.65406137891864e-10)
(6.918965726002e-12,1.04238354795149e-10,-1.49177492067822e-10)
(9.1582551077674e-12,1.76903729060419e-10,-1.29080113301799e-10)
(-1.2933488269928e-11,3.48790573760091e-10,-1.32510039302422e-10)
(-1.66934318464636e-11,6.17472536585042e-10,-8.84426196793469e-11)
(-1.76096683342973e-11,8.84084043253418e-10,-6.10708565482236e-11)
(-1.81647816853957e-11,1.21131713219508e-09,-3.20670249630012e-11)
(0,0,0)
(0,0,0)
(0,0,0)
(0,0,0)
(0,0,0)
(0,0,0)
(1.42445294719795e-13,9.54692400812576e-12,-2.67255884549239e-10)
(8.91456862653804e-13,1.78613126314034e-11,-2.6549836984411e-10)
(2.56406963565597e-12,2.85619643181405e-11,-2.61829848294833e-10)
(4.24019204309782e-12,4.47240819754491e-11,-2.5523074289171e-10)
(5.95356763202347e-12,7.28328562023158e-11,-2.45023164338727e-10)
(7.81085679708116e-12,1.38340310035483e-10,-2.31414247552511e-10)
(-9.5444745796764e-12,3.46519327778554e-10,-2.30047164980106e-10)
(-1.42542067098757e-11,6.07400033787036e-10,-1.8400308443841e-10)
(-1.42675852130782e-11,8.63240232206451e-10,-1.28765381413144e-10)
(-1.44597246704528e-11,1.18391061015078e-09,-6.67247170851807e-11)
(0,0,0)
(0,0,0)
(0,0,0)
(0,0,0)
(0,0,0)
(0,0,0)
(5.59207156420096e-13,7.56203028496738e-12,-3.91161170016108e-10)
(1.09616990965028e-12,1.27834438452777e-11,-3.89722049653902e-10)
(1.4374756400773e-12,1.90066780494015e-11,-3.88018023239502e-10)
(6.7570396733739e-13,2.83655133106808e-11,-3.86387699908942e-10)
(-4.42353981675559e-12,4.35302777820277e-11,-3.86756529392782e-10)
(-1.93070120019823e-11,8.42197132269961e-11,-3.90946164938485e-10)
(-7.42786861848467e-12,3.17524345394038e-10,-3.4070355671926e-10)
(-9.8762546492922e-12,5.67204230186704e-10,-3.27894497767832e-10)
(-9.90280110795682e-12,8.0895462422221e-10,-2.28851177519868e-10)
(-1.00756347436675e-11,1.12204368029982e-09,-1.18222112585803e-10)
(0,0,0)
(0,0,0)
(0,0,0)
(0,0,0)
(0,0,0)
(0,0,0)
(-4.02705445609567e-13,5.73180611160429e-12,-5.74801448764008e-10)
(-3.63599616020788e-13,9.35307435804658e-12,-5.74137328530312e-10)
(-7.34770366017845e-13,1.40756791063048e-11,-5.73820040237316e-10)
(-1.80182092290468e-12,2.3315461179812e-11,-5.74356064197696e-10)
(-5.93257382464007e-12,4.47245091856091e-11,-5.76731401619716e-10)
(-1.20695354491918e-11,1.07024631948181e-10,-5.80610473991702e-10)
(-8.95732613196043e-12,2.89437463848626e-10,-5.66680334354854e-10)
(-8.41197980924618e-12,4.71309952477835e-10,-4.84042384988513e-10)
(-7.64047065087292e-12,7.02607266071087e-10,-3.54188707012228e-10)
(-7.58075299619774e-12,1.00754373497197e-09,-1.9164815795216e-10)
(0,0,0)
(0,0,0)
(0,0,0)
(0,0,0)
(0,0,0)
(0,0,0)
(-1.23564843139108e-12,4.26201951400299e-12,-8.47443334045485e-10)
(-2.25192908175825e-12,6.68257694972458e-12,-8.46629037195608e-10)
(-2.94110905208596e-12,1.07118625376384e-11,-8.46650541826452e-10)
(-4.37768491986387e-12,2.00097001859818e-11,-8.46493731891346e-10)
(-7.36777120755321e-12,4.12506229204343e-11,-8.4389494281119e-10)
(-1.02377914398466e-11,9.361311694053e-11,-8.33912751805905e-10)
(-9.37655927391733e-12,2.04530396410692e-10,-7.98916274831199e-10)
(-8.10645833194796e-12,3.42456557453151e-10,-7.04256055122501e-10)
(-6.62454406723124e-12,5.42384739583443e-10,-5.4701434655213e-10)
(-7.11983129807378e-12,8.18177642777272e-10,-3.14706031203108e-10)
(0,0,0)
(0,0,0)
(0,0,0)
(0,0,0)
(0,0,0)
(0,0,0)
(-1.80171451750756e-12,2.32334349571829e-12,-1.18658185965114e-09)
(-4.16281797906372e-12,3.63581166348964e-12,-1.18548288098296e-09)
(-5.45339746081505e-12,6.19503124906935e-12,-1.18503511222235e-09)
(-7.05412494634494e-12,1.20054651792084e-11,-1.18302089731833e-09)
(-9.17716911054689e-12,2.47190113570207e-11,-1.17597511763844e-09)