/*--------------------------------*- C++ -*----------------------------------*\
| =========                 |                                                 |
| \\      /  F ield         | foam-extend: Open Source CFD                    |
|  \\    /   O peration     | Version:     4.0                                |
|   \\  /    A nd           | Web:         http://www.foam-extend.org         |
|    \\/     M anipulation  |                                                 |
\*---------------------------------------------------------------------------*/
FoamFile
{
    version 2.0;
    format ascii;
    class volVectorField;
    location "711";
    object      E;
}
// * * * * * * * * * * * * * * * * * * * * * * * * * * * * * * * * * * * * * //

dimensions      [0 1 -1 0 0 0 0];

internalField   nonuniform List<vector>
4096
(
(0,0,0)
(0,0,0)
(0,0,0)
(0,0,0)
(0,0,0)
(0,0,0)
(0,0,0)
(0,0,0)
(0,0,0)
(0,0,0)
(0,0,0)
(0,0,0)
(0,0,0)
(0,0,0)
(0,0,0)
(0,0,0)
(0,0,0)
(0,0,0)
(0,0,0)
(0,0,0)
(0,0,0)
(0,0,0)
(0,0,0)
(0,0,0)
(0,0,0)
(0,0,0)
(0,0,0)
(0,0,0)
(0,0,0)
(0,0,0)
(0,0,0)
(0,0,0)
(0,0,0)
(0,0,0)
(0,0,0)
(0,0,0)
(0,0,0)
(0,0,0)
(0,0,0)
(0,0,0)
(0,0,0)
(0,0,0)
(0,0,0)
(0,0,0)
(0,0,0)
(0,0,0)
(0,0,0)
(0,0,0)
(0,0,0)
(0,0,0)
(0,0,0)
(0,0,0)
(0,0,0)
(0,0,0)
(0,0,0)
(0,0,0)
(0,0,0)
(0,0,0)
(0,0,0)
(0,0,0)
(0,0,0)
(0,0,0)
(0,0,0)
(0,0,0)
(0,0,0)
(0,0,0)
(0,0,0)
(0,0,0)
(0,0,0)
(0,0,0)
(0,0,0)
(0,0,0)
(0,0,0)
(0,0,0)
(0,0,0)
(0,0,0)
(0,0,0)
(0,0,0)
(0,0,0)
(0,0,0)
(0,0,0)
(0,0,0)
(0,0,0)
(0,0,0)
(0,0,0)
(0,0,0)
(0,0,0)
(0,0,0)
(0,0,0)
(0,0,0)
(0,0,0)
(0,0,0)
(0,0,0)
(0,0,0)
(0,0,0)
(0,0,0)
(0,0,0)
(0,0,0)
(0,0,0)
(0,0,0)
(0,0,0)
(0,0,0)
(0,0,0)
(0,0,0)
(0,0,0)
(0,0,0)
(0,0,0)
(0,0,0)
(0,0,0)
(0,0,0)
(0,0,0)
(0,0,0)
(0,0,0)
(0,0,0)
(0,0,0)
(0,0,0)
(0,0,0)
(0,0,0)
(0,0,0)
(0,0,0)
(0,0,0)
(0,0,0)
(0,0,0)
(0,0,0)
(0,0,0)
(0,0,0)
(0,0,0)
(0,0,0)
(0,0,0)
(0,0,0)
(0,0,0)
(0,0,0)
(0,0,0)
(0,0,0)
(0,0,0)
(0,0,0)
(0,0,0)
(0,0,0)
(0,0,0)
(0,0,0)
(0,0,0)
(0,0,0)
(0,0,0)
(0,0,0)
(0,0,0)
(0,0,0)
(0,0,0)
(0,0,0)
(0,0,0)
(0,0,0)
(0,0,0)
(0,0,0)
(0,0,0)
(0,0,0)
(0,0,0)
(0,0,0)
(0,0,0)
(0,0,0)
(0,0,0)
(0,0,0)
(0,0,0)
(0,0,0)
(0,0,0)
(0,0,0)
(0,0,0)
(0,0,0)
(0,0,0)
(0,0,0)
(0,0,0)
(0,0,0)
(0,0,0)
(0,0,0)
(0,0,0)
(0,0,0)
(0,0,0)
(0,0,0)
(0,0,0)
(0,0,0)
(0,0,0)
(0,0,0)
(0,0,0)
(0,0,0)
(0,0,0)
(0,0,0)
(0,0,0)
(0,0,0)
(0,0,0)
(0,0,0)
(0,0,0)
(0,0,0)
(0,0,0)
(0,0,0)
(0,0,0)
(0,0,0)
(0,0,0)
(0,0,0)
(0,0,0)
(0,0,0)
(0,0,0)
(0,0,0)
(0,0,0)
(0,0,0)
(0,0,0)
(0,0,0)
(0,0,0)
(0,0,0)
(0,0,0)
(0,0,0)
(0,0,0)
(0,0,0)
(0,0,0)
(0,0,0)
(0,0,0)
(0,0,0)
(0,0,0)
(0,0,0)
(0,0,0)
(0,0,0)
(0,0,0)
(0,0,0)
(0,0,0)
(0,0,0)
(0,0,0)
(0,0,0)
(0,0,0)
(0,0,0)
(0,0,0)
(0,0,0)
(0,0,0)
(0,0,0)
(0,0,0)
(0,0,0)
(0,0,0)
(0,0,0)
(0,0,0)
(0,0,0)
(0,0,0)
(0,0,0)
(0,0,0)
(0,0,0)
(0,0,0)
(0,0,0)
(0,0,0)
(0,0,0)
(0,0,0)
(0,0,0)
(0,0,0)
(0,0,0)
(0,0,0)
(0,0,0)
(0,0,0)
(0,0,0)
(0,0,0)
(0,0,0)
(0,0,0)
(0,0,0)
(0,0,0)
(0,0,0)
(0,0,0)
(0,0,0)
(0,0,0)
(0,0,0)
(0,0,0)
(0,0,0)
(0,0,0)
(0,0,0)
(0,0,0)
(0,0,0)
(0,0,0)
(0,0,0)
(0,0,0)
(0,0,0)
(0,0,0)
(0,0,0)
(0,0,0)
(0,0,0)
(0,0,0)
(0,0,0)
(0,0,0)
(0,0,0)
(0,0,0)
(0,0,0)
(0,0,0)
(0,0,0)
(0,0,0)
(0,0,0)
(0,0,0)
(0,0,0)
(0,0,0)
(0,0,0)
(0,0,0)
(0,0,0)
(0,0,0)
(0,0,0)
(0,0,0)
(0,0,0)
(0,0,0)
(0,0,0)
(0,0,0)
(0,0,0)
(0,0,0)
(0,0,0)
(0,0,0)
(0,0,0)
(0,0,0)
(0,0,0)
(0,0,0)
(0,0,0)
(0,0,0)
(0,0,0)
(0,0,0)
(0,0,0)
(0,0,0)
(0,0,0)
(0,0,0)
(0,0,0)
(0,0,0)
(0,0,0)
(0,0,0)
(0,0,0)
(0,0,0)
(0,0,0)
(0,0,0)
(0,0,0)
(0,0,0)
(0,0,0)
(0,0,0)
(0,0,0)
(0,0,0)
(0,0,0)
(0,0,0)
(0,0,0)
(0,0,0)
(0,0,0)
(0,0,0)
(0,0,0)
(0,0,0)
(0,0,0)
(0,0,0)
(0,0,0)
(0,0,0)
(0,0,0)
(0,0,0)
(0,0,0)
(0,0,0)
(0,0,0)
(0,0,0)
(0,0,0)
(0,0,0)
(0,0,0)
(0,0,0)
(0,0,0)
(0,0,0)
(0,0,0)
(0,0,0)
(0,0,0)
(0,0,0)
(0,0,0)
(0,0,0)
(0,0,0)
(0,0,0)
(0,0,0)
(0,0,0)
(0,0,0)
(0,0,0)
(0,0,0)
(0,0,0)
(0,0,0)
(0,0,0)
(0,0,0)
(0,0,0)
(0,0,0)
(0,0,0)
(0,0,0)
(0,0,0)
(0,0,0)
(0,0,0)
(0,0,0)
(0,0,0)
(0,0,0)
(0,0,0)
(0,0,0)
(0,0,0)
(0,0,0)
(0,0,0)
(0,0,0)
(0,0,0)
(0,0,0)
(0,0,0)
(0,0,0)
(0,0,0)
(0,0,0)
(0,0,0)
(0,0,0)
(0,0,0)
(0,0,0)
(0,0,0)
(0,0,0)
(0,0,0)
(0,0,0)
(0,0,0)
(0,0,0)
(0,0,0)
(0,0,0)
(0,0,0)
(0,0,0)
(0,0,0)
(0,0,0)
(0,0,0)
(0,0,0)
(0,0,0)
(0,0,0)
(0,0,0)
(0,0,0)
(0,0,0)
(0,0,0)
(0,0,0)
(0,0,0)
(0,0,0)
(0,0,0)
(0,0,0)
(0,0,0)
(0,0,0)
(0,0,0)
(0,0,0)
(0,0,0)
(0,0,0)
(0,0,0)
(0,0,0)
(0,0,0)
(0,0,0)
(0,0,0)
(0,0,0)
(0,0,0)
(0,0,0)
(0,0,0)
(0,0,0)
(0,0,0)
(0,0,0)
(0,0,0)
(0,0,0)
(0,0,0)
(0,0,0)
(0,0,0)
(0,0,0)
(0,0,0)
(0,0,0)
(0,0,0)
(0,0,0)
(0,0,0)
(0,0,0)
(0,0,0)
(0,0,0)
(0,0,0)
(0,0,0)
(0,0,0)
(0,0,0)
(0,0,0)
(0,0,0)
(0,0,0)
(0,0,0)
(0,0,0)
(0,0,0)
(0,0,0)
(0,0,0)
(0,0,0)
(0,0,0)
(0,0,0)
(0,0,0)
(0,0,0)
(0,0,0)
(0,0,0)
(0,0,0)
(0,0,0)
(0,0,0)
(0,0,0)
(0,0,0)
(0,0,0)
(0,0,0)
(0,0,0)
(0,0,0)
(0,0,0)
(0,0,0)
(0,0,0)
(0,0,0)
(0,0,0)
(0,0,0)
(0,0,0)
(0,0,0)
(0,0,0)
(0,0,0)
(0,0,0)
(0,0,0)
(0,0,0)
(0,0,0)
(0,0,0)
(0,0,0)
(0,0,0)
(0,0,0)
(0,0,0)
(0,0,0)
(0,0,0)
(0,0,0)
(0,0,0)
(0,0,0)
(0,0,0)
(0,0,0)
(0,0,0)
(0,0,0)
(0,0,0)
(0,0,0)
(0,0,0)
(0,0,0)
(0,0,0)
(0,0,0)
(0,0,0)
(0,0,0)
(0,0,0)
(0,0,0)
(0,0,0)
(0,0,0)
(0,0,0)
(0,0,0)
(0,0,0)
(0,0,0)
(0,0,0)
(0,0,0)
(0,0,0)
(0,0,0)
(0,0,0)
(0,0,0)
(0,0,0)
(0,0,0)
(0,0,0)
(0,0,0)
(0,0,0)
(0,0,0)
(0,0,0)
(0,0,0)
(0,0,0)
(0,0,0)
(0,0,0)
(0,0,0)
(0,0,0)
(0,0,0)
(0,0,0)
(0,0,0)
(0,0,0)
(0,0,0)
(0,0,0)
(0,0,0)
(0,0,0)
(0,0,0)
(0,0,0)
(0,0,0)
(0,0,0)
(0,0,0)
(0,0,0)
(0,0,0)
(0,0,0)
(0,0,0)
(0,0,0)
(0,0,0)
(0,0,0)
(0,0,0)
(0,0,0)
(0,0,0)
(0,0,0)
(0,0,0)
(0,0,0)
(0,0,0)
(0,0,0)
(0,0,0)
(0,0,0)
(0,0,0)
(0,0,0)
(0,0,0)
(0,0,0)
(0,0,0)
(0,0,0)
(0,0,0)
(0,0,0)
(0,0,0)
(0,0,0)
(0,0,0)
(0,0,0)
(0,0,0)
(0,0,0)
(0,0,0)
(0,0,0)
(0,0,0)
(0,0,0)
(0,0,0)
(0,0,0)
(0,0,0)
(0,0,0)
(0,0,0)
(0,0,0)
(0,0,0)
(0,0,0)
(0,0,0)
(0,0,0)
(0,0,0)
(0,0,0)
(0,0,0)
(0,0,0)
(0,0,0)
(0,0,0)
(0,0,0)
(0,0,0)
(0,0,0)
(0,0,0)
(0,0,0)
(0,0,0)
(0,0,0)
(0,0,0)
(0,0,0)
(0,0,0)
(0,0,0)
(0,0,0)
(0,0,0)
(0,0,0)
(0,0,0)
(0,0,0)
(0,0,0)
(0,0,0)
(0,0,0)
(0,0,0)
(0,0,0)
(0,0,0)
(0,0,0)
(0,0,0)
(0,0,0)
(0,0,0)
(0,0,0)
(0,0,0)
(0,0,0)
(0,0,0)
(0,0,0)
(0,0,0)
(0,0,0)
(0,0,0)
(0,0,0)
(0,0,0)
(0,0,0)
(0,0,0)
(0,0,0)
(0,0,0)
(0,0,0)
(0,0,0)
(0,0,0)
(0,0,0)
(0,0,0)
(0,0,0)
(0,0,0)
(0,0,0)
(0,0,0)
(0,0,0)
(0,0,0)
(0,0,0)
(0,0,0)
(0,0,0)
(0,0,0)
(0,0,0)
(0,0,0)
(0,0,0)
(0,0,0)
(0,0,0)
(0,0,0)
(0,0,0)
(0,0,0)
(0,0,0)
(0,0,0)
(0,0,0)
(0,0,0)
(0,0,0)
(0,0,0)
(0,0,0)
(0,0,0)
(0,0,0)
(0,0,0)
(0,0,0)
(0,0,0)
(0,0,0)
(0,0,0)
(0,0,0)
(0,0,0)
(0,0,0)
(0,0,0)
(0,0,0)
(0,0,0)
(0,0,0)
(0,0,0)
(0,0,0)
(0,0,0)
(0,0,0)
(0,0,0)
(0,0,0)
(0,0,0)
(0,0,0)
(0,0,0)
(0,0,0)
(0,0,0)
(0,0,0)
(0,0,0)
(0,0,0)
(0,0,0)
(0,0,0)
(0,0,0)
(0,0,0)
(0,0,0)
(0,0,0)
(0,0,0)
(0,0,0)
(0,0,0)
(0,0,0)
(0,0,0)
(0,0,0)
(0,0,0)
(0,0,0)
(0,0,0)
(0,0,0)
(0,0,0)
(0,0,0)
(0,0,0)
(0,0,0)
(0,0,0)
(0,0,0)
(0,0,0)
(0,0,0)
(0,0,0)
(0,0,0)
(0,0,0)
(0,0,0)
(0,0,0)
(0,0,0)
(0,0,0)
(0,0,0)
(0,0,0)
(0,0,0)
(0,0,0)
(0,0,0)
(0,0,0)
(0,0,0)
(0,0,0)
(0,0,0)
(0,0,0)
(0,0,0)
(0,0,0)
(0,0,0)
(0,0,0)
(0,0,0)
(0,0,0)
(0,0,0)
(0,0,0)
(0,0,0)
(0,0,0)
(0,0,0)
(0,0,0)
(0,0,0)
(0,0,0)
(0,0,0)
(0,0,0)
(0,0,0)
(0,0,0)
(0,0,0)
(0,0,0)
(0,0,0)
(0,0,0)
(0,0,0)
(0,0,0)
(0,0,0)
(0,0,0)
(0,0,0)
(0,0,0)
(0,0,0)
(0,0,0)
(0,0,0)
(0,0,0)
(0,0,0)
(0,0,0)
(0,0,0)
(0,0,0)
(0,0,0)
(0,0,0)
(0,0,0)
(0,0,0)
(0,0,0)
(0,0,0)
(0,0,0)
(0,0,0)
(0,0,0)
(0,0,0)
(0,0,0)
(0,0,0)
(0,0,0)
(0,0,0)
(0,0,0)
(0,0,0)
(0,0,0)
(0,0,0)
(0,0,0)
(0,0,0)
(0,0,0)
(0,0,0)
(0,0,0)
(0,0,0)
(0,0,0)
(0,0,0)
(0,0,0)
(0,0,0)
(0,0,0)
(0,0,0)
(0,0,0)
(0,0,0)
(0,0,0)
(0,0,0)
(0,0,0)
(0,0,0)
(-154325.748557012,82072.6364191348,72253.1121378768)
(-163224.0425625,78677.3591306531,156799.795569724)
(-183774.53397865,71583.9169084558,268990.412639917)
(-222599.845504062,60473.0849005316,431117.173243451)
(-292635.378646328,45537.3927972077,678215.159092576)
(-418369.960630335,28346.2111486797,1068238.90857422)
(-646034.493105352,12697.9411878402,1701575.46049176)
(-1057565.562074,3094.56460819636,2756046.45795756)
(-1744259.83266957,-65.8399593982432,4500372.13058658)
(-2430262.47311797,-263.596572288823,6930898.20027684)
(0,0,0)
(0,0,0)
(0,0,0)
(0,0,0)
(0,0,0)
(0,0,0)
(-163205.625784983,176370.869423891,68907.3927802263)
(-172183.114547569,169936.871804583,149830.994653868)
(-193054.311506602,156440.518935088,258028.704133836)
(-232786.768035168,135012.857052033,416275.700017505)
(-304753.979236643,105465.033036616,661102.039014736)
(-433533.791778086,70331.002950374,1052651.03899113)
(-663730.365351857,37073.7112661338,1692005.63426467)
(-1073705.90035501,16001.1445347305,2752804.95469312)
(-1755023.3155212,7749.79939271808,4500012.63086228)
(-2435274.47307751,3976.81521313233,6931046.69215425)
(0,0,0)
(0,0,0)
(0,0,0)
(0,0,0)
(0,0,0)
(0,0,0)
(-183553.021924279,297338.691060975,62585.2002871954)
(-192675.540880768,288698.341708582,136499.271263966)
(-214208.605069097,270428.180133166,236720.21513499)
(-255930.394475489,240864.529843049,386798.936819465)
(-332475.316176653,198743.889140663,625995.396892071)
(-469233.001107784,146172.534952521,1019386.86599771)
(-707354.05287372,92939.2070903561,1670875.42304721)
(-1113890.05428634,56366.4150071295,2744400.20686112)
(-1780903.42839476,37104.8116381043,4495948.62301056)
(-2446995.96272095,20129.2552957643,6926792.14564887)
(0,0,0)
(0,0,0)
(0,0,0)
(0,0,0)
(0,0,0)
(0,0,0)
(-221436.997819785,464701.760246099,54073.9286346606)
(-230713.05388376,455102.437259381,118382.886967623)
(-253080.340894253,434657.566787557,207233.841207478)
(-297697.414088963,401080.312238999,344715.472900487)
(-381859.998606265,351926.831398487,573392.529248931)
(-533945.883746203,287411.195368547,966099.752579103)
(-790970.997927137,215776.185184578,1634233.77241203)
(-1191662.69779036,157285.560721194,2724977.32448829)
(-1828352.69017819,111738.509321545,4478696.31698301)
(-2467709.72299703,60132.2878057463,6906403.00747016)
(0,0,0)
(0,0,0)
(0,0,0)
(0,0,0)
(0,0,0)
(0,0,0)
(-289353.4032713,709490.225032733,44564.9384846657)
(-298581.649067092,700190.928347156,98058.0964639822)
(-321388.638938064,680343.839362518,173760.462827086)
(-368415.893196361,647631.848491321,295624.819771129)
(-460443.393944144,599190.892927572,508804.152186191)
(-631534.583695793,533407.618973494,894342.312277019)
(-918298.907496508,452795.5437265,1575621.86123161)
(-1310039.80421806,363679.484479129,2679267.74169176)
(-1897262.4933356,261421.022682564,4426847.72166638)
(-2497607.40214429,138562.860920228,6846024.55069621)
(0,0,0)
(0,0,0)
(0,0,0)
(0,0,0)
(0,0,0)
(0,0,0)
(-411981.464627063,1086222.29621783,35249.3934419679)
(-420742.438444446,1077962.85454683,78219.9056867386)
(-442806.719166987,1060317.95578395,141052.508432289)
(-489363.649309911,1030884.75974372,247163.246489798)
(-582366.544010482,985785.620088382,442935.063339473)
(-756727.539771506,919435.195829722,813635.026254758)
(-1044391.52759018,824424.917912277,1486397.17965919)
(-1418355.40208284,691537.445076502,2576894.62114464)
(-1971915.16202114,506380.062156431,4303850.74369194)
(-2535220.47195239,270328.923109738,6707305.15345475)
(0,0,0)
(0,0,0)
(0,0,0)
(0,0,0)
(0,0,0)
(0,0,0)
(-637120.288536881,1696396.09750795,26946.4872467646)
(-644878.421411412,1689274.1309627,60513.6322423028)
(-664679.487427115,1673938.46836429,111572.607089085)
(-707214.317906615,1647636.59298066,202035.091758765)
(-793598.207596987,1604915.25713267,376503.662311466)
(-957430.848974087,1534825.67693927,718544.030175999)
(-1227411.17205866,1416964.29304739,1353415.82709954)
(-1567433.98913766,1220822.83283194,2391564.42848176)
(-2083158.29914308,913483.69505922,4067619.09472201)
(-2596572.61137232,497705.561521321,6436815.06768279)
(0,0,0)
(0,0,0)
(0,0,0)
(0,0,0)
(0,0,0)
(0,0,0)
(-1048902.38458684,2725570.65808427,19727.8240105036)
(-1055091.69593665,2719063.33492405,45030.315985802)
(-1071030.40729413,2704803.25954853,85195.9320956972)
(-1105639.06680443,2679208.67613582,159262.915744961)
(-1176637.95888667,2634486.89041368,306329.241350606)
(-1312819.59161284,2553362.68286743,600611.82703529)
(-1538902.70468044,2399263.9292755,1157214.8954876)
(-1814140.35128443,2108096.25720813,2084081.82239585)
(-2285132.57968913,1630935.93103855,3651762.16610565)
(-2713934.21353431,924415.942556583,5938985.99860464)
(0,0,0)
(0,0,0)
(0,0,0)
(0,0,0)
(0,0,0)
(0,0,0)
(-1738340.33113617,4450720.54905309,13190.440167352)
(-1742578.42123722,4444167.89660688,30664.2997217525)
(-1753410.24173687,4429306.4105197,59571.3904874156)
(-1776689.71436388,4400961.56674963,114508.214237489)
(-1823593.38673749,4347482.77476541,225105.716623268)
(-1911711.07818383,4243810.77278567,446368.704888843)
(-2059684.50316983,4039339.35804596,865977.779288207)
(-2279520.89969729,3646718.03661169,1606876.89958193)
(-2657685.56877113,2950218.65868855,2945279.74070305)
(-2918641.18215352,1773803.54667169,5014533.31874145)
(0,0,0)
(0,0,0)
(0,0,0)
(0,0,0)
(0,0,0)
(0,0,0)
(-2427521.11757494,6871542.7609615,6698.90566651512)
(-2429649.3471169,6864725.6837752,15790.4656151101)
(-2435027.77131413,6848852.81170576,31271.835743213)
(-2446449.144593,6817562.74856355,61119.798522295)
(-2469151.65047432,6756366.22555574,121387.998206304)
(-2511589.15704374,6635051.5132067,241736.414829003)
(-2585655.37857284,6393429.91181912,473301.239628682)
(-2710447.04079816,5920099.50963281,910366.80740569)
(-2917951.86114654,5009648.46796877,1768888.85927199)
(-2938666.96013914,3240682.49217366,3240676.87390918)
(0,0,0)
(0,0,0)
(0,0,0)
(0,0,0)
(0,0,0)
(0,0,0)
(0,0,0)
(0,0,0)
(0,0,0)
(0,0,0)
(0,0,0)
(0,0,0)
(0,0,0)
(0,0,0)
(0,0,0)
(0,0,0)
(0,0,0)
(0,0,0)
(0,0,0)
(0,0,0)
(0,0,0)
(0,0,0)
(0,0,0)
(0,0,0)
(0,0,0)
(0,0,0)
(0,0,0)
(0,0,0)
(0,0,0)
(0,0,0)
(0,0,0)
(0,0,0)
(0,0,0)
(0,0,0)
(0,0,0)
(0,0,0)
(0,0,0)
(0,0,0)
(0,0,0)
(0,0,0)
(0,0,0)
(0,0,0)
(0,0,0)
(0,0,0)
(0,0,0)
(0,0,0)
(0,0,0)
(0,0,0)
(0,0,0)
(0,0,0)
(0,0,0)
(0,0,0)
(0,0,0)
(0,0,0)
(0,0,0)
(0,0,0)
(0,0,0)
(0,0,0)
(0,0,0)
(0,0,0)
(0,0,0)
(0,0,0)
(0,0,0)
(0,0,0)
(0,0,0)
(0,0,0)
(0,0,0)
(0,0,0)
(0,0,0)
(0,0,0)
(0,0,0)
(0,0,0)
(0,0,0)
(0,0,0)
(0,0,0)
(0,0,0)
(0,0,0)
(0,0,0)
(0,0,0)
(0,0,0)
(0,0,0)
(0,0,0)
(0,0,0)
(0,0,0)
(0,0,0)
(0,0,0)
(0,0,0)
(0,0,0)
(0,0,0)
(0,0,0)
(0,0,0)
(0,0,0)
(0,0,0)
(0,0,0)
(0,0,0)
(0,0,0)
(0,0,0)
(0,0,0)
(0,0,0)
(0,0,0)
(0,0,0)
(0,0,0)
(22790723.4252044,73172.3328077611,63413.7163842599)
(22775844.2503242,69689.4998430668,136291.146607914)
(22741695.9003109,62269.4653779993,230186.469893763)
(22677875.086917,50260.3385569555,361086.421869051)
(22564225.8108768,33368.5053634955,552491.949935774)
(22362069.6651218,13159.7646641306,840527.782472837)
(21991106.9004602,-4988.39910378659,1290010.01096439)
(21257832.2924002,-13033.1919920158,2069280.57143558)
(19603297.9360477,-10821.6872616189,3814179.71293323)
(15110053.5434964,-5289.95063467679,9360788.86990688)
(0,0,0)
(0,0,0)
(0,0,0)
(0,0,0)
(0,0,0)
(0,0,0)
(22775595.3783382,156033.806230021,59972.7454079505)
(22760687.9232258,149448.733255663,128977.6971754)
(22726238.3563442,135300.260048744,218289.45760727)
(22661212.2733276,111899.603685626,344286.374069129)
(22544459.9883272,77740.3783303813,532335.756491848)
(22336585.3375445,34611.8557995276,822399.758987245)
(21959906.6593294,-6570.14035437687,1281979.69851001)
(21229673.9440491,-24197.2996758622,2071399.18474315)
(19585789.1369041,-18138.4856915827,3819538.75370114)
(15102405.10298,-7749.25194346611,9365953.70190576)
(0,0,0)
(0,0,0)
(0,0,0)
(0,0,0)
(0,0,0)
(0,0,0)
(22741197.3242793,259436.591009996,53482.0919698651)
(22726257.980974,250659.743563016,114972.782761187)
(22691138.295651,231568.457750617,194992.907292557)
(22623260.4650941,199123.752617877,310213.1217441)
(22498443.6336924,149422.580521784,489247.192636931)
(22273523.0542948,81507.8742832883,781230.341703997)
(21875265.2632285,9357.43761355816,1264318.67058718)
(21151955.7697397,-21390.0118254312,2077300.78166416)
(19540576.8974048,-10323.9778224556,3829641.17094885)
(15083650.7040112,-561.15328531564,9373441.62851197)
(0,0,0)
(0,0,0)
(0,0,0)
(0,0,0)
(0,0,0)
(0,0,0)
(22678056.6039443,396774.463951953,44803.7482472907)
(22663135.0444758,387221.40209565,96029.214308468)
(22627148.9468008,366346.541426898,162657.065890485)
(22554808.2289371,330346.31270556,260564.085730183)
(22415057.0888342,273381.629463911,421323.172300964)
(22151596.9402852,189862.743696794,709060.701809495)
(21687076.0214497,88473.7652963395,1233532.57770326)
(20975022.2157473,38888.174498647,2088204.70079495)
(19449206.3087838,42807.7160699717,3839149.23089387)
(15048532.1174372,30224.0985367341,9373757.36159102)
(0,0,0)
(0,0,0)
(0,0,0)
(0,0,0)
(0,0,0)
(0,0,0)
(22566870.7590558,586878.117017463,35307.4075607514)
(22552311.9367214,578030.423205241,75240.0236159826)
(22516144.9710777,558941.981540155,126746.196440443)
(22440015.8864127,526687.539580521,203608.412909848)
(22283149.5814296,477300.844892626,337731.445060759)
(21961873.1055805,408259.597918822,607562.124515882)
(21348768.4442734,326756.404845868,1183847.35614989)
(20647015.4986282,255367.295643549,2091948.15511209)
(19306049.3415695,186745.015400091,3826334.24383011)
(14996345.4520846,100932.926364547,9343307.78472683)
(0,0,0)
(0,0,0)
(0,0,0)
(0,0,0)
(0,0,0)
(0,0,0)
(22368963.1732625,861123.396213406,26445.3058678202)
(22355398.4635934,853841.709133721,56128.3408548735)
(22320950.537085,838465.530250517,94482.7588459166)
(22246216.9669057,813071.712385955,154153.19277837)
(22087532.5065401,774598.294223087,268591.915850678)
(21757040.0252001,718761.022837081,525958.148914222)
(21136134.7136844,641443.299056444,1112380.23638251)
(20465350.3944157,542454.16587929,2023222.79260159)
(19184183.158399,395107.03352862,3740397.67700625)
(14936561.5286415,208944.172230496,9242239.65349985)
(0,0,0)
(0,0,0)
(0,0,0)
(0,0,0)
(0,0,0)
(0,0,0)
(22001778.0094856,1284711.41293955,19148.9082047905)
(21989973.0263019,1279096.27981775,40678.1127608197)
(21959471.0476699,1267596.04387974,69032.2869880182)
(21891627.2492731,1249254.59529666,115643.059851042)
(21743676.4493815,1221916.49295356,212685.427095427)
(21427653.5557485,1179439.65474356,448557.613419747)
(20825449.9402775,1105454.89683585,1013320.12625756)
(20220135.3738687,974083.324064202,1875756.82801973)
(19003756.9764472,711481.589709847,3554102.21920161)
(14834591.8551667,380342.77567843,9033174.37216809)
(0,0,0)
(0,0,0)
(0,0,0)
(0,0,0)
(0,0,0)
(0,0,0)
(21267834.4983829,2036115.57326259,13494.1796607194)
(21258532.5286502,2031554.32704904,29047.1307959141)
(21234260.7051384,2022380.38397832,50606.9012181162)
(21179438.2712573,2008136.60665694,88282.7747495226)
(21057528.893683,1987509.41498057,170158.22310613)
(20789476.6018207,1954429.70597579,374507.201393814)
(20262397.9508223,1878409.17955736,881887.486122893)
(19867764.4522415,1642650.30228729,1613050.92732719)
(18639788.8717316,1258338.85570914,3222907.43286047)
(14598520.4384053,719695.737261005,8652735.04229163)
(0,0,0)
(0,0,0)
(0,0,0)
(0,0,0)
(0,0,0)
(0,0,0)
(19609057.7844908,3761399.37943199,8953.30115697311)
(19602783.2969482,3756959.81023393,19821.3227400629)
(19586578.2008643,3747525.16761966,36323.3194509642)
(19550732.9190928,3731039.05876302,67633.4568415715)
(19474427.4029439,3701768.63310963,136988.671984468)
(19319214.3563493,3643775.97410088,298352.192279619)
(19039425.0722412,3513213.57400975,646073.44536964)
(18646454.359404,3215677.11153664,1228706.59997241)
(17536835.7088353,2689856.18954896,2684303.21147959)
(13880272.7101665,1753706.18172704,7933014.09764687)
(0,0,0)
(0,0,0)
(0,0,0)
(0,0,0)
(0,0,0)
(0,0,0)
(15112148.4993876,9298775.82901218,4589.15641056734)
(15109037.1684437,9294088.3152302,10409.3588070867)
(15101097.3589364,9283599.25276178,19845.36636775)
(15083902.6201364,9263753.12644327,38414.7569115036)
(15048432.5321204,9225286.93414256,78947.4962373223)
(14978690.9965523,9146407.02222914,167671.517466452)
(14849549.1011829,8978814.55529049,348501.27938328)
(14602236.8470314,8630283.57502071,702846.151023002)
(13880844.9019168,7927385.04899318,1748155.75146885)
(11286390.5528253,6179194.67835292,6179244.9648319)
(0,0,0)
(0,0,0)
(0,0,0)
(0,0,0)
(0,0,0)
(0,0,0)
(0,0,0)
(0,0,0)
(0,0,0)
(0,0,0)
(0,0,0)
(0,0,0)
(0,0,0)
(0,0,0)
(0,0,0)
(0,0,0)
(0,0,0)
(0,0,0)
(0,0,0)
(0,0,0)
(0,0,0)
(0,0,0)
(0,0,0)
(0,0,0)
(0,0,0)
(0,0,0)
(0,0,0)
(0,0,0)
(0,0,0)
(0,0,0)
(0,0,0)
(0,0,0)
(0,0,0)
(0,0,0)
(0,0,0)
(0,0,0)
(0,0,0)
(0,0,0)
(0,0,0)
(0,0,0)
(0,0,0)
(0,0,0)
(0,0,0)
(0,0,0)
(0,0,0)
(0,0,0)
(0,0,0)
(0,0,0)
(0,0,0)
(0,0,0)
(0,0,0)
(0,0,0)
(0,0,0)
(0,0,0)
(0,0,0)
(0,0,0)
(0,0,0)
(0,0,0)
(0,0,0)
(0,0,0)
(0,0,0)
(0,0,0)
(0,0,0)
(0,0,0)
(0,0,0)
(0,0,0)
(0,0,0)
(0,0,0)
(0,0,0)
(0,0,0)
(0,0,0)
(0,0,0)
(0,0,0)
(0,0,0)
(0,0,0)
(0,0,0)
(0,0,0)
(0,0,0)
(0,0,0)
(0,0,0)
(0,0,0)
(0,0,0)
(0,0,0)
(0,0,0)
(0,0,0)
(0,0,0)
(0,0,0)
(0,0,0)
(0,0,0)
(0,0,0)
(0,0,0)
(0,0,0)
(0,0,0)
(0,0,0)
(0,0,0)
(0,0,0)
(0,0,0)
(0,0,0)
(0,0,0)
(0,0,0)
(0,0,0)
(0,0,0)
(-397538.305312804,58052.0873655496,48574.4201982231)
(-413917.819159565,54529.7784432104,102171.488285355)
(-450944.556669094,46791.4234260089,166385.29888594)
(-518369.647289834,33579.5111950277,247415.298944442)
(-633792.384611744,13555.2071527487,350243.064326897)
(-826439.609772053,-12329.7316166458,469446.847884053)
(-1141637.3394969,-36127.6127985892,556683.477686415)
(-1640621.92172789,-41103.1816225431,414605.650483673)
(-2356048.08391932,-28270.9775224892,-679412.574980174)
(-2888070.11711102,-12935.6961251124,-5749988.44120097)
(0,0,0)
(0,0,0)
(0,0,0)
(0,0,0)
(0,0,0)
(0,0,0)
(-414820.742555023,121718.366681468,45114.6186239103)
(-430940.164243907,115081.966690108,94555.294893305)
(-467582.489812865,100257.869374204,153274.472148757)
(-535083.187013012,74012.1030698422,227502.117661256)
(-652268.197492547,31733.2108732365,324417.076807075)
(-850165.912834585,-28432.6927992811,445636.065415407)
(-1172770.93164273,-91142.3785193473,551693.199154876)
(-1666945.64577281,-101796.694191339,427371.078592184)
(-2369268.44013053,-63259.7635506818,-664217.78129831)
(-2892742.97512673,-26470.7266991085,-5737169.89557104)
(0,0,0)
(0,0,0)
(0,0,0)
(0,0,0)
(0,0,0)
(0,0,0)
(-453550.650592687,196256.72774968,38574.390850356)
(-469120.070508975,187523.247953965,79875.9381160289)
(-505089.602227573,167591.909405816,127134.573009645)
(-573254.955652785,130704.761070914,185322.112802074)
(-696491.089952313,66084.3453149791,264270.479051752)
(-914794.155129465,-40361.1787825157,382880.951505836)
(-1276876.30954784,-178718.480262895,540963.40307239)
(-1758114.12557622,-198183.175480835,465784.556724373)
(-2409306.78118635,-101579.089585846,-627647.661602679)
(-2905587.76105803,-35607.2940422672,-5710907.85214367)
(0,0,0)
(0,0,0)
(0,0,0)
(0,0,0)
(0,0,0)
(0,0,0)
(-522722.373476319,285503.575895316,29896.9063216506)
(-537468.200473321,276315.612346871,60072.5639244954)
(-572432.682280468,255266.569049158,90344.3104090731)
(-641999.796861236,215482.144850146,120739.729474734)
(-778992.987016579,141455.13157796,157783.796109158)
(-1057196.31256044,143.705600164251,244436.941618683)
(-1600478.09031058,-249762.707044292,521400.057206991)
(-2056588.97681985,-289042.37828406,562235.229623929)
(-2509616.06878433,-100297.230061096,-561859.475286048)
(-2933149.33892906,-21927.8797006269,-5675492.65621484)
(0,0,0)
(0,0,0)
(0,0,0)
(0,0,0)
(0,0,0)
(0,0,0)
(-638923.987484887,388922.620956262,20740.4785263787)
(-652435.315321479,381084.178654635,39083.9413081753)
(-685460.952980105,363714.080390496,50607.1310711582)
(-755065.265522896,332845.551949884,46689.6529535888)
(-908378.195989931,281649.267709352,16388.0712883582)
(-1300967.70883796,203391.059299871,-5653.69094632437)
(-2584412.05955117,114150.916305901,481977.966574587)
(-3066238.09606088,73733.4875932254,750820.472433025)
(-2706303.18264839,64893.8554900992,-483653.311853562)
(-2978282.31107963,41155.5417800782,-5653744.19312332)
(0,0,0)
(0,0,0)
(0,0,0)
(0,0,0)
(0,0,0)
(0,0,0)
(-830579.152737736,493978.923983385,12850.8000197894)
(-842404.440243355,488444.137177785,21658.5223800194)
(-871998.177668574,476976.754690476,19709.3398802221)
(-936745.987648778,458478.764123907,-4596.14069281698)
(-1085834.86054564,430757.187733125,-61971.9165841962)
(-1477518.90992726,389381.351383872,-95038.4964942404)
(-2698672.92165449,330777.610219846,441507.221977232)
(-3140172.46191893,297230.469808401,741897.873143317)
(-2797804.77587269,214646.32295185,-507501.883000116)
(-3023328.95664632,106933.406166103,-5695024.48505164)
(0,0,0)
(0,0,0)
(0,0,0)
(0,0,0)
(0,0,0)
(0,0,0)
(-1144025.05515695,550863.523270036,7283.24240247198)
(-1153753.57514831,547708.122558814,10110.6355182868)
(-1178629.53954332,542386.140218915,1166.61424963219)
(-1235077.93039496,537083.767834256,-32368.4327461022)
(-1371975.01048756,535823.718682092,-103418.72677935)
(-1755593.10926404,541301.45903523,-153727.392371536)
(-3029454.07475238,542418.749403723,407900.260521092)
(-3437259.81571927,621650.316307171,659240.380656875)
(-2936080.26960929,347410.765986955,-615322.039275132)
(-3097609.73616467,144204.578927253,-5802026.84365832)
(0,0,0)
(0,0,0)
(0,0,0)
(0,0,0)
(0,0,0)
(0,0,0)
(-1644412.26062021,377336.059243644,4139.00007601517)
(-1651754.64576109,375794.465347893,4704.60874488084)
(-1670740.21734465,374658.03488192,-4201.5863883872)
(-1715014.46668952,379367.639759431,-33667.9433201627)
(-1828319.43488583,404378.968196485,-98010.0872190199)
(-2180320.81971531,484144.404391596,-152690.833992812)
(-3571973.18415401,655362.781158529,487101.046275372)
(-2911315.58295733,421235.538028971,384960.636799062)
(-3046169.95908624,155250.513672441,-818555.503021881)
(-3212551.3248001,1351.1704502087,-5946265.55429273)
(0,0,0)
(0,0,0)
(0,0,0)
(0,0,0)
(0,0,0)
(0,0,0)
(-2362160.90479678,-735751.183940422,2670.70951829659)
(-2366948.75257709,-737022.338784297,3584.34022237102)
(-2379110.640239,-738203.536664758,499.529918943004)
(-2406311.39748784,-736064.637810161,-8659.09888420117)
(-2468733.22141429,-724461.659721534,-18293.0695613439)
(-2618026.50413238,-696990.67161869,18447.6439772213)
(-2944431.0836199,-676929.612734012,252960.970777433)
(-3051207.30255748,-828772.267858886,118995.215673355)
(-3331779.07934276,-966361.75567835,-972412.949751248)
(-3384412.62030899,-840342.877461597,-5947668.79431727)
(0,0,0)
(0,0,0)
(0,0,0)
(0,0,0)
(0,0,0)
(0,0,0)
(-2892733.58441283,-5813995.33151284,1491.00841952983)
(-2895060.02650258,-5815537.11105665,2467.75268474479)
(-2900878.8818441,-5818049.43555983,2654.6694070336)
(-2913434.08622258,-5820678.9315101,2970.4465125582)
(-2940260.43953751,-5823617.77558481,9184.31108033205)
(-2996494.1864916,-5832751.58341583,38495.1829679917)
(-3100415.67824858,-5871248.06080974,101143.187521913)
(-3215969.49012178,-5972460.78873747,-18597.177399694)
(-3385428.3782765,-5953922.35680509,-846398.519033044)
(-3267033.21927564,-5107525.22242183,-5107427.62492523)
(0,0,0)
(0,0,0)
(0,0,0)
(0,0,0)
(0,0,0)
(0,0,0)
(0,0,0)
(0,0,0)
(0,0,0)
(0,0,0)
(0,0,0)
(0,0,0)
(0,0,0)
(0,0,0)
(0,0,0)
(0,0,0)
(0,0,0)
(0,0,0)
(0,0,0)
(0,0,0)
(0,0,0)
(0,0,0)
(0,0,0)
(0,0,0)
(0,0,0)
(0,0,0)
(0,0,0)
(0,0,0)
(0,0,0)
(0,0,0)
(0,0,0)
(0,0,0)
(0,0,0)
(0,0,0)
(0,0,0)
(0,0,0)
(0,0,0)
(0,0,0)
(0,0,0)
(0,0,0)
(0,0,0)
(0,0,0)
(0,0,0)
(0,0,0)
(0,0,0)
(0,0,0)
(0,0,0)
(0,0,0)
(0,0,0)
(0,0,0)
(0,0,0)
(0,0,0)
(0,0,0)
(0,0,0)
(0,0,0)
(0,0,0)
(0,0,0)
(0,0,0)
(0,0,0)
(0,0,0)
(0,0,0)
(0,0,0)
(0,0,0)
(0,0,0)
(0,0,0)
(0,0,0)
(0,0,0)
(0,0,0)
(0,0,0)
(0,0,0)
(0,0,0)
(0,0,0)
(0,0,0)
(0,0,0)
(0,0,0)
(0,0,0)
(0,0,0)
(0,0,0)
(0,0,0)
(0,0,0)
(0,0,0)
(0,0,0)
(0,0,0)
(0,0,0)
(0,0,0)
(0,0,0)
(0,0,0)
(0,0,0)
(0,0,0)
(0,0,0)
(0,0,0)
(0,0,0)
(0,0,0)
(0,0,0)
(0,0,0)
(0,0,0)
(0,0,0)
(0,0,0)
(0,0,0)
(0,0,0)
(0,0,0)
(0,0,0)
(-470292.904230069,40630.2646823562,32124.3342349093)
(-484187.469007295,37371.887079457,65022.0970031807)
(-514774.260571998,30031.1915425924,98820.6093634936)
(-568168.032125072,16786.5038066302,131832.4903921)
(-654368.469547105,-4972.17336827466,157380.748695738)
(-787032.059604918,-36081.7294000732,154054.927928678)
(-977860.694148485,-67266.9284999482,57545.2110802085)
(-1214565.31992222,-67404.0743042528,-301107.316421206)
(-1403856.94645393,-41443.0401132082,-1211855.41377338)
(-1219854.76120151,-17581.6144278052,-2862489.15525509)
(0,0,0)
(0,0,0)
(0,0,0)
(0,0,0)
(0,0,0)
(0,0,0)
(-486000.530308385,82850.6950980065,28959.3573377124)
(-499144.443381724,76758.7966783832,57776.7268766004)
(-528023.631758025,62628.2742340906,85620.7861302624)
(-578588.203029727,35765.9984248984,110146.307528708)
(-660867.197605717,-12547.7239730798,126320.858246683)
(-789698.834905259,-93082.631689672,122854.682606963)
(-979292.61945726,-195249.288644615,57358.7305661675)
(-1208831.70751254,-192923.899381167,-275235.38261719)
(-1394581.7553381,-103229.395298569,-1188135.71222426)
(-1214151.99264407,-39279.8015013485,-2845028.5076334)
(0,0,0)
(0,0,0)
(0,0,0)
(0,0,0)
(0,0,0)
(0,0,0)
(-520518.209298129,126857.958506514,22960.2952969371)
(-532140.187119644,118971.012437285,43768.196148701)
(-557633.523458421,100098.704489635,58841.6871240017)
(-602381.057479493,61846.0058715766,61887.7815040339)
(-676434.288487014,-16477.1981922684,45760.4542579204)
(-799970.620345726,-182755.464197852,20609.7519823524)
(-1008845.69571855,-502252.563013271,59582.4125217212)
(-1209210.58378602,-496569.481499637,-185675.547150017)
(-1372034.47940825,-201799.268137975,-1124377.97608871)
(-1200206.84433562,-63117.0828070966,-2805921.6115054)
(0,0,0)
(0,0,0)
(0,0,0)
(0,0,0)
(0,0,0)
(0,0,0)
(-579998.547134041,169034.018167501,15100.1139967382)
(-589477.650038964,161081.688542714,24998.8874569562)
(-610023.221335827,142009.212341258,20678.9186606941)
(-645296.305761557,102251.460412025,-16430.0269794365)
(-703324.031193235,12029.8323448887,-120606.013339933)
(-817983.917584018,-243565.351797459,-299008.520716749)
(-1233333.84347884,-1233567.69711654,65162.3665547739)
(-1298317.27893889,-1298625.6259282,108946.81310239)
(-1319661.80993528,-296967.311444007,-985839.402440622)
(-1172082.87092955,-67065.4840741267,-2742957.46917309)
(0,0,0)
(0,0,0)
(0,0,0)
(0,0,0)
(0,0,0)
(0,0,0)
(-674076.522102476,197016.789846366,7169.76293872376)
(-681032.66846699,190889.534603103,5959.27002384478)
(-695399.027230187,176982.163103629,-19075.6064884415)
(-716184.639642306,151027.856234665,-106732.628191671)
(-730869.69328865,104118.989308895,-376330.287856961)
(-658485.386696648,26833.1185412577,-1289211.08033699)
(8.17144498049405e-05,2.20221392614e-05,-5.43685378415398e-05)