/*--------------------------------*- C++ -*----------------------------------*\
| =========                 |                                                 |
| \\      /  F ield         | foam-extend: Open Source CFD                    |
|  \\    /   O peration     | Version:     4.0                                |
|   \\  /    A nd           | Web:         http://www.foam-extend.org         |
|    \\/     M anipulation  |                                                 |
\*---------------------------------------------------------------------------*/
FoamFile
{
    version 2.0;
    format ascii;
    class volVectorField;
    location "Data/3453";
    object      E;
}
// * * * * * * * * * * * * * * * * * * * * * * * * * * * * * * * * * * * * * //

dimensions      [0 1 -1 0 0 0 0];

internalField   nonuniform List<vector>
4096
(
(0,0,0)
(0,0,0)
(0,0,0)
(0,0,0)
(0,0,0)
(0,0,0)
(0,0,0)
(0,0,0)
(0,0,0)
(0,0,0)
(0,0,0)
(0,0,0)
(0,0,0)
(0,0,0)
(0,0,0)
(0,0,0)
(0,0,0)
(0,0,0)
(0,0,0)
(0,0,0)
(0,0,0)
(0,0,0)
(0,0,0)
(0,0,0)
(0,0,0)
(0,0,0)
(0,0,0)
(0,0,0)
(0,0,0)
(0,0,0)
(0,0,0)
(0,0,0)
(0,0,0)
(0,0,0)
(0,0,0)
(0,0,0)
(0,0,0)
(0,0,0)
(0,0,0)
(0,0,0)
(0,0,0)
(0,0,0)
(0,0,0)
(0,0,0)
(0,0,0)
(0,0,0)
(0,0,0)
(0,0,0)
(0,0,0)
(0,0,0)
(0,0,0)
(0,0,0)
(0,0,0)
(0,0,0)
(0,0,0)
(0,0,0)
(0,0,0)
(0,0,0)
(0,0,0)
(0,0,0)
(0,0,0)
(0,0,0)
(0,0,0)
(0,0,0)
(0,0,0)
(0,0,0)
(0,0,0)
(0,0,0)
(0,0,0)
(0,0,0)
(0,0,0)
(0,0,0)
(0,0,0)
(0,0,0)
(0,0,0)
(0,0,0)
(0,0,0)
(0,0,0)
(0,0,0)
(0,0,0)
(0,0,0)
(0,0,0)
(0,0,0)
(0,0,0)
(0,0,0)
(0,0,0)
(0,0,0)
(0,0,0)
(0,0,0)
(0,0,0)
(0,0,0)
(0,0,0)
(0,0,0)
(0,0,0)
(0,0,0)
(0,0,0)
(0,0,0)
(0,0,0)
(0,0,0)
(0,0,0)
(0,0,0)
(0,0,0)
(0,0,0)
(0,0,0)
(0,0,0)
(0,0,0)
(0,0,0)
(0,0,0)
(0,0,0)
(0,0,0)
(0,0,0)
(0,0,0)
(0,0,0)
(0,0,0)
(0,0,0)
(0,0,0)
(0,0,0)
(0,0,0)
(0,0,0)
(0,0,0)
(0,0,0)
(0,0,0)
(0,0,0)
(0,0,0)
(0,0,0)
(0,0,0)
(0,0,0)
(0,0,0)
(0,0,0)
(0,0,0)
(0,0,0)
(0,0,0)
(0,0,0)
(0,0,0)
(0,0,0)
(0,0,0)
(0,0,0)
(0,0,0)
(0,0,0)
(0,0,0)
(0,0,0)
(0,0,0)
(0,0,0)
(0,0,0)
(0,0,0)
(0,0,0)
(0,0,0)
(0,0,0)
(0,0,0)
(0,0,0)
(0,0,0)
(0,0,0)
(0,0,0)
(0,0,0)
(0,0,0)
(0,0,0)
(0,0,0)
(0,0,0)
(0,0,0)
(0,0,0)
(0,0,0)
(0,0,0)
(0,0,0)
(0,0,0)
(0,0,0)
(0,0,0)
(0,0,0)
(0,0,0)
(0,0,0)
(0,0,0)
(0,0,0)
(0,0,0)
(0,0,0)
(0,0,0)
(0,0,0)
(0,0,0)
(0,0,0)
(0,0,0)
(0,0,0)
(0,0,0)
(0,0,0)
(0,0,0)
(0,0,0)
(0,0,0)
(0,0,0)
(0,0,0)
(0,0,0)
(0,0,0)
(0,0,0)
(0,0,0)
(0,0,0)
(0,0,0)
(0,0,0)
(0,0,0)
(0,0,0)
(0,0,0)
(0,0,0)
(0,0,0)
(0,0,0)
(0,0,0)
(0,0,0)
(0,0,0)
(0,0,0)
(0,0,0)
(0,0,0)
(0,0,0)
(0,0,0)
(0,0,0)
(0,0,0)
(0,0,0)
(0,0,0)
(0,0,0)
(0,0,0)
(0,0,0)
(0,0,0)
(0,0,0)
(0,0,0)
(0,0,0)
(0,0,0)
(0,0,0)
(0,0,0)
(0,0,0)
(0,0,0)
(0,0,0)
(0,0,0)
(0,0,0)
(0,0,0)
(0,0,0)
(0,0,0)
(0,0,0)
(0,0,0)
(0,0,0)
(0,0,0)
(0,0,0)
(0,0,0)
(0,0,0)
(0,0,0)
(0,0,0)
(0,0,0)
(0,0,0)
(0,0,0)
(0,0,0)
(0,0,0)
(0,0,0)
(0,0,0)
(0,0,0)
(0,0,0)
(0,0,0)
(0,0,0)
(0,0,0)
(0,0,0)
(0,0,0)
(0,0,0)
(0,0,0)
(0,0,0)
(0,0,0)
(0,0,0)
(0,0,0)
(0,0,0)
(0,0,0)
(0,0,0)
(0,0,0)
(0,0,0)
(0,0,0)
(0,0,0)
(0,0,0)
(0,0,0)
(0,0,0)
(0,0,0)
(0,0,0)
(0,0,0)
(0,0,0)
(0,0,0)
(0,0,0)
(0,0,0)
(0,0,0)
(0,0,0)
(0,0,0)
(0,0,0)
(0,0,0)
(0,0,0)
(0,0,0)
(0,0,0)
(0,0,0)
(0,0,0)
(0,0,0)
(0,0,0)
(0,0,0)
(0,0,0)
(0,0,0)
(0,0,0)
(0,0,0)
(0,0,0)
(0,0,0)
(0,0,0)
(0,0,0)
(0,0,0)
(0,0,0)
(0,0,0)
(0,0,0)
(0,0,0)
(0,0,0)
(0,0,0)
(0,0,0)
(0,0,0)
(0,0,0)
(0,0,0)
(0,0,0)
(0,0,0)
(0,0,0)
(0,0,0)
(0,0,0)
(0,0,0)
(0,0,0)
(0,0,0)
(0,0,0)
(0,0,0)
(0,0,0)
(0,0,0)
(0,0,0)
(0,0,0)
(0,0,0)
(0,0,0)
(0,0,0)
(0,0,0)
(0,0,0)
(0,0,0)
(0,0,0)
(0,0,0)
(0,0,0)
(0,0,0)
(0,0,0)
(0,0,0)
(0,0,0)
(0,0,0)
(0,0,0)
(0,0,0)
(0,0,0)
(0,0,0)
(0,0,0)
(0,0,0)
(0,0,0)
(0,0,0)
(0,0,0)
(0,0,0)
(0,0,0)
(0,0,0)
(0,0,0)
(0,0,0)
(0,0,0)
(0,0,0)
(0,0,0)
(0,0,0)
(0,0,0)
(0,0,0)
(0,0,0)
(0,0,0)
(0,0,0)
(0,0,0)
(0,0,0)
(0,0,0)
(0,0,0)
(0,0,0)
(0,0,0)
(0,0,0)
(0,0,0)
(0,0,0)
(0,0,0)
(0,0,0)
(0,0,0)
(0,0,0)
(0,0,0)
(0,0,0)
(0,0,0)
(0,0,0)
(0,0,0)
(0,0,0)
(0,0,0)
(0,0,0)
(0,0,0)
(0,0,0)
(0,0,0)
(0,0,0)
(0,0,0)
(0,0,0)
(0,0,0)
(0,0,0)
(0,0,0)
(0,0,0)
(0,0,0)
(0,0,0)
(0,0,0)
(0,0,0)
(0,0,0)
(0,0,0)
(0,0,0)
(0,0,0)
(0,0,0)
(0,0,0)
(0,0,0)
(0,0,0)
(0,0,0)
(0,0,0)
(0,0,0)
(0,0,0)
(0,0,0)
(0,0,0)
(0,0,0)
(0,0,0)
(0,0,0)
(0,0,0)
(0,0,0)
(0,0,0)
(0,0,0)
(0,0,0)
(0,0,0)
(0,0,0)
(0,0,0)
(0,0,0)
(0,0,0)
(0,0,0)
(0,0,0)
(0,0,0)
(0,0,0)
(0,0,0)
(0,0,0)
(0,0,0)
(0,0,0)
(0,0,0)
(0,0,0)
(0,0,0)
(0,0,0)
(0,0,0)
(0,0,0)
(0,0,0)
(0,0,0)
(0,0,0)
(0,0,0)
(0,0,0)
(0,0,0)
(0,0,0)
(0,0,0)
(0,0,0)
(0,0,0)
(0,0,0)
(0,0,0)
(0,0,0)
(0,0,0)
(0,0,0)
(0,0,0)
(0,0,0)
(0,0,0)
(0,0,0)
(0,0,0)
(0,0,0)
(0,0,0)
(0,0,0)
(0,0,0)
(0,0,0)
(0,0,0)
(0,0,0)
(0,0,0)
(0,0,0)
(0,0,0)
(0,0,0)
(0,0,0)
(0,0,0)
(0,0,0)
(0,0,0)
(0,0,0)
(0,0,0)
(0,0,0)
(0,0,0)
(0,0,0)
(0,0,0)
(0,0,0)
(0,0,0)
(0,0,0)
(0,0,0)
(0,0,0)
(0,0,0)
(0,0,0)
(0,0,0)
(0,0,0)
(0,0,0)
(0,0,0)
(0,0,0)
(0,0,0)
(0,0,0)
(0,0,0)
(0,0,0)
(0,0,0)
(0,0,0)
(0,0,0)
(0,0,0)
(0,0,0)
(0,0,0)
(0,0,0)
(0,0,0)
(0,0,0)
(0,0,0)
(0,0,0)
(0,0,0)
(0,0,0)
(0,0,0)
(0,0,0)
(0,0,0)
(0,0,0)
(0,0,0)
(0,0,0)
(0,0,0)
(0,0,0)
(0,0,0)
(0,0,0)
(0,0,0)
(0,0,0)
(0,0,0)
(0,0,0)
(0,0,0)
(0,0,0)
(0,0,0)
(0,0,0)
(0,0,0)
(0,0,0)
(0,0,0)
(0,0,0)
(0,0,0)
(0,0,0)
(0,0,0)
(0,0,0)
(0,0,0)
(0,0,0)
(0,0,0)
(0,0,0)
(0,0,0)
(0,0,0)
(0,0,0)
(0,0,0)
(0,0,0)
(0,0,0)
(0,0,0)
(0,0,0)
(0,0,0)
(0,0,0)
(0,0,0)
(0,0,0)
(0,0,0)
(0,0,0)
(0,0,0)
(0,0,0)
(0,0,0)
(0,0,0)
(0,0,0)
(0,0,0)
(0,0,0)
(0,0,0)
(0,0,0)
(0,0,0)
(0,0,0)
(0,0,0)
(0,0,0)
(0,0,0)
(0,0,0)
(0,0,0)
(0,0,0)
(0,0,0)
(0,0,0)
(0,0,0)
(0,0,0)
(0,0,0)
(0,0,0)
(0,0,0)
(0,0,0)
(0,0,0)
(0,0,0)
(0,0,0)
(0,0,0)
(0,0,0)
(0,0,0)
(0,0,0)
(0,0,0)
(0,0,0)
(0,0,0)
(0,0,0)
(0,0,0)
(0,0,0)
(0,0,0)
(0,0,0)
(0,0,0)
(0,0,0)
(0,0,0)
(0,0,0)
(0,0,0)
(0,0,0)
(0,0,0)
(0,0,0)
(0,0,0)
(0,0,0)
(0,0,0)
(0,0,0)
(0,0,0)
(0,0,0)
(0,0,0)
(0,0,0)
(0,0,0)
(0,0,0)
(0,0,0)
(0,0,0)
(0,0,0)
(0,0,0)
(0,0,0)
(0,0,0)
(0,0,0)
(0,0,0)
(0,0,0)
(0,0,0)
(0,0,0)
(0,0,0)
(0,0,0)
(0,0,0)
(0,0,0)
(0,0,0)
(0,0,0)
(0,0,0)
(0,0,0)
(0,0,0)
(0,0,0)
(0,0,0)
(0,0,0)
(0,0,0)
(0,0,0)
(0,0,0)
(0,0,0)
(0,0,0)
(0,0,0)
(0,0,0)
(0,0,0)
(0,0,0)
(0,0,0)
(0,0,0)
(0,0,0)
(0,0,0)
(0,0,0)
(0,0,0)
(0,0,0)
(0,0,0)
(0,0,0)
(0,0,0)
(0,0,0)
(0,0,0)
(0,0,0)
(0,0,0)
(0,0,0)
(0,0,0)
(0,0,0)
(0,0,0)
(0,0,0)
(0,0,0)
(0,0,0)
(0,0,0)
(0,0,0)
(0,0,0)
(0,0,0)
(0,0,0)
(0,0,0)
(0,0,0)
(0,0,0)
(0,0,0)
(0,0,0)
(0,0,0)
(0,0,0)
(0,0,0)
(0,0,0)
(0,0,0)
(0,0,0)
(0,0,0)
(0,0,0)
(0,0,0)
(0,0,0)
(0,0,0)
(0,0,0)
(0,0,0)
(0,0,0)
(0,0,0)
(0,0,0)
(0,0,0)
(0,0,0)
(0,0,0)
(0,0,0)
(0,0,0)
(0,0,0)
(0,0,0)
(0,0,0)
(0,0,0)
(0,0,0)
(0,0,0)
(0,0,0)
(0,0,0)
(0,0,0)
(0,0,0)
(0,0,0)
(0,0,0)
(0,0,0)
(0,0,0)
(0,0,0)
(0,0,0)
(0,0,0)
(0,0,0)
(0,0,0)
(0,0,0)
(0,0,0)
(0,0,0)
(0,0,0)
(0,0,0)
(0,0,0)
(0,0,0)
(0,0,0)
(0,0,0)
(0,0,0)
(0,0,0)
(0,0,0)
(0,0,0)
(0,0,0)
(0,0,0)
(0,0,0)
(0,0,0)
(0,0,0)
(0,0,0)
(0,0,0)
(0,0,0)
(0,0,0)
(0,0,0)
(0,0,0)
(0,0,0)
(0,0,0)
(0,0,0)
(0,0,0)
(0,0,0)
(0,0,0)
(0,0,0)
(0,0,0)
(0,0,0)
(0,0,0)
(0,0,0)
(0,0,0)
(0,0,0)
(0,0,0)
(0,0,0)
(0,0,0)
(0,0,0)
(0,0,0)
(0,0,0)
(0,0,0)
(0,0,0)
(0,0,0)
(0,0,0)
(0,0,0)
(0,0,0)
(0,0,0)
(0,0,0)
(0,0,0)
(0,0,0)
(0,0,0)
(0,0,0)
(0,0,0)
(0,0,0)
(0,0,0)
(0,0,0)
(0,0,0)
(0,0,0)
(0,0,0)
(0,0,0)
(0,0,0)
(0,0,0)
(0,0,0)
(0,0,0)
(0,0,0)
(0,0,0)
(0,0,0)
(0,0,0)
(0,0,0)
(0,0,0)
(0,0,0)
(0,0,0)
(0,0,0)
(0,0,0)
(0,0,0)
(0,0,0)
(0,0,0)
(0,0,0)
(0,0,0)
(0,0,0)
(0,0,0)
(0,0,0)
(0,0,0)
(0,0,0)
(0,0,0)
(0,0,0)
(0,0,0)
(0,0,0)
(0,0,0)
(0,0,0)
(0,0,0)
(0,0,0)
(0,0,0)
(0,0,0)
(0,0,0)
(0,0,0)
(0,0,0)
(0,0,0)
(0,0,0)
(0,0,0)
(0,0,0)
(0,0,0)
(0,0,0)
(0,0,0)
(0,0,0)
(0,0,0)
(0,0,0)
(-160971.115806711,85454.275495711,75516.8403109988)
(-170212.892839042,81949.2117262227,163780.521423817)
(-191614.586995045,74569.4959170718,280825.612501787)
(-232105.106037218,62990.1104918341,449940.608047181)
(-305163.703527328,47429.1774378096,707675.134136699)
(-436305.498473408,29510.2066365359,1114470.42597358)
(-673779.486195511,13248.5545799669,1775001.35758914)
(-1102980.32659604,3312.49780746951,2874669.18637773)
(-1819116.29966478,29.0311539298119,4693756.45488854)
(-2534521.34390473,-230.322734264871,7228508.12152762)
(0,0,0)
(0,0,0)
(0,0,0)
(0,0,0)
(0,0,0)
(0,0,0)
(-170216.658250003,183691.715821701,71979.2179240119)
(-179561.298792809,177059.502581135,156430.22586191)
(-201323.961146105,163047.003069966,269276.679855119)
(-242773.670214306,140714.784934724,434325.675626534)
(-317857.560570446,109884.378311118,689728.035323669)
(-452139.145574399,73232.8583046473,1098144.52922995)
(-692233.069887622,38648.3375450014,1764977.81615253)
(-1119816.24496314,16779.6170312989,2871326.9418918)
(-1830348.90840853,8219.42927287293,4693485.45218144)
(-2539769.41697315,4243.90867180772,7228780.6377484)
(0,0,0)
(0,0,0)
(0,0,0)
(0,0,0)
(0,0,0)
(0,0,0)
(-191362.093675455,309756.638744715,65297.1707524398)
(-200867.850521645,300850.748480395,142373.775374829)
(-223338.952781344,281851.685117015,246908.046109129)
(-266868.954325056,251030.090775151,403461.694593758)
(-346757.518870634,207081.015797116,653022.57597838)
(-489389.38304286,152243.617420797,1063401.19990509)
(-737747.222954793,96853.4646746058,1742943.29573029)
(-1161711.4581052,58843.974263005,2862590.39660373)
(-1857325.19386573,38799.2494743736,4689335.77026802)
(-2551993.93898804,21080.4721924682,7224493.14573541)
(0,0,0)
(0,0,0)
(0,0,0)
(0,0,0)
(0,0,0)
(0,0,0)
(-230837.962963698,484246.830000125,56347.7717082891)
(-240523.622877512,474314.85020111,123407.292865088)
(-263860.526939697,453003.70097082,216115.80395097)
(-310397.911009101,417993.004245039,359550.801490175)
(-398215.635687649,366729.508683616,598117.944291336)
(-556862.554550428,299447.181660878,1007776.93460168)
(-824946.944636458,224863.144912865,1704714.19899987)
(-1242792.42392321,163971.121381542,2842379.47580452)
(-1906761.85833596,116540.510045119,4671400.07356966)
(-2573548.39009258,62738.3837682723,7203290.55208663)
(0,0,0)
(0,0,0)
(0,0,0)
(0,0,0)
(0,0,0)
(0,0,0)
(-301676.893352614,739504.787775427,46418.9355773055)
(-311344.63019637,729853.337680751,102225.078294032)
(-335152.983507909,709149.223991788,181232.538780973)
(-384203.9404069,675026.721322607,308402.762110306)
(-480192.035087396,624511.091639381,530813.214241936)
(-658638.185827831,555922.838603678,932975.74312695)
(-957749.750180747,471984.331098328,1643604.30712224)
(-1366292.52293846,379136.030204632,2794731.92123765)
(-1978646.46289416,272572.695091466,4617346.19908556)
(-2604723.7526251,144472.230486865,7140336.10499207)
(0,0,0)
(0,0,0)
(0,0,0)
(0,0,0)
(0,0,0)
(0,0,0)
(-429645.107393076,1132407.31546279,36742.57970572)
(-438802.550966491,1123799.64078815,81598.8275648013)
(-461814.400320929,1105355.42586397,147207.026013556)
(-510364.038394319,1074623.72999085,257974.055739626)
(-607357.318689913,1027606.69073756,462235.775331366)
(-789186.467218968,958453.963570092,848891.117583928)
(-1089208.99743185,859496.64602816,1550587.80008594)
(-1479219.38952746,721009.269414865,2687933.95040319)
(-2056481.53765925,527967.015849255,4489021.1673047)
(-2643941.28207638,281833.567482032,6995601.11238587)
(0,0,0)
(0,0,0)
(0,0,0)
(0,0,0)
(0,0,0)
(0,0,0)
(-664478.472756047,1768784.86992186,28100.9182969756)
(-672566.019410266,1761283.00959152,63183.568903888)
(-693202.951102528,1745192.9889849,116548.956885483)
(-737544.896825463,1717730.12165495,210987.462046843)
(-827626.059502338,1673201.63540729,393018.576879448)
(-998439.064417201,1600148.62105372,749762.983813034)
(-1279982.47105988,1477322.80380105,1411919.29710004)
(-1634640.53014067,1272894.83167505,2494674.26498052)
(-2172486.69367353,952440.694370547,4242687.2801327)
(-2707944.78419642,518957.192942819,6713508.43886843)
(0,0,0)
(0,0,0)
(0,0,0)
(0,0,0)
(0,0,0)
(0,0,0)
(-1093855.83832938,2842022.41060852,20618.2976427019)
(-1100322.01469661,2835140.72073684,47082.6011940036)
(-1116943.12074171,2820143.9925172,89074.7184034371)
(-1153028.09412754,2793436.3455755,166396.588610414)
(-1227063.92730248,2746847.54031269,319814.6110075)
(-1369044.97289649,2662302.91540119,626705.289556495)
(-1604797.39872343,2501641.02543061,1207184.46665032)
(-1891905.98215693,2198098.83697633,2173886.44350599)
(-2383139.28340242,1700578.21011234,3808888.2111666)
(-2830348.37509074,963953.523449772,6194240.25575034)
(0,0,0)
(0,0,0)
(0,0,0)
(0,0,0)
(0,0,0)
(0,0,0)
(-1812845.25581474,4641032.08196641,13835.5844568449)
(-1817271.48445098,4634128.48044237,32119.3092022859)
(-1828575.16090172,4618500.60458596,62337.8580351914)
(-1852834.63056588,4588928.81291101,119680.02126554)
(-1901723.53102955,4533233.13562265,235017.956985142)
(-1993595.08515494,4425185.22254494,465730.734996357)
(-2147917.82095393,4211966.43058315,903323.150797759)
(-2377255.48777371,3802610.08922458,1676067.38632325)
(-2771693.9438337,3076395.52791964,3071944.01234954)
(-3043848.21838877,1849747.24052332,5229998.51366479)
(0,0,0)
(0,0,0)
(0,0,0)
(0,0,0)
(0,0,0)
(0,0,0)
(-2531631.42392134,7165618.00463291,7045.50125483459)
(-2533851.64522958,7158467.21338284,16558.4135439221)
(-2539471.05173374,7141821.65031456,32708.419549068)
(-2551370.89464577,7109176.71173682,63831.4153690853)
(-2575041.3970411,7045426.78799992,126679.160032915)
(-2619289.84366976,6918938.07741346,252216.148834104)
(-2696523.90220703,6666970.94250038,493735.539123874)
(-2826689.61164491,6173454.7088832,949580.531110145)
(-3043133.59784315,5224162.91334748,1844946.74352538)
(-3064748.02166322,3379536.95712279,3379905.04858918)
(0,0,0)
(0,0,0)
(0,0,0)
(0,0,0)
(0,0,0)
(0,0,0)
(0,0,0)
(0,0,0)
(0,0,0)
(0,0,0)
(0,0,0)
(0,0,0)
(0,0,0)
(0,0,0)
(0,0,0)
(0,0,0)
(0,0,0)
(0,0,0)
(0,0,0)
(0,0,0)
(0,0,0)
(0,0,0)
(0,0,0)
(0,0,0)
(0,0,0)
(0,0,0)
(0,0,0)
(0,0,0)
(0,0,0)
(0,0,0)
(0,0,0)
(0,0,0)
(0,0,0)
(0,0,0)
(0,0,0)
(0,0,0)
(0,0,0)
(0,0,0)
(0,0,0)
(0,0,0)
(0,0,0)
(0,0,0)
(0,0,0)
(0,0,0)
(0,0,0)
(0,0,0)
(0,0,0)
(0,0,0)
(0,0,0)
(0,0,0)
(0,0,0)
(0,0,0)
(0,0,0)
(0,0,0)
(0,0,0)
(0,0,0)
(0,0,0)
(0,0,0)
(0,0,0)
(0,0,0)
(0,0,0)
(0,0,0)
(0,0,0)
(0,0,0)
(0,0,0)
(0,0,0)
(0,0,0)
(0,0,0)
(0,0,0)
(0,0,0)
(0,0,0)
(0,0,0)
(0,0,0)
(0,0,0)
(0,0,0)
(0,0,0)
(0,0,0)
(0,0,0)
(0,0,0)
(0,0,0)
(0,0,0)
(0,0,0)
(0,0,0)
(0,0,0)
(0,0,0)
(0,0,0)
(0,0,0)
(0,0,0)
(0,0,0)
(0,0,0)
(0,0,0)
(0,0,0)
(0,0,0)
(0,0,0)
(0,0,0)
(0,0,0)
(0,0,0)
(0,0,0)
(0,0,0)
(0,0,0)
(0,0,0)
(0,0,0)
(23768742.9993338,76186.0784411319,66223.634074788)
(23753275.7258142,72578.8740169957,142279.969061165)
(23717700.1551137,64858.856639272,240230.197969559)
(23651134.4005125,52349.1089593397,376765.410116892)
(23532569.1835881,34753.7033629519,576402.647294856)
(23321671.5452286,13670.0061527315,876879.425096528)
(22934728.8768649,-5227.17337488002,1345722.06306727)
(22170009.4498029,-13530.8221397116,2158386.93646452)
(20444517.0877065,-11205.4432216521,3978082.81997139)
(15758506.6504854,-5479.9658550343,9762658.61909277)
(0,0,0)
(0,0,0)
(0,0,0)
(0,0,0)
(0,0,0)
(0,0,0)
(23752995.5595733,162502.166999584,62595.5212746942)
(23737469.6046585,155688.288432906,134579.031064003)
(23701542.9684335,140976.138891013,227718.646889121)
(23633707.5270489,116591.582852855,359118.803388875)
(23511888.4280542,80960.8534995402,555289.492284168)
(23295069.8154519,35956.5960162716,857917.769050727)
(22902186.1788879,-6913.09564603204,1337308.27020291)
(22140631.4052209,-25182.2139125891,2160635.83944817)
(20426257.2435917,-18826.3739087413,3983774.44579134)
(15750511.7091393,-8026.87973208768,9768164.0612123)
(0,0,0)
(0,0,0)
(0,0,0)
(0,0,0)
(0,0,0)
(0,0,0)
(23717259.4203605,270240.952479365,55763.5281406222)
(23701685.9792963,261164.249628792,119857.564783202)
(23665035.5564447,241288.699010215,203294.323094513)
(23594212.0287705,207471.870696093,323456.879812321)
(23463929.7511192,155606.726157087,510247.564821437)
(23229290.6594511,84746.2304718895,814901.71552836)
(22813887.7044897,9611.00554958538,1318866.51454474)
(22059595.7393808,-22322.1091890042,2166823.03999168)
(20379140.3638162,-10736.1976486476,3994391.13370593)
(15730956.1499438,-544.504870624534,9776082.4975692)
(0,0,0)
(0,0,0)
(0,0,0)
(0,0,0)
(0,0,0)
(0,0,0)
(23651435.6813809,413420.002205644,46671.1335854895)
(23635857.4418994,403523.083665228,100055.062428645)
(23598313.2002147,381763.73685629,169530.125084602)
(23522845.0271347,344230.881999781,271652.003293645)
(23376999.9128454,284793.16839628,439373.840177965)
(23102124.23122,197682.14678778,739574.965748136)
(22617575.3888533,92051.5794260064,1286735.88603854)
(21875048.5571765,40453.0805165896,2178243.54288979)
(20283887.1185267,44629.0651348646,4004353.13089991)
(15694384.6859064,31546.0339053027,9776453.34378161)
(0,0,0)
(0,0,0)
(0,0,0)
(0,0,0)
(0,0,0)
(0,0,0)
(23535396.7445942,611682.908637393,36787.283277859)
(23520168.7052587,602489.672760454,78431.18638398)
(23482435.0527345,582571.694623388,132159.020031114)
(23403031.0452343,548921.661312366,212357.082733733)
(23239406.9755049,497400.57680819,352274.491386086)
(22904262.3604865,425419.057272571,633760.862243529)
(22264690.4578538,340552.989786749,1234943.07150476)
(21532819.8869758,266222.164329029,2182185.40543464)
(20134549.3664536,194727.454081559,3991015.01479656)
(15639974.8384288,105264.26000933,9744722.02529494)
(0,0,0)
(0,0,0)
(0,0,0)
(0,0,0)
(0,0,0)
(0,0,0)
(23328878.6419935,897691.036994293,27591.9499128979)
(23314716.7933602,890105.982458363,58580.1235446927)
(23278799.5834109,874024.581694099,98637.0803986789)
(23200877.3151927,847492.944580352,160948.271200283)
(23035391.4979624,807396.331634385,280327.527378189)
(22690683.5808671,749219.599568132,548780.764653011)
(22043083.229288,668695.293465488,1160470.06191097)
(21343558.9551447,565558.34918112,2110479.36004314)
(20007550.842192,411954.108409929,3901344.15352)
(15577673.8501284,217855.551563472,9639261.55741734)
(0,0,0)
(0,0,0)
(0,0,0)
(0,0,0)
(0,0,0)
(0,0,0)
(22945914.6869179,1339431.37404512,19990.3309316617)
(22933590.7658773,1333550.6902886,42512.6654703773)
(22901787.8992758,1321481.27178189,72188.9526608069)
(22831089.907848,1302299.43577006,120871.484454011)
(22676826.2229439,1273835.19138944,222104.169909246)
(22347276.2883638,1229602.03028515,468130.214067653)
(21719253.8932543,1152523.64249361,1057189.32838171)
(21087929.402701,1015610.81654425,1956690.75583342)
(19819426.185534,741799.619803882,3707056.19288827)
(15471311.2322811,396572.041119379,9421207.51451142)
(0,0,0)
(0,0,0)
(0,0,0)
(0,0,0)
(0,0,0)
(0,0,0)
(22180583.8846705,2122971.5381004,14143.9406013411)
(22170874.34586,2118176.02746636,30446.0705234125)
(22145555.3801426,2108524.79186842,53027.8772090123)
(22088432.3994613,2093622.12542761,92368.5216190995)
(21961333.5633663,2072162.58562315,177767.464372932)
(21681833.5831137,2037722.99159796,390891.774706571)
(21132199.5937955,1958477.25277044,920064.999567306)
(20720558.6949612,1712710.45984337,1682624.50680642)
(19439831.4966529,1312019.55292233,3361557.62128907)
(15225082.0709541,750458.041356396,9024365.00266366)
(0,0,0)
(0,0,0)
(0,0,0)
(0,0,0)
(0,0,0)
(0,0,0)
(20450701.5442527,3922124.80153347,9423.76415599587)
(20444148.6616905,3917472.23449225,20831.2386451567)
(20427233.5235637,3907556.60511956,38114.5685850321)
(20389888.7811261,3890324.80508878,70812.3048882864)
(20310377.0149817,3859865.57199391,143132.600162632)
(20148560.7778372,3799430.71886555,311392.837559453)
(19856793.5555319,3663280.27833255,674002.263168068)
(19446839.0091742,3353118.3381983,1281623.71552174)
(18289496.578086,2804902.68349973,2799673.89068107)
(14475975.3823148,1828805.42762606,8273626.73136429)
(0,0,0)
(0,0,0)
(0,0,0)
(0,0,0)
(0,0,0)
(0,0,0)
(15760776.167413,9697009.44430474,4831.59355081173)
(15757515.2151411,9692117.28770343,10943.507625251)
(15749215.9168531,9681129.38068707,20807.5911273497)
(15731297.5733788,9660399.59319149,40188.1626566995)
(15694335.7349213,9620348.75313871,82451.6772060547)
(15621625.7576182,9538097.01134443,174993.611095745)
(15486964.806017,9363328.37456236,363580.63429837)
(15228989.4742386,9000013.63804254,733130.076227295)
(14476571.5540532,8267175.4521569,1823275.98333032)
(11770742.1171858,6444184.1260308,6444530.97373301)
(0,0,0)
(0,0,0)
(0,0,0)
(0,0,0)
(0,0,0)
(0,0,0)
(0,0,0)
(0,0,0)
(0,0,0)
(0,0,0)
(0,0,0)
(0,0,0)
(0,0,0)
(0,0,0)
(0,0,0)
(0,0,0)
(0,0,0)
(0,0,0)
(0,0,0)
(0,0,0)
(0,0,0)
(0,0,0)
(0,0,0)
(0,0,0)
(0,0,0)
(0,0,0)
(0,0,0)
(0,0,0)
(0,0,0)
(0,0,0)
(0,0,0)
(0,0,0)
(0,0,0)
(0,0,0)
(0,0,0)
(0,0,0)
(0,0,0)
(0,0,0)
(0,0,0)
(0,0,0)
(0,0,0)
(0,0,0)
(0,0,0)
(0,0,0)
(0,0,0)
(0,0,0)
(0,0,0)
(0,0,0)
(0,0,0)
(0,0,0)
(0,0,0)
(0,0,0)
(0,0,0)
(0,0,0)
(0,0,0)
(0,0,0)
(0,0,0)
(0,0,0)
(0,0,0)
(0,0,0)
(0,0,0)
(0,0,0)
(0,0,0)
(0,0,0)
(0,0,0)
(0,0,0)
(0,0,0)
(0,0,0)
(0,0,0)
(0,0,0)
(0,0,0)
(0,0,0)
(0,0,0)
(0,0,0)
(0,0,0)
(0,0,0)
(0,0,0)
(0,0,0)
(0,0,0)
(0,0,0)
(0,0,0)
(0,0,0)
(0,0,0)
(0,0,0)
(0,0,0)
(0,0,0)
(0,0,0)
(0,0,0)
(0,0,0)
(0,0,0)
(0,0,0)
(0,0,0)
(0,0,0)
(0,0,0)
(0,0,0)
(0,0,0)
(0,0,0)
(0,0,0)
(0,0,0)
(0,0,0)
(0,0,0)
(0,0,0)
(-414380.886667786,60359.6444691993,50640.4138759563)
(-431443.673219434,56719.4933661597,106516.491886814)
(-470086.445684805,48698.2535482059,173481.011480704)
(-540455.597369718,34942.114466033,258005.067240494)
(-660925.155406018,14088.3814960193,365287.197082257)
(-861933.966000902,-12918.7494730497,489687.630128388)
(-1190686.15418341,-37751.9490823691,580730.782602756)
(-1711033.23093626,-42882.285033314,432531.920718739)
(-2457138.9860045,-29460.8779497962,-708474.955276933)
(-3011947.67023673,-13476.7469539322,-5996667.71525724)
(0,0,0)
(0,0,0)
(0,0,0)
(0,0,0)
(0,0,0)
(0,0,0)
(-432409.029508319,126650.860617459,46989.5452769079)
(-449210.644432896,119764.433318714,98501.0267592204)
(-487463.756049503,104361.04709478,159721.130039184)
(-557899.192628814,77019.5320167978,237126.604509659)
(-680198.315758215,32934.9974504962,338242.904711086)
(-886675.231457423,-29846.7652328405,464792.1397238)
(-1223161.14460665,-95241.8854187227,575505.571898167)
(-1738490.67588494,-106276.489238081,445898.029552321)
(-2470905.34399272,-66004.8048418371,-692519.283627504)
(-3016822.26410983,-27606.5591241341,-5983179.32586455)
(0,0,0)
(0,0,0)
(0,0,0)
(0,0,0)
(0,0,0)
(0,0,0)
(-472707.97914119,204357.090280897,40137.342181894)
(-488950.183816785,195283.574123413,83130.5368338656)
(-526505.828573633,174530.029005131,132379.112285288)
(-597633.307933739,136077.117110932,193043.036238802)
(-726285.411208857,68650.2848417668,275419.083519083)
(-954097.632508367,-42420.9648591618,399257.747448369)
(-1331797.97250143,-186724.564822241,564302.276186528)
(-1833578.89415919,-206948.259742142,486024.85257407)
(-2512612.88599325,-106068.163946119,-654282.366168463)
(-3030203.6826755,-37164.4698617362,-5955688.45046812)
(0,0,0)
(0,0,0)
(0,0,0)
(0,0,0)
(0,0,0)
(0,0,0)
(-544836.812364892,297416.464160644,31089.2922096732)
(-560249.055458343,287877.552184245,62477.9838500807)
(-596749.686896155,265942.716858978,94004.355450657)
(-669344.83367817,224450.246027419,125697.259690506)
(-812348.571712549,147203.929111224,164368.272322444)
(-1102687.84593137,-203.68172977092,254839.23868796)
(-1669490.53675709,-260885.034972686,543941.806792194)
(-2145025.617837,-301818.371987832,586762.266394857)
(-2617215.12218284,-104747.688499263,-585579.795998765)
(-3058911.6629353,-22883.9081552256,-5918687.83652012)
(0,0,0)
(0,0,0)
(0,0,0)
(0,0,0)
(0,0,0)
(0,0,0)
(-666167.705941344,405292.969973371,21564.1170663931)
(-680305.118587766,397121.341268679,40670.3241720054)
(-714769.140834905,379010.254985095,52683.1519586445)
(-787379.708672949,346810.687179261,48609.6370576481)
(-947311.836390568,293403.070043789,17005.480363997)
(-1356928.99136617,211820.252510318,-5950.92967998181)
(-2696009.42038136,118865.026690259,502875.059235668)
(-3198785.38495817,76922.8959166464,783615.235608624)
(-2822445.03531262,67682.5118718903,-503944.390652695)
(-3105979.57026165,42948.2817805315,-5895945.99955436)
(0,0,0)
(0,0,0)
(0,0,0)
(0,0,0)
(0,0,0)
(0,0,0)
(-866179.148402227,514819.967898389,13406.9648143405)
(-878540.316403799,509042.930679651,22618.6575109812)
(-909400.985127894,497079.29748503,20626.3558933104)
(-976905.173972714,477755.995013357,-4660.29043197407)
(-1132372.15092118,448878.958321259,-64496.3574822736)
(-1540935.94638712,405784.336458299,-98964.7418324804)
(-2814625.41828101,344781.482736681,460703.622033528)
(-3274969.07594962,309888.116500995,774142.604887016)
(-2917675.80507145,223817.489482052,-528889.553116246)
(-3152876.0359946,111521.90962103,-5939037.12249001)
(0,0,0)
(0,0,0)
(0,0,0)
(0,0,0)
(0,0,0)
(0,0,0)
(-1193100.34264291,574068.437269976,7642.73253276803)
(-1203289.58712765,570788.56873583,10653.6198250246)
(-1229230.26901838,565230.561585636,1396.6963620233)
(-1288028.50700521,559659.518683603,-33512.2401113885)
(-1430747.28601198,558394.998002155,-107578.598492924)
(-1830794.39992239,564176.418358877,-160023.819763726)
(-3159255.49047486,565461.61135405,425681.607691718)
(-3584765.1150641,648219.917753499,687920.496547848)
(-3061808.80623585,362219.11601195,-641369.965868485)
(-3230328.69911163,150364.150650402,-6050696.1031617)
(0,0,0)
(0,0,0)
(0,0,0)
(0,0,0)
(0,0,0)
(0,0,0)
(-1714850.65145647,392972.280493833,4406.86524662463)
(-1722510.72981242,391378.460971617,5078.22102681187)
(-1742306.56068611,390182.083436479,-4135.18765177007)
(-1788415.78185452,395051.192586733,-34802.5078955634)
(-1906515.11766067,421169.597026384,-101852.253549141)
(-2273515.05245169,504398.950573689,-158849.977855176)
(-3724655.79830949,683025.441355786,508317.756591586)
(-3035777.01654297,438980.396957025,401769.161235789)
(-3176575.37870054,161705.032510315,-853433.707565468)
(-3350230.28362391,1371.04677991562,-6201252.07677334)
(0,0,0)
(0,0,0)
(0,0,0)
(0,0,0)
(0,0,0)
(0,0,0)
(-2463308.53613927,-767999.938640319,2858.4718696182)
(-2468286.96718104,-769332.141743737,3880.87579998858)
(-2480975.73130063,-770578.247893482,726.634337859752)
(-2509319.91941786,-768377.811301283,-8759.48888658133)
(-2574333.89466103,-756255.832690186,-18746.9771836492)
(-2729893.24013934,-727606.18543222,19588.3491422243)
(-3070057.87834391,-706673.437551229,264014.834268537)
(-3181681.53546117,-864836.951224837,124228.899429249)
(-3474531.37808937,-1008122.17354388,-1014039.76599759)
(-3529527.56461756,-876471.280416217,-6202818.31952558)
(0,0,0)
(0,0,0)
(0,0,0)
(0,0,0)
(0,0,0)
(0,0,0)
(-3016722.52419778,-6064190.14227954,1565.06759353905)
(-3019154.39163232,-6065845.01375789,2623.71872465284)
(-3025233.2675501,-6068490.26339303,2861.09097102149)
(-3038323.55942581,-6071252.75616272,3233.34098048111)
(-3066247.90539223,-6074305.18400727,9742.50495461383)
(-3124821.8984152,-6083866.59134675,40326.7392460044)
(-3233099.50369668,-6123997.80342054,105591.587172551)
(-3353712.8359524,-6229350.09688698,-19316.7846309928)
(-3530574.21858057,-6209761.09356687,-882655.919630773)
(-3407166.90180821,-5326808.94281738,-5326533.06589215)
(0,0,0)
(0,0,0)
(0,0,0)
(0,0,0)
(0,0,0)
(0,0,0)
(0,0,0)
(0,0,0)
(0,0,0)
(0,0,0)
(0,0,0)
(0,0,0)
(0,0,0)
(0,0,0)
(0,0,0)
(0,0,0)
(0,0,0)
(0,0,0)
(0,0,0)
(0,0,0)
(0,0,0)
(0,0,0)
(0,0,0)
(0,0,0)
(0,0,0)
(0,0,0)
(0,0,0)
(0,0,0)
(0,0,0)
(0,0,0)
(0,0,0)
(0,0,0)
(0,0,0)
(0,0,0)
(0,0,0)
(0,0,0)
(0,0,0)
(0,0,0)
(0,0,0)
(0,0,0)
(0,0,0)
(0,0,0)
(0,0,0)
(0,0,0)
(0,0,0)
(0,0,0)
(0,0,0)
(0,0,0)
(0,0,0)
(0,0,0)
(0,0,0)
(0,0,0)
(0,0,0)
(0,0,0)
(0,0,0)
(0,0,0)
(0,0,0)
(0,0,0)
(0,0,0)
(0,0,0)
(0,0,0)
(0,0,0)
(0,0,0)
(0,0,0)
(0,0,0)
(0,0,0)
(0,0,0)
(0,0,0)
(0,0,0)
(0,0,0)
(0,0,0)
(0,0,0)
(0,0,0)
(0,0,0)
(0,0,0)
(0,0,0)
(0,0,0)
(0,0,0)
(0,0,0)
(0,0,0)
(0,0,0)
(0,0,0)
(0,0,0)
(0,0,0)
(0,0,0)
(0,0,0)
(0,0,0)
(0,0,0)
(0,0,0)
(0,0,0)
(0,0,0)
(0,0,0)
(0,0,0)
(0,0,0)
(0,0,0)
(0,0,0)
(0,0,0)
(0,0,0)
(0,0,0)
(0,0,0)
(0,0,0)
(0,0,0)
(-490061.455404262,42240.8818507247,33439.6868857512)
(-504569.382381753,38891.2923425789,67674.1037054956)
(-536559.191741221,31276.6379977972,102870.211764117)
(-592341.735599369,17464.5327147935,137291.817278973)
(-682404.70876952,-5199.67362595231,163971.044268427)
(-820851.335635837,-37656.2672394554,160544.681142816)
(-1019859.52135168,-70213.8298743641,59931.8781854485)
(-1266666.29441139,-70345.4081656649,-314089.650173754)
(-1464037.47213962,-43255.0780343885,-1263936.08600421)
(-1272129.18525371,-18365.1050990705,-2985389.46588813)
(0,0,0)
(0,0,0)
(0,0,0)
(0,0,0)
(0,0,0)
(0,0,0)
(-506462.793581858,86195.6809722598,30098.9649520014)
(-520164.219517314,79869.8164347622,60074.0159442387)
(-550364.848026753,65190.1880502132,89061.557869077)
(-603161.64859051,37201.26341844,114587.283127121)
(-689096.003262507,-13176.1308002381,131461.427805694)
(-823572.307901186,-97237.1205818212,127939.357591825)
(-1021321.96556439,-203865.883777497,59752.2324527066)
(-1260642.51816691,-201414.267065997,-287027.06636499)
(-1454324.71734912,-107793.470398572,-1239069.30064439)
(-1266166.30587345,-41031.3908214063,-2967058.97315852)
(0,0,0)
(0,0,0)
(0,0,0)
(0,0,0)
(0,0,0)
(0,0,0)
(-542419.726139628,132070.527488664,23836.9004820389)
(-554533.975972362,123857.256515964,45433.2525564125)
(-581186.983521491,104210.607180667,61093.9883738152)
(-627893.070584143,64355.8681318271,64199.1463108326)
(-705249.759280056,-17365.7489672795,47353.1125490701)
(-834277.287037915,-190922.010721033,21217.6572178129)
(-1052228.46714873,-524329.347292306,62111.6153799145)
(-1261029.62800613,-518366.801398695,-193485.116440461)
(-1430772.4721002,-210690.800025875,-1172428.20070622)
(-1251611.2441394,-65902.6439057576,-2926149.38615799)
(0,0,0)
(0,0,0)
(0,0,0)
(0,0,0)
(0,0,0)
(0,0,0)
(-604480.813456422,176057.096565454,15657.4320147477)
(-614396.34680448,167791.998222614,25869.9816542416)
(-635879.51738286,147917.659133849,21292.7601877685)
(-672693.50876835,106468.853243209,-17471.5498334321)
(-733310.185593075,12301.9617422693,-126177.646662452)
(-853136.518212437,-254396.687700342,-312254.297402083)
(-1286760.99202332,-1287328.01297968,68014.8235515299)
(-1354007.58482988,-1355507.36831914,114137.357464836)
(-1376061.55259924,-309951.373353379,-1027755.63879127)
(-1222233.68592801,-69966.9356842382,-2860369.32402015)
(0,0,0)
(0,0,0)
(0,0,0)
(0,0,0)
(0,0,0)
(0,0,0)
(-702788.900084994,205282.855071272,7395.43563783174)
(-710092.130885819,198878.972629665,6095.47352883497)
(-725093.57534193,184382.670295227,-20045.1031255074)
(-746758.449817247,157317.028263051,-111514.53700105)
(-762074.437305805,108357.341554948,-392807.315898498)
(-686701.412713939,27773.0991559788,-1345204.68140705)
(-7.49427113778835e-05,-2.02022341946556e-05,4.85918993341244e-05)