/*--------------------------------*- C++ -*----------------------------------*\
| =========                 |                                                 |
| \\      /  F ield         | foam-extend: Open Source CFD                    |
|  \\    /   O peration     | Version:     4.0                                |
|   \\  /    A nd           | Web:         http://www.foam-extend.org         |
|    \\/     M anipulation  |                                                 |
\*---------------------------------------------------------------------------*/
FoamFile
{
    version 2.0;
    format ascii;
    class volVectorField;
    location "3368";
    object      E;
}
// * * * * * * * * * * * * * * * * * * * * * * * * * * * * * * * * * * * * * //

dimensions      [0 1 -1 0 0 0 0];

internalField   nonuniform List<vector>
4096
(
(0,0,0)
(0,0,0)
(0,0,0)
(0,0,0)
(0,0,0)
(0,0,0)
(0,0,0)
(0,0,0)
(0,0,0)
(0,0,0)
(0,0,0)
(0,0,0)
(0,0,0)
(0,0,0)
(0,0,0)
(0,0,0)
(0,0,0)
(0,0,0)
(0,0,0)
(0,0,0)
(0,0,0)
(0,0,0)
(0,0,0)
(0,0,0)
(0,0,0)
(0,0,0)
(0,0,0)
(0,0,0)
(0,0,0)
(0,0,0)
(0,0,0)
(0,0,0)
(0,0,0)
(0,0,0)
(0,0,0)
(0,0,0)
(0,0,0)
(0,0,0)
(0,0,0)
(0,0,0)
(0,0,0)
(0,0,0)
(0,0,0)
(0,0,0)
(0,0,0)
(0,0,0)
(0,0,0)
(0,0,0)
(0,0,0)
(0,0,0)
(0,0,0)
(0,0,0)
(0,0,0)
(0,0,0)
(0,0,0)
(0,0,0)
(0,0,0)
(0,0,0)
(0,0,0)
(0,0,0)
(0,0,0)
(0,0,0)
(0,0,0)
(0,0,0)
(0,0,0)
(0,0,0)
(0,0,0)
(0,0,0)
(0,0,0)
(0,0,0)
(0,0,0)
(0,0,0)
(0,0,0)
(0,0,0)
(0,0,0)
(0,0,0)
(0,0,0)
(0,0,0)
(0,0,0)
(0,0,0)
(0,0,0)
(0,0,0)
(0,0,0)
(0,0,0)
(0,0,0)
(0,0,0)
(0,0,0)
(0,0,0)
(0,0,0)
(0,0,0)
(0,0,0)
(0,0,0)
(0,0,0)
(0,0,0)
(0,0,0)
(0,0,0)
(0,0,0)
(0,0,0)
(0,0,0)
(0,0,0)
(0,0,0)
(0,0,0)
(0,0,0)
(0,0,0)
(0,0,0)
(0,0,0)
(0,0,0)
(0,0,0)
(0,0,0)
(0,0,0)
(0,0,0)
(0,0,0)
(0,0,0)
(0,0,0)
(0,0,0)
(0,0,0)
(0,0,0)
(0,0,0)
(0,0,0)
(0,0,0)
(0,0,0)
(0,0,0)
(0,0,0)
(0,0,0)
(0,0,0)
(0,0,0)
(0,0,0)
(0,0,0)
(0,0,0)
(0,0,0)
(0,0,0)
(0,0,0)
(0,0,0)
(0,0,0)
(0,0,0)
(0,0,0)
(0,0,0)
(0,0,0)
(0,0,0)
(0,0,0)
(0,0,0)
(0,0,0)
(0,0,0)
(0,0,0)
(0,0,0)
(0,0,0)
(0,0,0)
(0,0,0)
(0,0,0)
(0,0,0)
(0,0,0)
(0,0,0)
(0,0,0)
(0,0,0)
(0,0,0)
(0,0,0)
(0,0,0)
(0,0,0)
(0,0,0)
(0,0,0)
(0,0,0)
(0,0,0)
(0,0,0)
(0,0,0)
(0,0,0)
(0,0,0)
(0,0,0)
(0,0,0)
(0,0,0)
(0,0,0)
(0,0,0)
(0,0,0)
(0,0,0)
(0,0,0)
(0,0,0)
(0,0,0)
(0,0,0)
(0,0,0)
(0,0,0)
(0,0,0)
(0,0,0)
(0,0,0)
(0,0,0)
(0,0,0)
(0,0,0)
(0,0,0)
(0,0,0)
(0,0,0)
(0,0,0)
(0,0,0)
(0,0,0)
(0,0,0)
(0,0,0)
(0,0,0)
(0,0,0)
(0,0,0)
(0,0,0)
(0,0,0)
(0,0,0)
(0,0,0)
(0,0,0)
(0,0,0)
(0,0,0)
(0,0,0)
(0,0,0)
(0,0,0)
(0,0,0)
(0,0,0)
(0,0,0)
(0,0,0)
(0,0,0)
(0,0,0)
(0,0,0)
(0,0,0)
(0,0,0)
(0,0,0)
(0,0,0)
(0,0,0)
(0,0,0)
(0,0,0)
(0,0,0)
(0,0,0)
(0,0,0)
(0,0,0)
(0,0,0)
(0,0,0)
(0,0,0)
(0,0,0)
(0,0,0)
(0,0,0)
(0,0,0)
(0,0,0)
(0,0,0)
(0,0,0)
(0,0,0)
(0,0,0)
(0,0,0)
(0,0,0)
(0,0,0)
(0,0,0)
(0,0,0)
(0,0,0)
(0,0,0)
(0,0,0)
(0,0,0)
(0,0,0)
(0,0,0)
(0,0,0)
(0,0,0)
(0,0,0)
(0,0,0)
(0,0,0)
(0,0,0)
(0,0,0)
(0,0,0)
(0,0,0)
(0,0,0)
(0,0,0)
(0,0,0)
(0,0,0)
(0,0,0)
(0,0,0)
(0,0,0)
(0,0,0)
(0,0,0)
(0,0,0)
(0,0,0)
(0,0,0)
(0,0,0)
(0,0,0)
(0,0,0)
(0,0,0)
(0,0,0)
(0,0,0)
(0,0,0)
(0,0,0)
(0,0,0)
(0,0,0)
(0,0,0)
(0,0,0)
(0,0,0)
(0,0,0)
(0,0,0)
(0,0,0)
(0,0,0)
(0,0,0)
(0,0,0)
(0,0,0)
(0,0,0)
(0,0,0)
(0,0,0)
(0,0,0)
(0,0,0)
(0,0,0)
(0,0,0)
(0,0,0)
(0,0,0)
(0,0,0)
(0,0,0)
(0,0,0)
(0,0,0)
(0,0,0)
(0,0,0)
(0,0,0)
(0,0,0)
(0,0,0)
(0,0,0)
(0,0,0)
(0,0,0)
(0,0,0)
(0,0,0)
(0,0,0)
(0,0,0)
(0,0,0)
(0,0,0)
(0,0,0)
(0,0,0)
(0,0,0)
(0,0,0)
(0,0,0)
(0,0,0)
(0,0,0)
(0,0,0)
(0,0,0)
(0,0,0)
(0,0,0)
(0,0,0)
(0,0,0)
(0,0,0)
(0,0,0)
(0,0,0)
(0,0,0)
(0,0,0)
(0,0,0)
(0,0,0)
(0,0,0)
(0,0,0)
(0,0,0)
(0,0,0)
(0,0,0)
(0,0,0)
(0,0,0)
(0,0,0)
(0,0,0)
(0,0,0)
(0,0,0)
(0,0,0)
(0,0,0)
(0,0,0)
(0,0,0)
(0,0,0)
(0,0,0)
(0,0,0)
(0,0,0)
(0,0,0)
(0,0,0)
(0,0,0)
(0,0,0)
(0,0,0)
(0,0,0)
(0,0,0)
(0,0,0)
(0,0,0)
(0,0,0)
(0,0,0)
(0,0,0)
(0,0,0)
(0,0,0)
(0,0,0)
(0,0,0)
(0,0,0)
(0,0,0)
(0,0,0)
(0,0,0)
(0,0,0)
(0,0,0)
(0,0,0)
(0,0,0)
(0,0,0)
(0,0,0)
(0,0,0)
(0,0,0)
(0,0,0)
(0,0,0)
(0,0,0)
(0,0,0)
(0,0,0)
(0,0,0)
(0,0,0)
(0,0,0)
(0,0,0)
(0,0,0)
(0,0,0)
(0,0,0)
(0,0,0)
(0,0,0)
(0,0,0)
(0,0,0)
(0,0,0)
(0,0,0)
(0,0,0)
(0,0,0)
(0,0,0)
(0,0,0)
(0,0,0)
(0,0,0)
(0,0,0)
(0,0,0)
(0,0,0)
(0,0,0)
(0,0,0)
(0,0,0)
(0,0,0)
(0,0,0)
(0,0,0)
(0,0,0)
(0,0,0)
(0,0,0)
(0,0,0)
(0,0,0)
(0,0,0)
(0,0,0)
(0,0,0)
(0,0,0)
(0,0,0)
(0,0,0)
(0,0,0)
(0,0,0)
(0,0,0)
(0,0,0)
(0,0,0)
(0,0,0)
(0,0,0)
(0,0,0)
(0,0,0)
(0,0,0)
(0,0,0)
(0,0,0)
(0,0,0)
(0,0,0)
(0,0,0)
(0,0,0)
(0,0,0)
(0,0,0)
(0,0,0)
(0,0,0)
(0,0,0)
(0,0,0)
(0,0,0)
(0,0,0)
(0,0,0)
(0,0,0)
(0,0,0)
(0,0,0)
(0,0,0)
(0,0,0)
(0,0,0)
(0,0,0)
(0,0,0)
(0,0,0)
(0,0,0)
(0,0,0)
(0,0,0)
(0,0,0)
(0,0,0)
(0,0,0)
(0,0,0)
(0,0,0)
(0,0,0)
(0,0,0)
(0,0,0)
(0,0,0)
(0,0,0)
(0,0,0)
(0,0,0)
(0,0,0)
(0,0,0)
(0,0,0)
(0,0,0)
(0,0,0)
(0,0,0)
(0,0,0)
(0,0,0)
(0,0,0)
(0,0,0)
(0,0,0)
(0,0,0)
(0,0,0)
(0,0,0)
(0,0,0)
(0,0,0)
(0,0,0)
(0,0,0)
(0,0,0)
(0,0,0)
(0,0,0)
(0,0,0)
(0,0,0)
(0,0,0)
(0,0,0)
(0,0,0)
(0,0,0)
(0,0,0)
(0,0,0)
(0,0,0)
(0,0,0)
(0,0,0)
(0,0,0)
(0,0,0)
(0,0,0)
(0,0,0)
(0,0,0)
(0,0,0)
(0,0,0)
(0,0,0)
(0,0,0)
(0,0,0)
(0,0,0)
(0,0,0)
(0,0,0)
(0,0,0)
(0,0,0)
(0,0,0)
(0,0,0)
(0,0,0)
(0,0,0)
(0,0,0)
(0,0,0)
(0,0,0)
(0,0,0)
(0,0,0)
(0,0,0)
(0,0,0)
(0,0,0)
(0,0,0)
(0,0,0)
(0,0,0)
(0,0,0)
(0,0,0)
(0,0,0)
(0,0,0)
(0,0,0)
(0,0,0)
(0,0,0)
(0,0,0)
(0,0,0)
(0,0,0)
(0,0,0)
(0,0,0)
(0,0,0)
(0,0,0)
(0,0,0)
(0,0,0)
(0,0,0)
(0,0,0)
(0,0,0)
(0,0,0)
(0,0,0)
(0,0,0)
(0,0,0)
(0,0,0)
(0,0,0)
(0,0,0)
(0,0,0)
(0,0,0)
(0,0,0)
(0,0,0)
(0,0,0)
(0,0,0)
(0,0,0)
(0,0,0)
(0,0,0)
(0,0,0)
(0,0,0)
(0,0,0)
(0,0,0)
(0,0,0)
(0,0,0)
(0,0,0)
(0,0,0)
(0,0,0)
(0,0,0)
(0,0,0)
(0,0,0)
(0,0,0)
(0,0,0)
(0,0,0)
(0,0,0)
(0,0,0)
(0,0,0)
(0,0,0)
(0,0,0)
(0,0,0)
(0,0,0)
(0,0,0)
(0,0,0)
(0,0,0)
(0,0,0)
(0,0,0)
(0,0,0)
(0,0,0)
(0,0,0)
(0,0,0)
(0,0,0)
(0,0,0)
(0,0,0)
(0,0,0)
(0,0,0)
(0,0,0)
(0,0,0)
(0,0,0)
(0,0,0)
(0,0,0)
(0,0,0)
(0,0,0)
(0,0,0)
(0,0,0)
(0,0,0)
(0,0,0)
(0,0,0)
(0,0,0)
(0,0,0)
(0,0,0)
(0,0,0)
(0,0,0)
(0,0,0)
(0,0,0)
(0,0,0)
(0,0,0)
(0,0,0)
(0,0,0)
(0,0,0)
(0,0,0)
(0,0,0)
(0,0,0)
(0,0,0)
(0,0,0)
(0,0,0)
(0,0,0)
(0,0,0)
(0,0,0)
(0,0,0)
(0,0,0)
(0,0,0)
(0,0,0)
(0,0,0)
(0,0,0)
(0,0,0)
(0,0,0)
(0,0,0)
(0,0,0)
(0,0,0)
(0,0,0)
(0,0,0)
(0,0,0)
(0,0,0)
(0,0,0)
(0,0,0)
(0,0,0)
(0,0,0)
(0,0,0)
(0,0,0)
(0,0,0)
(0,0,0)
(0,0,0)
(0,0,0)
(0,0,0)
(0,0,0)
(0,0,0)
(0,0,0)
(0,0,0)
(0,0,0)
(0,0,0)
(0,0,0)
(0,0,0)
(0,0,0)
(0,0,0)
(0,0,0)
(0,0,0)
(0,0,0)
(0,0,0)
(0,0,0)
(0,0,0)
(0,0,0)
(0,0,0)
(0,0,0)
(0,0,0)
(0,0,0)
(0,0,0)
(0,0,0)
(0,0,0)
(0,0,0)
(0,0,0)
(0,0,0)
(0,0,0)
(0,0,0)
(0,0,0)
(0,0,0)
(0,0,0)
(0,0,0)
(0,0,0)
(0,0,0)
(0,0,0)
(0,0,0)
(0,0,0)
(0,0,0)
(0,0,0)
(0,0,0)
(0,0,0)
(0,0,0)
(0,0,0)
(0,0,0)
(0,0,0)
(0,0,0)
(0,0,0)
(0,0,0)
(0,0,0)
(0,0,0)
(0,0,0)
(0,0,0)
(0,0,0)
(0,0,0)
(0,0,0)
(0,0,0)
(0,0,0)
(0,0,0)
(0,0,0)
(0,0,0)
(0,0,0)
(0,0,0)
(0,0,0)
(0,0,0)
(0,0,0)
(0,0,0)
(0,0,0)
(0,0,0)
(0,0,0)
(0,0,0)
(0,0,0)
(0,0,0)
(0,0,0)
(0,0,0)
(0,0,0)
(0,0,0)
(0,0,0)
(0,0,0)
(0,0,0)
(0,0,0)
(0,0,0)
(0,0,0)
(0,0,0)
(0,0,0)
(0,0,0)
(0,0,0)
(0,0,0)
(0,0,0)
(0,0,0)
(0,0,0)
(0,0,0)
(0,0,0)
(0,0,0)
(0,0,0)
(0,0,0)
(0,0,0)
(0,0,0)
(0,0,0)
(0,0,0)
(0,0,0)
(0,0,0)
(0,0,0)
(0,0,0)
(0,0,0)
(0,0,0)
(0,0,0)
(0,0,0)
(0,0,0)
(0,0,0)
(0,0,0)
(0,0,0)
(0,0,0)
(0,0,0)
(0,0,0)
(0,0,0)
(0,0,0)
(0,0,0)
(0,0,0)
(0,0,0)
(0,0,0)
(0,0,0)
(0,0,0)
(0,0,0)
(0,0,0)
(0,0,0)
(0,0,0)
(0,0,0)
(0,0,0)
(0,0,0)
(0,0,0)
(0,0,0)
(0,0,0)
(0,0,0)
(0,0,0)
(0,0,0)
(0,0,0)
(0,0,0)
(0,0,0)
(0,0,0)
(0,0,0)
(0,0,0)
(0,0,0)
(0,0,0)
(0,0,0)
(0,0,0)
(0,0,0)
(0,0,0)
(0,0,0)
(0,0,0)
(0,0,0)
(0,0,0)
(-105796.761109001,56125.0509614131,49671.7101475867)
(-111876.003404002,53829.5148752548,107718.198676334)
(-125974.066750975,49008.6284404449,184683.636986861)
(-152658.288007714,41418.9259599311,295922.999034654)
(-200833.043655177,31189.6921499381,465566.350539892)
(-287330.035367763,19458.7086373463,733437.677270313)
(-443852.76657793,8802.28231848648,1168488.16152978)
(-726682.022857869,2259.7316563074,1892910.45273135)
(-1198565.10873066,67.1451068688962,3091408.4163551)
(-1670022.42814605,-148.691283433288,4761579.53578466)
(0,0,0)
(0,0,0)
(0,0,0)
(0,0,0)
(0,0,0)
(0,0,0)
(-111889.414822653,120659.389253048,47355.0765310159)
(-118026.907002617,116311.983646724,102899.514762166)
(-132345.486775573,107132.832784394,177120.797193787)
(-159642.891277597,92468.9287494991,285713.685681817)
(-209154.450249594,72248.5447721214,453809.283309225)
(-297719.592672856,48222.2427890765,722765.34183034)
(-455964.178613775,25521.853356715,1162009.94940588)
(-737721.572035126,11154.7872270486,1890836.46587022)
(-1205923.3865178,5493.54161915474,3091333.45587578)
(-1673454.70773661,2803.48393155369,4761835.9883973)
(0,0,0)
(0,0,0)
(0,0,0)
(0,0,0)
(0,0,0)
(0,0,0)
(-125830.812674084,203543.89205209,42946.3098750427)
(-132085.902863972,197684.044228246,93660.1521574967)
(-146861.845284953,185233.591666944,162421.238559904)
(-175528.449532739,164998.252281621,265420.364560522)
(-228205.6868182,136173.004142933,429701.592007898)
(-322240.109598327,100189.745797503,699974.198597799)
(-485904.926604532,63788.8431858491,1147612.13537321)
(-765274.505010296,38807.0952402664,1885234.33237023)
(-1223657.86806156,25606.4332430225,3088779.30880799)
(-1681465.34009794,13874.3662794969,4759173.76655799)
(0,0,0)
(0,0,0)
(0,0,0)
(0,0,0)
(0,0,0)
(0,0,0)
(-151813.523740778,318317.075294161,37040.3404987081)
(-158197.585142534,311766.569837448,81155.4000320422)
(-173582.090554454,297808.289447501,142162.792805932)
(-204262.294147922,274862.179520513,236561.159714953)
(-262171.213803747,241244.715331952,393660.662329693)
(-366717.403932634,197068.030095303,663499.78196452)
(-543343.406472062,148030.061942871,1122601.96967955)
(-818679.998019579,107999.706948919,1872089.35599046)
(-1256234.71548267,76757.4117208462,3077173.09299524)
(-1695674.62264673,41299.3824625716,4745422.69945907)
(0,0,0)
(0,0,0)
(0,0,0)
(0,0,0)
(0,0,0)
(0,0,0)
(-198497.834151424,486327.071958614,30487.8374869643)
(-204856.510094402,479941.002287881,67169.9151309322)
(-220569.17649305,466377.069731463,119170.311340019)
(-252912.932529496,444055.439106993,202889.984283036)
(-316178.39789859,410908.592660909,349404.50485267)
(-433739.780486621,365861.380732878,614350.934701695)
(-630784.924840188,310672.509111549,1082493.4123732)
(-899987.797127165,249625.910351475,1840855.00609785)
(-1303574.95227594,179454.285886683,3041733.08420806)
(-1716230.95149295,95120.0354275222,4704143.38273606)
(0,0,0)
(0,0,0)
(0,0,0)
(0,0,0)
(0,0,0)
(0,0,0)
(-282824.329179596,745005.276470944,24146.1246672725)
(-288876.791625933,739347.477084162,53616.4414969158)
(-304077.536713758,727293.561135054,96777.4868070871)
(-336090.284437302,707223.95268501,169699.257666363)
(-400001.032972486,676343.469293685,304265.414006082)
(-519766.657449824,630904.531255851,558988.920932943)
(-717375.635045207,565803.259682424,1021233.80540727)
(-974370.997244129,474704.711284992,1770526.00171789)
(-1354846.14299376,347620.664659876,2957205.76593851)
(-1742073.2760661,185577.945060549,4608821.13237153)
(0,0,0)
(0,0,0)
(0,0,0)
(0,0,0)
(0,0,0)
(0,0,0)
(-437628.398498346,1164125.55185267,18508.1231166177)
(-442967.529262547,1159261.59233597,41561.5371273607)
(-456614.556876181,1148797.09337632,76672.5617622777)
(-485857.874352139,1130892.95176686,138861.437032563)
(-545212.713960883,1101646.85262334,258770.767663784)
(-657714.380577077,1053624.96947378,493764.710022938)
(-843127.923322846,972775.738632418,929920.154395806)
(-1076814.27745964,838213.044451761,1643226.09868867)
(-1431299.84732034,627196.311804754,2794950.29886408)
(-1784263.37706342,341756.349115578,4423035.27187258)
(0,0,0)
(0,0,0)
(0,0,0)
(0,0,0)
(0,0,0)
(0,0,0)
(-720657.257023145,1871123.82370824,13658.9851675643)
(-724900.111386624,1866723.59604459,31097.0928455867)
(-735875.412440163,1857037.68146327,58731.9171988204)
(-759651.782150992,1839647.93700797,109628.714108686)
(-808430.67758891,1809050.70138965,210655.542931292)
(-901937.25881607,1753420.77606421,412796.995156921)
(-1057187.63752459,1647608.33102441,795152.040289473)
(-1246405.94178094,1447756.37141227,1432014.65510993)
(-1570160.53874044,1120095.89168192,2509275.6139732)
(-1864946.20379565,634922.119252221,4081056.04763217)
(0,0,0)
(0,0,0)
(0,0,0)
(0,0,0)
(0,0,0)
(0,0,0)
(-1194453.91976426,3056374.25009416,9203.49337834365)
(-1197353.97200926,3051995.30290718,21285.7585250127)
(-1204813.03164318,3041958.78892245,41177.6827089543)
(-1220803.35166263,3022679.5183316,78949.4530479422)
(-1253020.01796333,2986115.91620758,154904.256193352)
(-1313526.93142052,2914988.35864485,306863.605033252)
(-1415148.37535189,2774543.05192999,595077.259479559)
(-1566289.66645372,2504972.08136772,1104151.21597786)
(-1826237.62819213,2026631.77639987,2023852.95945192)
(-2005628.25121665,1218585.81655473,3445817.51336606)
(0,0,0)
(0,0,0)
(0,0,0)
(0,0,0)
(0,0,0)
(0,0,0)
(-1668119.94108389,4719833.67611073,4660.5150672958)
(-1669586.63919094,4715288.14048684,10954.3166785614)
(-1673298.53714601,4704610.18603032,21601.4567167293)
(-1681142.55410716,4683280.02598834,42143.5031672018)
(-1696722.86547768,4641436.14147464,83546.1433778272)
(-1725868.20877989,4558173.5872514,166229.123551111)
(-1776741.01127745,4392248.51814377,325264.66861476)
(-1862529.19690109,4067180.81450996,625585.132373591)
(-2005167.60927787,3441836.06383817,1215548.4542131)
(-2019425.94846426,2226622.67135691,2226937.54787523)
(0,0,0)
(0,0,0)
(0,0,0)
(0,0,0)
(0,0,0)
(0,0,0)
(0,0,0)
(0,0,0)
(0,0,0)
(0,0,0)
(0,0,0)
(0,0,0)
(0,0,0)
(0,0,0)
(0,0,0)
(0,0,0)
(0,0,0)
(0,0,0)
(0,0,0)
(0,0,0)
(0,0,0)
(0,0,0)
(0,0,0)
(0,0,0)
(0,0,0)
(0,0,0)
(0,0,0)
(0,0,0)
(0,0,0)
(0,0,0)
(0,0,0)
(0,0,0)
(0,0,0)
(0,0,0)
(0,0,0)
(0,0,0)
(0,0,0)
(0,0,0)
(0,0,0)
(0,0,0)
(0,0,0)
(0,0,0)
(0,0,0)
(0,0,0)
(0,0,0)
(0,0,0)
(0,0,0)
(0,0,0)
(0,0,0)
(0,0,0)
(0,0,0)
(0,0,0)
(0,0,0)
(0,0,0)
(0,0,0)
(0,0,0)
(0,0,0)
(0,0,0)
(0,0,0)
(0,0,0)
(0,0,0)
(0,0,0)
(0,0,0)
(0,0,0)
(0,0,0)
(0,0,0)
(0,0,0)
(0,0,0)
(0,0,0)
(0,0,0)
(0,0,0)
(0,0,0)
(0,0,0)
(0,0,0)
(0,0,0)
(0,0,0)
(0,0,0)
(0,0,0)
(0,0,0)
(0,0,0)
(0,0,0)
(0,0,0)
(0,0,0)
(0,0,0)
(0,0,0)
(0,0,0)
(0,0,0)
(0,0,0)
(0,0,0)
(0,0,0)
(0,0,0)
(0,0,0)
(0,0,0)
(0,0,0)
(0,0,0)
(0,0,0)
(0,0,0)
(0,0,0)
(0,0,0)
(0,0,0)
(0,0,0)
(0,0,0)
(15662905.5877215,50028.9079230548,43572.3539059841)
(15652736.3773562,47658.2525487587,93605.331256662)
(15629303.221969,42608.2422810053,158023.41091513)
(15585415.2415493,34414.8392699885,247838.652747644)
(15507228.6245844,22864.9404852478,379215.654682276)
(15368139.3103763,9056.97457958653,576992.945018106)
(15113074.4984534,-3347.40259113931,885716.693237317)
(14609122.4338631,-8820.87455370289,1421036.7217296)
(13472130.4932559,-7328.46188444515,2619973.19228703)
(10384221.7885186,-3586.84094643894,6431619.42722833)
(0,0,0)
(0,0,0)
(0,0,0)
(0,0,0)
(0,0,0)
(0,0,0)
(15652551.7470637,106704.986588894,41186.37010734)
(15642355.1754061,102220.545781773,88545.6051251817)
(15618703.0498962,92604.3289534348,149804.592440489)
(15574006.2516271,76617.9359552711,236255.963510092)
(15493671.4829324,53242.3915954771,365356.18987747)
(15350682.6088808,23727.3905211508,564587.183041758)
(15091717.9846412,-4440.75978920894,880301.987644504)
(14589854.5645926,-16442.542809888,1422651.12993239)
(13460160.9819157,-12286.291795413,2623828.2020693)
(10378990.8158354,-5232.46307743658,6435331.91128767)
(0,0,0)
(0,0,0)
(0,0,0)
(0,0,0)
(0,0,0)
(0,0,0)
(15628998.7766493,177497.148201924,36681.85972295)
(15618748.7451094,171517.954534588,78853.4136562706)
(15594616.8755234,158547.649446392,133734.983014492)
(15547947.6855391,136383.411698263,212796.982859302)
(15462038.0668004,102339.186860123,335760.044635593)
(15307369.9891746,55814.4820478712,536366.464995492)
(15033628.6333711,6417.19447969383,868278.561410449)
(14536558.4212235,-14562.3634759356,1426869.06650226)
(13429186.3033757,-6937.45811852779,2630979.67204745)
(10366171.9041161,-292.348604404443,6440705.92402)
(0,0,0)
(0,0,0)
(0,0,0)
(0,0,0)
(0,0,0)
(0,0,0)
(15585651.4727804,271656.454234979,30679.3081052285)
(15575381.5457559,265148.288750115,65773.4536507652)
(15550624.606546,250930.297930565,111487.718725705)
(15500858.6898988,226342.935126685,178710.82191013)
(15404672.6048215,187325.679109066,289184.121695507)
(15223572.7787472,130098.703046299,486913.328676696)
(14904376.9754479,60642.9667684132,847270.785127624)
(14415071.1757807,26727.9688476645,1434532.88966341)
(13366472.8519695,29460.9569880343,2637730.51776406)
(10342094.6708726,20805.0796850972,6441167.40661499)
(0,0,0)
(0,0,0)
(0,0,0)
(0,0,0)
(0,0,0)
(0,0,0)
(15509199.5314912,402106.43944345,24156.2598084042)
(15499171.9472391,396071.8470937,51507.8547907553)
(15474260.5665312,383047.906971169,86864.1133856062)
(15421882.490209,361038.53574281,139676.70069041)
(15314007.8111855,327227.029190322,231892.752184702)
(15093270.6100676,279948.124081393,417336.551255032)
(14672064.3602549,224152.871258909,813280.972328986)
(14189809.118796,175276.684132376,1437238.95178066)
(13268154.6925966,128195.240956567,2629078.63359896)
(10306248.5384177,69294.7570493805,6420413.07698348)
(0,0,0)
(0,0,0)
(0,0,0)
(0,0,0)
(0,0,0)
(0,0,0)
(15373081.6455051,590375.749208517,18128.326209622)
(15363729.1033357,585424.484580699,38473.4044204939)
(15340004.8197323,574927.099446499,64815.4661586621)
(15288598.701875,557614.124370283,105854.501878597)
(15179527.0217396,531313.245665122,184543.841351254)
(14952534.8761139,493109.7055376,361384.336990749)
(14526081.2919614,440146.267144883,764237.624757789)
(14065118.4468245,372294.705679582,1390033.76980146)
(13184459.1701858,271172.207443335,2570055.10079471)
(10265174.2765543,143401.734746715,6351004.1811364)
(0,0,0)
(0,0,0)
(0,0,0)
(0,0,0)
(0,0,0)
(0,0,0)
(15120617.2570459,881262.408208253,13171.2961155247)
(15112487.541266,877483.719485323,27960.6013418288)
(15091459.5412017,869653.592524577,47463.6208454649)
(15044808.8742058,857175.888751132,79538.7185661203)
(14943162.4649862,838519.827605653,146260.568338043)
(14726175.7635334,809472.951976169,308310.788448463)
(14312671.0105956,758754.228406921,696207.503927416)
(13896640.973725,668635.774056311,1288714.79502557)
(13060448.594065,488363.113638368,2442079.05810458)
(10195044.9932171,261080.645301776,6207395.38792857)
(0,0,0)
(0,0,0)
(0,0,0)
(0,0,0)
(0,0,0)
(0,0,0)
(14616152.5061246,1397394.55824014,9361.69747992754)
(14609768.8878156,1394372.39818252,20107.6302399939)
(14593040.7138533,1388185.37610811,34963.3310224944)
(14555366.9522891,1378538.25419156,60885.8418014702)
(14471638.252226,1364486.32030283,117154.0299488)
(14287634.3526749,1341844.41968041,257514.561413206)
(13925818.4671072,1289641.82820711,605924.467640765)
(13654341.5151149,1127851.00248549,1108265.39297515)
(12810204.3459704,864006.368878784,2214560.86368337)
(10032738.9534879,494206.337492072,5946053.62486905)
(0,0,0)
(0,0,0)
(0,0,0)
(0,0,0)
(0,0,0)
(0,0,0)
(13476205.2157173,2582786.13997921,6252.89343895172)
(13471893.6787955,2579889.28995729,13791.9615189975)
(13460724.5002425,2573575.00119935,25168.4152015644)
(13436083.7653707,2562385.90607709,46737.2569421951)
(13383691.9858671,2542423.86515995,94391.3189141491)
(13277161.9494446,2502663.83160256,205186.63678652)
(13085070.5031084,2412976.80694268,443936.390250277)
(12814845.9542311,2208728.54281888,844226.839891638)
(12052119.0739181,1847683.84664363,1844496.27067618)
(9539096.10301492,1204770.18313698,5451511.68145922)
(0,0,0)
(0,0,0)
(0,0,0)
(0,0,0)
(0,0,0)
(0,0,0)
(10385728.175112,6388040.40309711,3201.23134566162)
(10383575.3350005,6384987.29994343,7244.85782746201)
(10378102.5368821,6377990.64111763,13731.7545405982)
(10366278.0682529,6364476.03058709,26524.6183301871)
(10341935.0013876,6338219.00282262,54375.224461791)
(10294061.8799248,6284099.34131679,115313.236702469)
(10205370.2396508,6169008.08922609,239474.314150307)
(10035349.644466,5929690.26977428,482937.356487523)
(9539512.89355565,5446978.57837379,1201265.73258342)
(7756459.95404722,4246051.072707,4246402.55116144)
(0,0,0)
(0,0,0)
(0,0,0)
(0,0,0)
(0,0,0)
(0,0,0)
(0,0,0)
(0,0,0)
(0,0,0)
(0,0,0)
(0,0,0)
(0,0,0)
(0,0,0)
(0,0,0)
(0,0,0)
(0,0,0)
(0,0,0)
(0,0,0)
(0,0,0)
(0,0,0)
(0,0,0)
(0,0,0)
(0,0,0)
(0,0,0)
(0,0,0)
(0,0,0)
(0,0,0)
(0,0,0)
(0,0,0)
(0,0,0)
(0,0,0)
(0,0,0)
(0,0,0)
(0,0,0)
(0,0,0)
(0,0,0)
(0,0,0)
(0,0,0)
(0,0,0)
(0,0,0)
(0,0,0)
(0,0,0)
(0,0,0)
(0,0,0)
(0,0,0)
(0,0,0)
(0,0,0)
(0,0,0)
(0,0,0)
(0,0,0)
(0,0,0)
(0,0,0)
(0,0,0)
(0,0,0)
(0,0,0)
(0,0,0)
(0,0,0)
(0,0,0)
(0,0,0)
(0,0,0)
(0,0,0)
(0,0,0)
(0,0,0)
(0,0,0)
(0,0,0)
(0,0,0)
(0,0,0)
(0,0,0)
(0,0,0)
(0,0,0)
(0,0,0)
(0,0,0)
(0,0,0)
(0,0,0)
(0,0,0)
(0,0,0)
(0,0,0)
(0,0,0)
(0,0,0)
(0,0,0)
(0,0,0)
(0,0,0)
(0,0,0)
(0,0,0)
(0,0,0)
(0,0,0)
(0,0,0)
(0,0,0)
(0,0,0)
(0,0,0)
(0,0,0)
(0,0,0)
(0,0,0)
(0,0,0)
(0,0,0)
(0,0,0)
(0,0,0)
(0,0,0)
(0,0,0)
(0,0,0)
(0,0,0)
(0,0,0)
(-272359.525028209,39589.314056564,33372.1880336063)
(-283586.92802513,37229.8487004526,70162.0340548414)
(-309045.047509587,31986.7112852159,114219.981588766)
(-355445.756865279,22959.6029074331,169817.766436394)
(-434880.080119573,9274.54287405412,240348.317606865)
(-567460.197906591,-8455.54372363947,322099.758953907)
(-784209.42984591,-24800.2917706736,381880.368364455)
(-1127173.81550263,-28179.7771713333,284052.784241951)
(-1618845.2581076,-19355.2407946823,-467919.834259387)
(-1984560.80321408,-8843.8900448548,-3952596.96314128)
(0,0,0)
(0,0,0)
(0,0,0)
(0,0,0)
(0,0,0)
(0,0,0)
(-284191.202116161,83087.4218391646,30941.2307377258)
(-295250.899134262,78605.3870836673,64868.1562352991)
(-320446.542670151,68547.9227475691,105152.926679785)
(-366873.182324918,50606.2728381236,156082.080041532)
(-447542.020428799,21685.9073913499,222580.608225849)
(-583725.925836612,-19558.7518789256,305788.740439036)
(-805556.417703543,-62591.6482105472,378550.888564019)
(-1145210.38727648,-69837.180525991,292969.633128293)
(-1627880.06657906,-43347.2609018357,-457300.908929218)
(-1987740.33047992,-18115.1433068208,-3943602.12001133)
(0,0,0)
(0,0,0)
(0,0,0)
(0,0,0)
(0,0,0)
(0,0,0)
(-310736.375281906,134124.900896068,26394.0622149385)
(-321446.314962834,128186.890429744,54704.0082815834)
(-346213.071501041,114652.704827114,87125.5625669437)
(-393121.729969143,89432.7219657897,127064.918287892)
(-477977.131688203,45177.3015043714,181285.112003927)
(-628146.760335768,-27825.3424596126,262764.841435434)
(-877041.103468613,-122760.088185678,371299.407590784)
(-1207759.35491437,-136043.168915029,319519.561458151)
(-1655304.32319089,-69681.043257333,-431959.64027909)
(-1996508.29801718,-24391.223959004,-3925306.96815325)
(0,0,0)
(0,0,0)
(0,0,0)
(0,0,0)
(0,0,0)
(0,0,0)
(-358262.898315406,195301.228671083,20434.4326613232)
(-368424.944004095,189046.900765343,41077.3014262232)
(-392517.789402374,174721.495092376,61847.2964497646)
(-440429.626699498,147522.115535393,82742.6088188872)
(-534761.792078899,96806.3744669125,108244.322097188)
(-726021.067438071,-103.035075130217,167812.250238549)
(-1099288.85687283,-171598.09599937,358012.479713357)
(-1412700.67095616,-198489.695054774,385927.24193031)
(-1724150.69397972,-68845.3508222111,-386588.515214995)
(-2015407.82846761,-15026.4386387208,-3900754.41185476)
(0,0,0)
(0,0,0)
(0,0,0)
(0,0,0)
(0,0,0)
(0,0,0)
(-438199.385935345,266218.954195405,14177.5812427212)
(-447515.87171989,260884.929887236,26723.7604203769)
(-470304.164230909,249061.609055625,34644.7665595247)
(-518239.463653732,227980.350925,32004.8743732274)
(-623701.903445507,192938.977561446,11278.3752500686)
(-893425.844892818,139356.364368638,-3788.17989291872)
(-1774943.00685083,78246.4651607767,331071.015393091)
(-2106106.3572941,50641.3072583667,515551.878510534)
(-1859194.34933762,44525.6721064497,-332773.713143286)
(-2046400.23433762,28233.9626070502,-3885688.95229324)
(0,0,0)
(0,0,0)
(0,0,0)
(0,0,0)
(0,0,0)
(0,0,0)
(-570053.442604124,338232.525741552,8817.90590369541)
(-578215.04763214,334488.255142336,14855.1209569421)
(-598648.920094796,326705.588942273,13561.2702378297)
(-643230.599048326,314113.455812906,-3046.14438645699)
(-745720.800277011,295204.468835447,-42367.4243033832)
(-1014713.14401834,266958.774237197,-65025.4246991217)
(-1853184.68123733,226875.693908049,303307.709092696)
(-2156466.03685715,203892.808618169,509337.080754971)
(-1922031.4018994,147210.669626596,-349160.955339627)
(-2077347.02360185,73321.7439978656,-3914031.04723369)
(0,0,0)
(0,0,0)
(0,0,0)
(0,0,0)
(0,0,0)
(0,0,0)
(-785614.187410658,377102.328899548,5058.0306390412)
(-792328.281384877,375034.87221779,7023.62555498985)
(-809527.681037476,371473.23675019,939.589326634109)
(-848378.99836603,367935.435733045,-21998.1286811128)
(-942428.335438365,367184.486912968,-70690.9569935999)
(-1205759.45466874,371079.026561242,-105179.601774959)
(-2080128.01634692,371986.796072728,280204.712343453)
(-2360440.31979092,426378.364524918,452496.83929314)
(-2017061.43069978,238168.670058811,-423254.747033618)
(-2128434.83817923,98814.6398677556,-3987571.42216675)
(0,0,0)
(0,0,0)
(0,0,0)
(0,0,0)
(0,0,0)
(0,0,0)
(-1129581.57926012,257594.061028833,2938.74259587477)
(-1134621.03362969,256664.161048339,3395.76455112445)
(-1147755.52415758,256006.948423301,-2645.31977061154)
(-1178213.02477785,259347.523761797,-22781.0413919137)
(-1256022.91930101,276596.539761429,-66835.5333727714)
(-1497518.83530594,331396.03180487,-104302.961295163)
(-2452115.93256875,448870.746954922,334443.876839062)
(-1999574.58066815,288320.670576414,264114.05591112)
(-2092872.61398764,105916.789297785,-562860.714029214)
(-2207495.20466102,563.966168603205,-4086679.49284059)
(0,0,0)
(0,0,0)
(0,0,0)
(0,0,0)
(0,0,0)
(0,0,0)
(-1622898.90456079,-507526.940337046,1921.51098438982)
(-1626184.22232905,-508250.495327958,2610.45782567518)
(-1634602.54931888,-508912.733541684,553.578692555853)
(-1653323.71013082,-507355.039225783,-5639.99347784757)
(-1696173.30636477,-499328.482334182,-12153.2898098744)
(-1798512.5120461,-480448.969842851,13062.5626688971)
(-2022258.96946662,-466739.615706255,173698.787245524)
(-2096156.52010404,-570784.940902717,81503.2624002186)
(-2289325.05133505,-664939.765728682,-668499.667979738)
(-2325681.01153704,-577886.282950094,-4087575.91496865)
(0,0,0)
(0,0,0)
(0,0,0)
(0,0,0)
(0,0,0)
(0,0,0)
(-1987673.7035158,-3997491.99943074,1063.32706198898)
(-1989277.73437053,-3998395.76220077,1758.0526462884)
(-1993301.88043829,-3999958.19818603,1904.3239515595)
(-2001946.82388364,-4001701.58366916,2172.14987183437)
(-2020355.77231081,-4003654.9814887,6485.81206527931)
(-2058901.52544801,-4009906.44704643,26603.0839820641)
(-2130175.14319614,-4036341.47829018,69446.7187534458)
(-2209745.88365872,-4105629.02700529,-12917.2776789741)
(-2326348.59140489,-4092504.49076064,-581794.678346042)
(-2245083.04854534,-3510396.08304475,-3510045.48631844)
(0,0,0)
(0,0,0)
(0,0,0)
(0,0,0)
(0,0,0)
(0,0,0)
(0,0,0)
(0,0,0)
(0,0,0)
(0,0,0)
(0,0,0)
(0,0,0)
(0,0,0)
(0,0,0)
(0,0,0)
(0,0,0)
(0,0,0)
(0,0,0)
(0,0,0)
(0,0,0)
(0,0,0)
(0,0,0)
(0,0,0)
(0,0,0)
(0,0,0)
(0,0,0)
(0,0,0)
(0,0,0)
(0,0,0)
(0,0,0)
(0,0,0)
(0,0,0)
(0,0,0)
(0,0,0)
(0,0,0)
(0,0,0)
(0,0,0)
(0,0,0)
(0,0,0)
(0,0,0)
(0,0,0)
(0,0,0)
(0,0,0)
(0,0,0)
(0,0,0)
(0,0,0)
(0,0,0)
(0,0,0)
(0,0,0)
(0,0,0)
(0,0,0)
(0,0,0)
(0,0,0)
(0,0,0)
(0,0,0)
(0,0,0)
(0,0,0)
(0,0,0)
(0,0,0)
(0,0,0)
(0,0,0)
(0,0,0)
(0,0,0)
(0,0,0)
(0,0,0)
(0,0,0)
(0,0,0)
(0,0,0)
(0,0,0)
(0,0,0)
(0,0,0)
(0,0,0)
(0,0,0)
(0,0,0)
(0,0,0)
(0,0,0)
(0,0,0)
(0,0,0)
(0,0,0)
(0,0,0)
(0,0,0)
(0,0,0)
(0,0,0)
(0,0,0)
(0,0,0)
(0,0,0)
(0,0,0)
(0,0,0)
(0,0,0)
(0,0,0)
(0,0,0)
(0,0,0)
(0,0,0)
(0,0,0)
(0,0,0)
(0,0,0)
(0,0,0)
(0,0,0)
(0,0,0)
(0,0,0)
(0,0,0)
(0,0,0)
(-322134.85626525,27683.7453153518,22091.5859216883)
(-331666.393268119,25523.0402249754,44648.0109397064)
(-352767.143685948,20546.6572805167,67823.4498355528)
(-389549.62273797,11460.1816552315,90467.1340530081)
(-448899.441929821,-3437.793593166,107924.28945642)
(-540250.227213077,-24787.1004195073,105501.419182414)
(-671532.895537824,-46205.1383564346,39030.0232307613)
(-834296.161192208,-46270.0837160125,-207577.547363644)
(-964428.29871263,-28430.5084991713,-833563.998259405)
(-838118.421259775,-12062.5282874744,-1967943.85192621)
(0,0,0)
(0,0,0)
(0,0,0)
(0,0,0)
(0,0,0)
(0,0,0)
(-332885.80223098,56516.2680285884,19862.0774015811)
(-341907.155239257,52403.0886687098,39638.2850628435)
(-361820.462563897,42810.8712895212,58747.9909475893)
(-396642.61476737,24419.8940102421,75557.7110350243)
(-453332.897730251,-8670.85631696599,86581.6510602706)
(-542075.675469986,-63961.3034924515,84105.6037665938)
(-672530.949935533,-134120.726609097,38995.7242512475)
(-830360.42435403,-132461.738488463,-189662.583898748)
(-958046.166720825,-70857.7855037237,-817069.206752409)
(-834187.584570593,-26960.7849522875,-1955723.69599701)
(0,0,0)
(0,0,0)
(0,0,0)
(0,0,0)
(0,0,0)
(0,0,0)
(-356566.809136637,86652.3697934418,15694.3320898825)
(-364564.438105555,81254.7037742069,29960.8401271057)
(-382163.974986729,68410.3665269897,40312.2483753235)
(-413015.028960117,42231.9975303632,42393.4438461765)
(-464076.00673879,-11454.1816747292,31275.6442545249)
(-549172.892618777,-125607.292368115,13947.7654131808)
(-692864.942511486,-344988.724032844,40639.6018798007)
(-830607.206500713,-340993.268990747,-127981.016031592)
(-942546.553449539,-138560.589789161,-773035.981487505)
(-824600.270329829,-43330.5838591854,-1928574.21026798)
(0,0,0)
(0,0,0)
(0,0,0)
(0,0,0)
(0,0,0)
(0,0,0)
(-397457.755192831,115524.27390615,10322.952764726)
(-404003.160892575,110077.493566511,17078.3798609072)
(-418210.389912461,97074.8990714789,14106.4478265099)
(-442596.09414533,69858.2670287028,-11353.3542259965)
(-482666.893494221,7986.04422724504,-82888.4787126467)
(-561626.89166356,-167444.939647719,-205445.007207561)
(-847138.859189876,-847211.079530939,44627.3506075724)
(-891737.026377714,-891842.107835184,74512.544873556)
(-906567.266085088,-203871.096912635,-677760.37589761)
(-805299.122526612,-46032.9940884562,-1885166.6716094)
(0,0,0)
(0,0,0)
(0,0,0)
(0,0,0)
(0,0,0)
(0,0,0)
(-462189.362527563,134619.740514376,4894.50998399185)
(-467023.394275582,130424.339908221,4055.18619797524)
(-477017.544721994,120960.436177391,-13116.9704168444)
(-491458.219929284,103209.37869093,-73249.3258035191)
(-501704.831198029,71079.3341244974,-258339.687948257)
(-452106.294214245,18167.8100720943,-885271.988346649)
(-8.51100126825544e-05,-2.14278777236261e-05,5.39267847454348e-05)