/*--------------------------------*- C++ -*----------------------------------*\
| =========                 |                                                 |
| \\      /  F ield         | foam-extend: Open Source Cstd::filesystem::create_directory();FD                    |
|  \\    /   O peration     | Version:     4.0                                |
|   \\  /    A nd           | Web:         http://www.foam-extend.org         |
|    \\/     M anipulation  |                                                 |
\*---------------------------------------------------------------------------*/
FoamFile
{
    version 2.0;
    format ascii;
    class volVectorField;
    location "Data/707";
    object      H;
}
// * * * * * * * * * * * * * * * * * * * * * * * * * * * * * * * * * * * * * //

dimensions      [0 1 -1 0 0 0 0];

internalField   nonuniform List<vector>
4096
(
(0,0,0)
(0,0,0)
(0,0,0)
(0,0,0)
(0,0,0)
(0,0,0)
(0,0,0)
(0,0,0)
(0,0,0)
(0,0,0)
(0,0,0)
(0,0,0)
(0,0,0)
(0,0,0)
(0,0,0)
(0,0,0)
(0,0,0)
(0,0,0)
(0,0,0)
(0,0,0)
(0,0,0)
(0,0,0)
(0,0,0)
(0,0,0)
(0,0,0)
(0,0,0)
(0,0,0)
(0,0,0)
(0,0,0)
(0,0,0)
(0,0,0)
(0,0,0)
(0,0,0)
(0,0,0)
(0,0,0)
(0,0,0)
(0,0,0)
(0,0,0)
(0,0,0)
(0,0,0)
(0,0,0)
(0,0,0)
(0,0,0)
(0,0,0)
(0,0,0)
(0,0,0)
(0,0,0)
(0,0,0)
(0,0,0)
(0,0,0)
(0,0,0)
(0,0,0)
(0,0,0)
(0,0,0)
(0,0,0)
(0,0,0)
(0,0,0)
(0,0,0)
(0,0,0)
(0,0,0)
(0,0,0)
(0,0,0)
(0,0,0)
(0,0,0)
(0,0,0)
(0,0,0)
(0,0,0)
(0,0,0)
(0,0,0)
(0,0,0)
(0,0,0)
(0,0,0)
(0,0,0)
(0,0,0)
(0,0,0)
(0,0,0)
(0,0,0)
(0,0,0)
(0,0,0)
(0,0,0)
(0,0,0)
(0,0,0)
(0,0,0)
(0,0,0)
(0,0,0)
(0,0,0)
(0,0,0)
(0,0,0)
(0,0,0)
(0,0,0)
(0,0,0)
(0,0,0)
(0,0,0)
(0,0,0)
(0,0,0)
(0,0,0)
(0,0,0)
(0,0,0)
(0,0,0)
(0,0,0)
(0,0,0)
(0,0,0)
(0,0,0)
(0,0,0)
(0,0,0)
(0,0,0)
(0,0,0)
(0,0,0)
(0,0,0)
(0,0,0)
(0,0,0)
(0,0,0)
(0,0,0)
(0,0,0)
(0,0,0)
(0,0,0)
(0,0,0)
(0,0,0)
(0,0,0)
(0,0,0)
(0,0,0)
(0,0,0)
(0,0,0)
(0,0,0)
(0,0,0)
(0,0,0)
(0,0,0)
(0,0,0)
(0,0,0)
(0,0,0)
(0,0,0)
(0,0,0)
(0,0,0)
(0,0,0)
(0,0,0)
(0,0,0)
(0,0,0)
(0,0,0)
(0,0,0)
(0,0,0)
(0,0,0)
(0,0,0)
(0,0,0)
(0,0,0)
(0,0,0)
(0,0,0)
(0,0,0)
(0,0,0)
(0,0,0)
(0,0,0)
(0,0,0)
(0,0,0)
(0,0,0)
(0,0,0)
(0,0,0)
(0,0,0)
(0,0,0)
(0,0,0)
(0,0,0)
(0,0,0)
(0,0,0)
(0,0,0)
(0,0,0)
(0,0,0)
(0,0,0)
(0,0,0)
(0,0,0)
(0,0,0)
(0,0,0)
(0,0,0)
(0,0,0)
(0,0,0)
(0,0,0)
(0,0,0)
(0,0,0)
(0,0,0)
(0,0,0)
(0,0,0)
(0,0,0)
(0,0,0)
(0,0,0)
(0,0,0)
(0,0,0)
(0,0,0)
(0,0,0)
(0,0,0)
(0,0,0)
(0,0,0)
(0,0,0)
(0,0,0)
(0,0,0)
(0,0,0)
(0,0,0)
(0,0,0)
(0,0,0)
(0,0,0)
(0,0,0)
(0,0,0)
(0,0,0)
(0,0,0)
(0,0,0)
(0,0,0)
(0,0,0)
(0,0,0)
(0,0,0)
(0,0,0)
(0,0,0)
(0,0,0)
(0,0,0)
(0,0,0)
(0,0,0)
(0,0,0)
(0,0,0)
(0,0,0)
(0,0,0)
(0,0,0)
(0,0,0)
(0,0,0)
(0,0,0)
(0,0,0)
(0,0,0)
(0,0,0)
(0,0,0)
(0,0,0)
(0,0,0)
(0,0,0)
(0,0,0)
(0,0,0)
(0,0,0)
(0,0,0)
(0,0,0)
(0,0,0)
(0,0,0)
(0,0,0)
(0,0,0)
(0,0,0)
(0,0,0)
(0,0,0)
(0,0,0)
(0,0,0)
(0,0,0)
(0,0,0)
(0,0,0)
(0,0,0)
(0,0,0)
(0,0,0)
(0,0,0)
(0,0,0)
(0,0,0)
(0,0,0)
(0,0,0)
(0,0,0)
(0,0,0)
(0,0,0)
(0,0,0)
(0,0,0)
(0,0,0)
(0,0,0)
(0,0,0)
(0,0,0)
(0,0,0)
(0,0,0)
(0,0,0)
(0,0,0)
(0,0,0)
(0,0,0)
(0,0,0)
(0,0,0)
(0,0,0)
(0,0,0)
(0,0,0)
(0,0,0)
(0,0,0)
(0,0,0)
(0,0,0)
(0,0,0)
(0,0,0)
(0,0,0)
(0,0,0)
(0,0,0)
(0,0,0)
(0,0,0)
(0,0,0)
(0,0,0)
(0,0,0)
(0,0,0)
(0,0,0)
(0,0,0)
(0,0,0)
(0,0,0)
(0,0,0)
(0,0,0)
(0,0,0)
(0,0,0)
(0,0,0)
(0,0,0)
(0,0,0)
(0,0,0)
(0,0,0)
(0,0,0)
(0,0,0)
(0,0,0)
(0,0,0)
(0,0,0)
(0,0,0)
(0,0,0)
(0,0,0)
(0,0,0)
(0,0,0)
(0,0,0)
(0,0,0)
(0,0,0)
(0,0,0)
(0,0,0)
(0,0,0)
(0,0,0)
(0,0,0)
(0,0,0)
(0,0,0)
(0,0,0)
(0,0,0)
(0,0,0)
(0,0,0)
(0,0,0)
(0,0,0)
(0,0,0)
(0,0,0)
(0,0,0)
(0,0,0)
(0,0,0)
(0,0,0)
(0,0,0)
(0,0,0)
(0,0,0)
(0,0,0)
(0,0,0)
(0,0,0)
(0,0,0)
(0,0,0)
(0,0,0)
(0,0,0)
(0,0,0)
(0,0,0)
(0,0,0)
(0,0,0)
(0,0,0)
(0,0,0)
(0,0,0)
(0,0,0)
(0,0,0)
(0,0,0)
(0,0,0)
(0,0,0)
(0,0,0)
(0,0,0)
(0,0,0)
(0,0,0)
(0,0,0)
(0,0,0)
(0,0,0)
(0,0,0)
(0,0,0)
(0,0,0)
(0,0,0)
(0,0,0)
(0,0,0)
(0,0,0)
(0,0,0)
(0,0,0)
(0,0,0)
(0,0,0)
(0,0,0)
(0,0,0)
(0,0,0)
(0,0,0)
(0,0,0)
(0,0,0)
(0,0,0)
(0,0,0)
(0,0,0)
(0,0,0)
(0,0,0)
(0,0,0)
(0,0,0)
(0,0,0)
(0,0,0)
(0,0,0)
(0,0,0)
(0,0,0)
(0,0,0)
(0,0,0)
(0,0,0)
(0,0,0)
(0,0,0)
(0,0,0)
(0,0,0)
(0,0,0)
(0,0,0)
(0,0,0)
(0,0,0)
(0,0,0)
(0,0,0)
(0,0,0)
(0,0,0)
(0,0,0)
(0,0,0)
(0,0,0)
(0,0,0)
(0,0,0)
(0,0,0)
(0,0,0)
(0,0,0)
(0,0,0)
(0,0,0)
(0,0,0)
(0,0,0)
(0,0,0)
(0,0,0)
(0,0,0)
(0,0,0)
(0,0,0)
(0,0,0)
(0,0,0)
(0,0,0)
(0,0,0)
(0,0,0)
(0,0,0)
(0,0,0)
(0,0,0)
(0,0,0)
(0,0,0)
(0,0,0)
(0,0,0)
(0,0,0)
(0,0,0)
(0,0,0)
(0,0,0)
(0,0,0)
(0,0,0)
(0,0,0)
(0,0,0)
(0,0,0)
(0,0,0)
(0,0,0)
(0,0,0)
(0,0,0)
(0,0,0)
(0,0,0)
(0,0,0)
(0,0,0)
(0,0,0)
(0,0,0)
(0,0,0)
(0,0,0)
(0,0,0)
(0,0,0)
(0,0,0)
(0,0,0)
(0,0,0)
(0,0,0)
(0,0,0)
(0,0,0)
(0,0,0)
(0,0,0)
(0,0,0)
(0,0,0)
(0,0,0)
(0,0,0)
(0,0,0)
(0,0,0)
(0,0,0)
(0,0,0)
(0,0,0)
(0,0,0)
(0,0,0)
(0,0,0)
(0,0,0)
(0,0,0)
(0,0,0)
(0,0,0)
(0,0,0)
(0,0,0)
(0,0,0)
(0,0,0)
(0,0,0)
(0,0,0)
(0,0,0)
(0,0,0)
(0,0,0)
(0,0,0)
(0,0,0)
(0,0,0)
(0,0,0)
(0,0,0)
(0,0,0)
(0,0,0)
(0,0,0)
(0,0,0)
(0,0,0)
(0,0,0)
(0,0,0)
(0,0,0)
(0,0,0)
(0,0,0)
(0,0,0)
(0,0,0)
(0,0,0)
(0,0,0)
(0,0,0)
(0,0,0)
(0,0,0)
(0,0,0)
(0,0,0)
(0,0,0)
(0,0,0)
(0,0,0)
(0,0,0)
(0,0,0)
(0,0,0)
(0,0,0)
(0,0,0)
(0,0,0)
(0,0,0)
(0,0,0)
(0,0,0)
(0,0,0)
(0,0,0)
(0,0,0)
(0,0,0)
(0,0,0)
(0,0,0)
(0,0,0)
(0,0,0)
(0,0,0)
(0,0,0)
(0,0,0)
(0,0,0)
(0,0,0)
(0,0,0)
(0,0,0)
(0,0,0)
(0,0,0)
(0,0,0)
(0,0,0)
(0,0,0)
(0,0,0)
(0,0,0)
(0,0,0)
(0,0,0)
(0,0,0)
(0,0,0)
(0,0,0)
(0,0,0)
(0,0,0)
(0,0,0)
(0,0,0)
(0,0,0)
(0,0,0)
(0,0,0)
(0,0,0)
(0,0,0)
(0,0,0)
(0,0,0)
(0,0,0)
(0,0,0)
(0,0,0)
(0,0,0)
(0,0,0)
(0,0,0)
(0,0,0)
(0,0,0)
(0,0,0)
(0,0,0)
(0,0,0)
(0,0,0)
(0,0,0)
(0,0,0)
(0,0,0)
(0,0,0)
(0,0,0)
(0,0,0)
(0,0,0)
(0,0,0)
(0,0,0)
(0,0,0)
(0,0,0)
(0,0,0)
(0,0,0)
(0,0,0)
(0,0,0)
(0,0,0)
(0,0,0)
(0,0,0)
(0,0,0)
(0,0,0)
(0,0,0)
(0,0,0)
(0,0,0)
(0,0,0)
(0,0,0)
(0,0,0)
(0,0,0)
(0,0,0)
(0,0,0)
(0,0,0)
(0,0,0)
(0,0,0)
(0,0,0)
(0,0,0)
(0,0,0)
(0,0,0)
(0,0,0)
(0,0,0)
(0,0,0)
(0,0,0)
(0,0,0)
(0,0,0)
(0,0,0)
(0,0,0)
(0,0,0)
(0,0,0)
(0,0,0)
(0,0,0)
(0,0,0)
(0,0,0)
(0,0,0)
(0,0,0)
(0,0,0)
(0,0,0)
(0,0,0)
(0,0,0)
(0,0,0)
(0,0,0)
(0,0,0)
(0,0,0)
(0,0,0)
(0,0,0)
(0,0,0)
(0,0,0)
(0,0,0)
(0,0,0)
(0,0,0)
(0,0,0)
(0,0,0)
(0,0,0)
(0,0,0)
(0,0,0)
(0,0,0)
(0,0,0)
(0,0,0)
(0,0,0)
(0,0,0)
(0,0,0)
(0,0,0)
(0,0,0)
(0,0,0)
(0,0,0)
(0,0,0)
(0,0,0)
(0,0,0)
(0,0,0)
(0,0,0)
(0,0,0)
(0,0,0)
(0,0,0)
(0,0,0)
(0,0,0)
(0,0,0)
(0,0,0)
(0,0,0)
(0,0,0)
(0,0,0)
(0,0,0)
(0,0,0)
(0,0,0)
(0,0,0)
(0,0,0)
(0,0,0)
(0,0,0)
(0,0,0)
(0,0,0)
(0,0,0)
(0,0,0)
(0,0,0)
(0,0,0)
(0,0,0)
(0,0,0)
(0,0,0)
(0,0,0)
(0,0,0)
(0,0,0)
(0,0,0)
(0,0,0)
(0,0,0)
(0,0,0)
(0,0,0)
(0,0,0)
(0,0,0)
(0,0,0)
(0,0,0)
(0,0,0)
(0,0,0)
(0,0,0)
(0,0,0)
(0,0,0)
(0,0,0)
(0,0,0)
(0,0,0)
(0,0,0)
(0,0,0)
(0,0,0)
(0,0,0)
(0,0,0)
(0,0,0)
(0,0,0)
(0,0,0)
(0,0,0)
(0,0,0)
(0,0,0)
(0,0,0)
(0,0,0)
(0,0,0)
(0,0,0)
(0,0,0)
(0,0,0)
(0,0,0)
(0,0,0)
(0,0,0)
(0,0,0)
(0,0,0)
(0,0,0)
(0,0,0)
(0,0,0)
(0,0,0)
(0,0,0)
(0,0,0)
(0,0,0)
(0,0,0)
(0,0,0)
(0,0,0)
(0,0,0)
(0,0,0)
(0,0,0)
(0,0,0)
(0,0,0)
(0,0,0)
(0,0,0)
(0,0,0)
(0,0,0)
(0,0,0)
(0,0,0)
(0,0,0)
(0,0,0)
(0,0,0)
(0,0,0)
(0,0,0)
(0,0,0)
(0,0,0)
(0,0,0)
(0,0,0)
(0,0,0)
(0,0,0)
(0,0,0)
(0,0,0)
(0,0,0)
(0,0,0)
(0,0,0)
(0,0,0)
(0,0,0)
(0,0,0)
(0,0,0)
(0,0,0)
(0,0,0)
(0,0,0)
(0,0,0)
(0,0,0)
(0,0,0)
(0,0,0)
(0,0,0)
(0,0,0)
(0,0,0)
(0,0,0)
(0,0,0)
(0,0,0)
(0,0,0)
(0,0,0)
(0,0,0)
(0,0,0)
(0,0,0)
(0,0,0)
(0,0,0)
(0,0,0)
(0,0,0)
(0,0,0)
(0,0,0)
(0,0,0)
(0,0,0)
(0,0,0)
(0,0,0)
(0,0,0)
(0,0,0)
(0,0,0)
(0,0,0)
(0,0,0)
(0,0,0)
(0,0,0)
(0,0,0)
(0,0,0)
(0,0,0)
(0,0,0)
(0,0,0)
(0,0,0)
(0,0,0)
(0,0,0)
(0,0,0)
(0,0,0)
(0,0,0)
(0,0,0)
(0,0,0)
(1.08922878751749e-12,-1.11004328835036e-11,1.24558916299615e-11)
(1.62900376410121e-12,-2.45751028872018e-11,1.19996648402777e-11)
(1.57065586027586e-12,-4.16676241617054e-11,1.07417378505925e-11)
(3.28946615415565e-13,-6.65936351931908e-11,9.18684454553827e-12)
(-3.13833554854404e-13,-1.06538383971677e-10,7.17058582027044e-12)
(-6.35419478261037e-13,-1.68453058206458e-10,4.8877656121532e-12)
(-2.68320323998011e-13,-2.68522232306328e-10,2.83154607275328e-12)
(-5.67139314119143e-13,-4.35497088317385e-10,1.43759942362002e-12)
(-8.40705271806218e-13,-7.13310369498417e-10,8.75706164858321e-13)
(-2.75684519390707e-12,-1.10220768724873e-09,4.83454417849309e-13)
(0,0,0)
(0,0,0)
(0,0,0)
(0,0,0)
(0,0,0)
(0,0,0)
(1.46770696213923e-12,-1.03738139735309e-11,2.57929503718453e-11)
(2.27122886277543e-12,-2.32162837228161e-11,2.47863285503499e-11)
(1.8709397751319e-12,-4.00808737517258e-11,2.25481031257977e-11)
(5.53363983182815e-13,-6.47768661722675e-11,1.9556971291271e-11)
(-4.26344158180564e-13,-1.04222910780961e-10,1.5877984023643e-11)
(-1.35613834558967e-12,-1.6625336463744e-10,1.14455492135141e-11)
(-1.20123867978245e-12,-2.67214599410803e-10,7.23493571366036e-12)
(-4.75880100445544e-13,-4.3533126484032e-10,4.2973013788338e-12)
(-6.23087247215358e-13,-7.134622486775e-10,2.59392563437856e-12)
(-3.50659120065675e-12,-1.10231530433779e-09,1.53521904411369e-12)
(0,0,0)
(0,0,0)
(0,0,0)
(0,0,0)
(0,0,0)
(0,0,0)
(-9.48893026024797e-14,-9.40424416607503e-12,4.47466454861163e-11)
(1.29172688916298e-14,-2.09674011238176e-11,4.32116131784542e-11)
(-6.01634806571414e-13,-3.70812505806857e-11,3.99395622158855e-11)
(-1.65722037189323e-12,-6.08455409263635e-11,3.5239824948226e-11)
(-2.09418962872319e-12,-9.91583604870746e-11,2.98400166084305e-11)
(-2.77018626424646e-12,-1.61677370031966e-10,2.33054437582374e-11)
(-2.07130234723996e-12,-2.64303791206123e-10,1.69895696819269e-11)
(-6.19595157113311e-13,-4.34160839118673e-10,1.23845300413506e-11)
(-1.83851491638635e-13,-7.13199623469643e-10,8.64916545459145e-12)
(-2.30164568912419e-12,-1.10207278775943e-09,4.73565520840472e-12)
(0,0,0)
(0,0,0)
(0,0,0)
(0,0,0)
(0,0,0)
(0,0,0)
(-2.04415178277667e-12,-8.30454527401717e-12,7.11505613995985e-11)
(-3.26938151430822e-12,-1.80671447612434e-11,6.95004198468041e-11)
(-3.96369323559416e-12,-3.22665013675047e-11,6.64026086431501e-11)
(-5.18066567603635e-12,-5.422167495039e-11,6.133106000378e-11)
(-5.40958039193487e-12,-9.06184350821651e-11,5.49572624269931e-11)
(-4.74975386834577e-12,-1.53611579522445e-10,4.7024581852244e-11)
(-1.87163334163097e-12,-2.58892379886297e-10,3.8177110095354e-11)
(1.13289818247755e-12,-4.31473704251522e-10,3.01099723635842e-11)
(2.72198308588774e-12,-7.11147644391196e-10,2.17053147938556e-11)
(2.34322090831165e-12,-1.09989204477404e-09,1.16074926723965e-11)
(0,0,0)
(0,0,0)
(0,0,0)
(0,0,0)
(0,0,0)
(0,0,0)
(-2.70918181058129e-12,-7.18152898713629e-12,1.09740203760384e-10)
(-5.21244781986028e-12,-1.516204954628e-11,1.08309065315681e-10)
(-6.45945417085987e-12,-2.65417194868265e-11,1.05748983040645e-10)
(-7.64718103913655e-12,-4.58200478564953e-11,1.01346914353046e-10)
(-7.27656040685993e-12,-7.96030154054875e-11,9.54863504092875e-11)
(-5.28435460705946e-12,-1.4148112714701e-10,8.8323664889621e-11)
(4.11000734258688e-14,-2.49304062732878e-10,7.88249139714039e-11)
(5.13714975581435e-12,-4.24981490462944e-10,6.3936371635274e-11)
(7.79149291982307e-12,-7.0403118128905e-10,4.59941982472901e-11)
(8.50364404223559e-12,-1.09179119602038e-09,2.44050301690248e-11)
(0,0,0)
(0,0,0)
(0,0,0)
(0,0,0)
(0,0,0)
(0,0,0)
(-2.2436340004311e-12,-6.00066128594965e-12,1.69677871752986e-10)
(-4.32742961393898e-12,-1.25672140776595e-11,1.68890667913547e-10)
(-5.90464488378909e-12,-2.12114001337166e-11,1.66910301973544e-10)
(-6.79336815770177e-12,-3.73952165621609e-11,1.63357821832829e-10)
(-5.91868027972181e-12,-6.82839685572288e-11,1.58221864254353e-10)
(-3.05709663638755e-12,-1.27906407535925e-10,1.51015836432592e-10)
(3.50439844025615e-12,-2.3673939677609e-10,1.38570986866069e-10)
(1.02519707265043e-11,-4.10862400605421e-10,1.16275215072514e-10)
(1.35507519097107e-11,-6.86301063402185e-10,8.4820391309087e-11)
(1.51495896905671e-11,-1.07122963467758e-09,4.51794935206901e-11)
(0,0,0)
(0,0,0)
(0,0,0)
(0,0,0)
(0,0,0)
(0,0,0)
(-1.8639555785888e-12,-4.78953373610558e-12,2.67386261427432e-10)
(-2.30686054420176e-12,-9.59847586684301e-12,2.66796111282195e-10)
(-3.48033118888482e-12,-1.60408080951334e-11,2.6536039899482e-10)
(-4.16601833989827e-12,-2.95171533676287e-11,2.62939060443294e-10)
(-2.00375861387671e-12,-5.71494150219625e-11,2.58227638045932e-10)
(2.16021245213273e-12,-1.12280578374571e-10,2.49779768350356e-10)
(7.067522185914e-12,-2.16472458626537e-10,2.31700229907261e-10)
(1.30407035169539e-11,-3.82871509328585e-10,2.0033051766801e-10)
(1.66399367687619e-11,-6.50188708101772e-10,1.49858450454515e-10)
(1.84841933413707e-11,-1.02929692892653e-09,8.16087951769112e-11)
(0,0,0)
(0,0,0)
(0,0,0)
(0,0,0)
(0,0,0)
(0,0,0)
(-8.10167358659257e-13,-3.26025567425592e-12,4.3121792593301e-10)
(-4.6086525654672e-13,-6.51876148747925e-12,4.3127252547611e-10)
(-1.35054655016337e-12,-1.18451390771737e-11,4.30689731515554e-10)
(-2.24321911741217e-12,-2.32477527809849e-11,4.28962133376032e-10)
(1.08259985091208e-12,-4.76647073838399e-11,4.23836973856146e-10)
(5.9187107658643e-12,-9.62875824968031e-11,4.12867561262227e-10)
(1.01213931678142e-11,-1.86483014345681e-10,3.88566242217165e-10)
(1.43067582727609e-11,-3.34277079402825e-10,3.41527233873047e-10)
(1.65892944857989e-11,-5.84304217618495e-10,2.63926901670158e-10)
(1.84651050089247e-11,-9.4996164770124e-10,1.49415115633367e-10)
(0,0,0)
(0,0,0)
(0,0,0)
(0,0,0)
(0,0,0)
(0,0,0)
(-1.07457713903517e-12,-1.91921647447662e-12,7.08154373702228e-10)
(-8.02975735583829e-13,-3.99404717826191e-12,7.08130036045125e-10)
(-3.56886246919473e-13,-8.28648580890843e-12,7.07484430456766e-10)
(-9.95207189390303e-13,-1.70801482118615e-11,7.05347078064965e-10)
(2.41773639397196e-12,-3.56254537101689e-11,6.98633617306469e-10)
(7.63066433497106e-12,-7.21497564053208e-11,6.83356349152176e-10)
(1.11917123494525e-11,-1.40084127508251e-10,6.50979815498953e-10)
(1.4581470055703e-11,-2.57855726363697e-10,5.87151092194471e-10)
(1.59923854504678e-11,-4.71572145175443e-10,4.74388940810644e-10)
(1.80138570686019e-11,-8.02017941443425e-10,2.84807201515156e-10)
(0,0,0)
(0,0,0)
(0,0,0)
(0,0,0)
(0,0,0)
(0,0,0)
(-9.08353931174705e-13,-8.81229508065777e-13,1.09531827347672e-09)
(-8.3645707612708e-13,-1.92935033536555e-12,1.09523766950877e-09)
(2.89692860667148e-13,-4.32029156189484e-12,1.09429458470689e-09)
(1.24407047699021e-13,-9.12917048634123e-12,1.09151786462303e-09)
(3.34551348046536e-12,-1.91849707297881e-11,1.08353036168997e-09)
(8.30957211025939e-12,-3.90673625883354e-11,1.06531814081344e-09)
(1.06736433501278e-11,-7.65342080686944e-11,1.02698392282183e-09)
(1.44459845988687e-11,-1.4577094210887e-10,9.5017204219961e-10)
(1.53849331241752e-11,-2.83190790415936e-10,8.03734423068701e-10)
(1.68739197987922e-11,-5.18111737291216e-10,5.19339566507336e-10)
(0,0,0)
(0,0,0)
(0,0,0)
(0,0,0)
(0,0,0)
(0,0,0)
(0,0,0)
(0,0,0)
(0,0,0)
(0,0,0)
(0,0,0)
(0,0,0)
(0,0,0)
(0,0,0)
(0,0,0)
(0,0,0)
(0,0,0)
(0,0,0)
(0,0,0)
(0,0,0)
(0,0,0)
(0,0,0)
(0,0,0)
(0,0,0)
(0,0,0)
(0,0,0)
(0,0,0)
(0,0,0)
(0,0,0)
(0,0,0)
(0,0,0)
(0,0,0)
(0,0,0)
(0,0,0)
(0,0,0)
(0,0,0)
(0,0,0)
(0,0,0)
(0,0,0)
(0,0,0)
(0,0,0)
(0,0,0)
(0,0,0)
(0,0,0)
(0,0,0)
(0,0,0)
(0,0,0)
(0,0,0)
(0,0,0)
(0,0,0)
(0,0,0)
(0,0,0)
(0,0,0)
(0,0,0)
(0,0,0)
(0,0,0)
(0,0,0)
(0,0,0)
(0,0,0)
(0,0,0)
(0,0,0)
(0,0,0)
(0,0,0)
(0,0,0)
(0,0,0)
(0,0,0)
(0,0,0)
(0,0,0)
(0,0,0)
(0,0,0)
(0,0,0)
(0,0,0)
(0,0,0)
(0,0,0)
(0,0,0)
(0,0,0)
(0,0,0)
(0,0,0)
(0,0,0)
(0,0,0)
(0,0,0)
(0,0,0)
(0,0,0)
(0,0,0)
(0,0,0)
(0,0,0)
(0,0,0)
(0,0,0)
(0,0,0)
(0,0,0)
(0,0,0)
(0,0,0)
(0,0,0)
(0,0,0)
(0,0,0)
(0,0,0)
(0,0,0)
(0,0,0)
(0,0,0)
(0,0,0)
(0,0,0)
(0,0,0)
(8.18836667231539e-13,-2.0298405890997e-11,2.250483910771e-11)
(1.52811158939865e-12,-4.48240714776523e-11,2.17398141341445e-11)
(1.53879875534751e-12,-7.61770541754893e-11,1.96260523788579e-11)
(5.28436319744248e-13,-1.21737994174282e-10,1.66457509318673e-11)
(-3.46486537446533e-13,-1.91971081689499e-10,1.26440897868951e-11)
(-7.78893507810618e-13,-3.00005017383924e-10,7.61262841142142e-12)
(-1.82006570308448e-13,-4.70816729789712e-10,2.73695237110221e-12)
(-1.71069532655001e-13,-7.60709821203011e-10,1.11207787523447e-13)
(-2.9657434584366e-13,-1.31677103409987e-09,-3.08527082297394e-13)
(-2.16577368742053e-12,-2.59217118862332e-09,-8.1865324468108e-15)
(0,0,0)
(0,0,0)
(0,0,0)
(0,0,0)
(0,0,0)
(0,0,0)
(1.50475897617819e-12,-1.92305035656329e-11,4.76311339528807e-11)
(2.26057168833455e-12,-4.24303356585886e-11,4.56786666172346e-11)
(1.86244843862067e-12,-7.28397588459064e-11,4.1618940579183e-11)
(3.01026004905138e-13,-1.17627293407565e-10,3.59290327785823e-11)
(-1.05845964193385e-12,-1.8699499581095e-10,2.80062870325959e-11)
(-1.7215194512004e-12,-2.95487959848217e-10,1.8005849003905e-11)
(-1.17441254965061e-12,-4.6875182426072e-10,8.1571692557397e-12)
(5.70699224414708e-14,-7.61318209396521e-10,2.87491150979794e-12)
(1.7299413555211e-13,-1.31804403881926e-09,1.22359501340127e-12)
(-2.21388873466199e-12,-2.59327227330292e-09,9.83662236252852e-13)
(0,0,0)
(0,0,0)
(0,0,0)
(0,0,0)
(0,0,0)
(0,0,0)
(3.40444113002753e-13,-1.70094901056995e-11,8.17698347964003e-11)
(3.84711868886961e-13,-3.7943959148046e-11,7.90468512511158e-11)
(-7.1664675208329e-13,-6.64731274303604e-11,7.35247176624194e-11)
(-2.88127800806331e-12,-1.08949873255122e-10,6.50256905535237e-11)
(-4.09954218347987e-12,-1.76389253232599e-10,5.30135470840685e-11)
(-4.5201026974769e-12,-2.85842853158242e-10,3.73044193658668e-11)
(-2.87767402655401e-12,-4.64331177774947e-10,2.14944782537254e-11)
(4.28634562476737e-13,-7.61836620919259e-10,1.3559907257206e-11)
(1.67767967597456e-12,-1.31979319454104e-09,9.53697482363095e-12)
(2.53266533714442e-13,-2.59461857893522e-09,5.59480570654584e-12)
(0,0,0)
(0,0,0)
(0,0,0)
(0,0,0)
(0,0,0)
(0,0,0)
(-1.51702651686449e-12,-1.42994061513916e-11,1.2985355951452e-10)
(-3.07666552561806e-12,-3.19030998212637e-11,1.26940248893802e-10)
(-4.6169264769083e-12,-5.6626082257843e-11,1.21242800317482e-10)
(-7.20849519314763e-12,-9.50962944335953e-11,1.11753362195874e-10)
(-8.49231949386591e-12,-1.58412970757479e-10,9.77177027553092e-11)
(-8.03273448687753e-12,-2.67870199592882e-10,7.87937602640306e-11)
(-3.3928127633518e-12,-4.5475761700982e-10,5.77819638108875e-11)
(3.04534196354341e-12,-7.61410043916984e-10,4.43109383451035e-11)
(5.703342105333e-12,-1.32002673789733e-09,3.22880304665745e-11)
(5.84986482710559e-12,-2.59336577988484e-09,1.74981639289029e-11)
(0,0,0)
(0,0,0)
(0,0,0)
(0,0,0)
(0,0,0)
(0,0,0)
(-2.45891106706504e-12,-1.17300053850146e-11,1.99004523831819e-10)
(-5.24720101344672e-12,-2.58669282902215e-11,1.96617502781331e-10)
(-7.38770483637704e-12,-4.53122186311497e-11,1.91532458804998e-10)
(-1.02114483897048e-11,-7.79169117428057e-11,1.83082238176047e-10)
(-1.14329217354369e-11,-1.33998741616993e-10,1.70906264064626e-10)
(-9.36032329995543e-12,-2.38181905809489e-10,1.56611455367053e-10)
(2.36497645281369e-12,-4.3165682117492e-10,1.43555077708123e-10)
(8.96023328635799e-12,-7.54493284254488e-10,1.12141705181086e-10)
(1.16505431112884e-11,-1.31210234342152e-09,7.86108965603398e-11)
(1.23471128681632e-11,-2.5821690855644e-09,4.11856770479762e-11)
(0,0,0)
(0,0,0)
(0,0,0)
(0,0,0)
(0,0,0)
(0,0,0)
(-2.66755771083695e-12,-9.38876525026937e-12,3.03685221065296e-10)
(-5.3158018847512e-12,-2.04355090486354e-11,3.02014030221517e-10)
(-7.52275678165777e-12,-3.47639651261411e-11,2.97810209872465e-10)
(-9.53547377376095e-12,-6.08304472774543e-11,2.91491331929886e-10)
(-9.84720599322087e-12,-1.09514676632927e-10,2.82642351715392e-10)
(-6.23807623122391e-12,-2.09207745252699e-10,2.70859177951512e-10)
(5.53323208428753e-12,-4.12826909867602e-10,2.53163076004026e-10)
(1.37159032130723e-11,-7.33626022895075e-10,2.10439816595326e-10)
(1.70792943977483e-11,-1.28435289842971e-09,1.50932688095258e-10)
(1.8396377460337e-11,-2.54876154098684e-09,7.93328429329505e-11)
(0,0,0)
(0,0,0)
(0,0,0)
(0,0,0)
(0,0,0)
(0,0,0)
(-2.8030834952015e-12,-7.20973737244978e-12,4.68676783831978e-10)
(-3.9508626361916e-12,-1.5175451049174e-11,4.67429458328101e-10)
(-5.2546616553173e-12,-2.56226126285533e-11,4.65086860272311e-10)
(-5.72399652918e-12,-4.5930134776178e-11,4.61880247790504e-10)
(-3.04059655641911e-12,-8.68850062111792e-11,4.56670168538338e-10)
(4.24675501747419e-12,-1.76382265556184e-10,4.46273255185032e-10)
(8.44779014426175e-12,-3.78051944818143e-10,4.12788946253994e-10)
(1.49183408047333e-11,-6.84805255221507e-10,3.61424037127632e-10)
(1.90051015627811e-11,-1.22105732930114e-09,2.66584406946651e-10)
(2.07577072934132e-11,-2.47612593204428e-09,1.43449604890161e-10)
(0,0,0)
(0,0,0)
(0,0,0)
(0,0,0)
(0,0,0)
(0,0,0)
(-2.20580610153867e-12,-5.16140233393326e-12,7.5257544360131e-10)
(-2.40278560520778e-12,-1.08568911976432e-11,7.52129630743007e-10)
(-3.1816016789059e-12,-1.91757816741765e-11,7.51219441323603e-10)
(-3.28566416664876e-12,-3.6195304233778e-11,7.49069551680499e-10)
(1.27587711405422e-14,-7.41904532246669e-11,7.43672325451758e-10)
(6.08220371944901e-12,-1.57729073019756e-10,7.30465238899779e-10)
(1.07615146744834e-11,-3.28492580576748e-10,6.92921046518603e-10)
(1.548573743642e-11,-5.94275142374055e-10,6.08355136111037e-10)
(1.83690080796754e-11,-1.10224494576051e-09,4.6800511521391e-10)
(1.99365143839946e-11,-2.33655685081572e-09,2.65864877941738e-10)
(0,0,0)
(0,0,0)
(0,0,0)
(0,0,0)
(0,0,0)
(0,0,0)
(-2.08822644834363e-12,-3.06580173394762e-12,1.30516131410217e-09)
(-2.2220669901195e-12,-7.00607399806256e-12,1.3050148293241e-09)
(-2.18572810213105e-12,-1.35481235548335e-11,1.30406611530691e-09)
(-2.23272415641372e-12,-2.71975249463393e-11,1.30089319000174e-09)
(1.25452156789657e-12,-5.77436999614727e-11,1.2915886886202e-09)
(6.92480417119805e-12,-1.21774716088678e-10,1.26893084705761e-09)
(1.14705162143862e-11,-2.44989666647369e-10,1.21587534954323e-09)
(1.52588371846945e-11,-4.56083743818447e-10,1.10440213527347e-09)
(1.71927699863891e-11,-9.02462445866643e-10,9.06546934800277e-10)
(1.89148544318036e-11,-2.072543439916e-09,5.66263095873195e-10)
(0,0,0)
(0,0,0)
(0,0,0)
(0,0,0)
(0,0,0)
(0,0,0)
(-1.70897947128472e-12,-1.30230072682587e-12,2.57709834785461e-09)
(-1.8227226096204e-12,-3.54105072022409e-12,2.57748267137753e-09)
(-1.25387861736318e-12,-7.37205627488968e-12,2.57623513800522e-09)
(-1.01726050558695e-12,-1.51357763704765e-11,2.57162748957149e-09)
(2.37276362720792e-12,-3.20233636373185e-11,2.55899085722174e-09)
(7.57642751353193e-12,-6.67204755229517e-11,2.52961352719088e-09)
(1.09513159036441e-11,-1.33364653095897e-10,2.46533545751029e-09)
(1.51126616209207e-11,-2.59351649205696e-10,2.33272772089881e-09)
(1.65889992696033e-11,-5.63681778171991e-10,2.07316939233566e-09)
(1.81017490149489e-11,-1.50738629677638e-09,1.50865975212404e-09)
(0,0,0)
(0,0,0)
(0,0,0)
(0,0,0)
(0,0,0)
(0,0,0)
(0,0,0)
(0,0,0)
(0,0,0)
(0,0,0)
(0,0,0)
(0,0,0)
(0,0,0)
(0,0,0)
(0,0,0)
(0,0,0)
(0,0,0)
(0,0,0)
(0,0,0)
(0,0,0)
(0,0,0)
(0,0,0)
(0,0,0)
(0,0,0)
(0,0,0)
(0,0,0)
(0,0,0)
(0,0,0)
(0,0,0)
(0,0,0)
(0,0,0)
(0,0,0)
(0,0,0)
(0,0,0)
(0,0,0)
(0,0,0)
(0,0,0)
(0,0,0)
(0,0,0)
(0,0,0)
(0,0,0)
(0,0,0)
(0,0,0)
(0,0,0)
(0,0,0)
(0,0,0)
(0,0,0)
(0,0,0)
(0,0,0)
(0,0,0)
(0,0,0)
(0,0,0)
(0,0,0)
(0,0,0)
(0,0,0)
(0,0,0)
(0,0,0)
(0,0,0)
(0,0,0)
(0,0,0)
(0,0,0)
(0,0,0)
(0,0,0)
(0,0,0)
(0,0,0)
(0,0,0)
(0,0,0)
(0,0,0)
(0,0,0)
(0,0,0)
(0,0,0)
(0,0,0)
(0,0,0)
(0,0,0)
(0,0,0)
(0,0,0)
(0,0,0)
(0,0,0)
(0,0,0)
(0,0,0)
(0,0,0)
(0,0,0)
(0,0,0)
(0,0,0)
(0,0,0)
(0,0,0)
(0,0,0)
(0,0,0)
(0,0,0)
(0,0,0)
(0,0,0)
(0,0,0)
(0,0,0)
(0,0,0)
(0,0,0)
(0,0,0)
(0,0,0)
(0,0,0)
(0,0,0)
(0,0,0)
(0,0,0)
(0,0,0)
(5.15959315583751e-13,-2.76215542211767e-11,3.09662923349851e-11)
(1.24813752496754e-12,-5.96930963108611e-11,2.97577294233062e-11)
(1.18180487311081e-12,-1.00779220508912e-10,2.67811078002275e-11)
(4.1939669839348e-13,-1.59250032216374e-10,2.22374650784447e-11)
(-2.9111104077881e-13,-2.44838386233907e-10,1.57756548458399e-11)
(-4.20275002970458e-13,-3.70945230653185e-10,7.22084849646201e-12)
(3.78832483801669e-13,-5.54686824786997e-10,-9.3142719681092e-13)
(8.57053530878209e-13,-8.20851820870361e-10,-4.12514661874458e-12)
(6.76089823517484e-13,-1.201706435409e-09,-3.17890901648578e-12)
(-1.07287554014092e-12,-1.66474573512038e-09,-1.26739526582813e-12)
(0,0,0)
(0,0,0)
(0,0,0)
(0,0,0)
(0,0,0)
(0,0,0)
(1.23621285188403e-12,-2.67638184543642e-11,6.48405626227109e-11)
(1.83392121563656e-12,-5.68224735514777e-11,6.21246639618327e-11)
(1.18572482335514e-12,-9.5843072797302e-11,5.65099182408787e-11)
(-4.53648401358286e-13,-1.52537851728685e-10,4.75838861957027e-11)
(-1.66376419121532e-12,-2.36737858855827e-10,3.37869698226498e-11)
(-1.51794639313766e-12,-3.64061664459865e-10,1.54505799323767e-11)
(-3.1280129049781e-13,-5.53186377506226e-10,-2.74726848982475e-12)
(2.22679794302034e-12,-8.23846299483055e-10,-7.82051629377161e-12)
(2.16208263404224e-12,-1.20550381884917e-09,-5.12619173033063e-12)
(1.16079134058978e-13,-1.66826116137031e-09,-1.80143641105562e-12)
(0,0,0)
(0,0,0)
(0,0,0)
(0,0,0)
(0,0,0)
(0,0,0)
(3.53343703635013e-13,-2.39033936180803e-11,1.09668728114865e-10)
(-1.34013868471034e-13,-5.06822096719181e-11,1.06059197017643e-10)
(-2.06466481579429e-12,-8.603800448299e-11,9.85524748348183e-11)
(-4.72271336025515e-12,-1.38273180141622e-10,8.51777235957888e-11)
(-6.36669694049111e-12,-2.18900071005793e-10,6.34348294028158e-11)
(-6.68281515112185e-12,-3.47905627647968e-10,3.20448707733419e-11)
(-4.51666379422798e-12,-5.51351325905016e-10,-2.87996549365719e-12)
(4.02498999348244e-12,-8.31824649992069e-10,-6.67416663741684e-12)
(5.8533921494313e-12,-1.21336169457461e-09,-8.87678182974827e-13)
(4.59527318966358e-12,-1.67450970629972e-09,1.5604758330392e-12)
(0,0,0)
(0,0,0)
(0,0,0)
(0,0,0)
(0,0,0)
(0,0,0)
(-1.17311666316355e-12,-1.99950645737944e-11,1.71719681256396e-10)
(-3.41538847973248e-12,-4.23154685481178e-11,1.67562537602397e-10)
(-6.44135198224464e-12,-7.15455729608584e-11,1.58951300566649e-10)
(-1.03522184436303e-11,-1.15853757111424e-10,1.43412279907112e-10)
(-1.39826061427151e-11,-1.87174275296406e-10,1.17912176970498e-10)
(-1.67092318168429e-11,-3.13010605535723e-10,7.75620747937575e-11)
(-1.30225831327944e-11,-5.4458970702269e-10,2.24904011184804e-11)
(8.1514901792258e-12,-8.46978032030282e-10,2.12784795424039e-11)
(1.25688141674734e-11,-1.22439850313522e-09,2.32518698538428e-11)
(1.21513344355589e-11,-1.68012646615672e-09,1.5031971352169e-11)
(0,0,0)
(0,0,0)
(0,0,0)
(0,0,0)
(0,0,0)
(0,0,0)
(-2.41313015106149e-12,-1.60565817589528e-11,2.56897672864598e-10)
(-5.59357627884335e-12,-3.3147517335117e-11,2.53018863088218e-10)
(-9.48573771249394e-12,-5.4353826291508e-11,2.44859556372084e-10)
(-1.51219387437992e-11,-8.77301219174862e-11,2.31190962488582e-10)
(-2.16221780211215e-11,-1.41273220167889e-10,2.10579712063407e-10)
(-2.52781061984685e-11,-2.42911219695226e-10,1.86735260522528e-10)
(1.494843767238e-11,-4.79709419531084e-10,2.02837827409711e-10)
(2.16237805473248e-11,-8.62542783634577e-10,1.32116001513652e-10)
(2.13263176329955e-11,-1.22970265070791e-09,8.93827126244155e-11)
(2.01252453381546e-11,-1.67491378563498e-09,4.67848533007222e-11)
(0,0,0)
(0,0,0)
(0,0,0)
(0,0,0)
(0,0,0)
(0,0,0)
(-3.17539474493223e-12,-1.24145124454699e-11,3.77890449746154e-10)
(-6.37203953487686e-12,-2.43250967132303e-11,3.74658081753243e-10)
(-1.03452313369702e-11,-3.76955330731139e-11,3.68345219070094e-10)
(-1.55868060600463e-11,-5.9932409221829e-11,3.59524378664284e-10)
(-2.06937026515551e-11,-9.7704560029357e-11,3.47149432982116e-10)
(-2.13674539801821e-11,-1.89849310291622e-10,3.32461780719599e-10)
(1.3481526443646e-11,-4.85209090409246e-10,3.40604538315128e-10)
(2.44022640390547e-11,-8.52032877431091e-10,2.6877690408454e-10)
(2.53835704319275e-11,-1.20418465824193e-09,1.85872860208274e-10)
(2.50936114507723e-11,-1.63914709671165e-09,9.54522050373954e-11)
(0,0,0)
(0,0,0)
(0,0,0)
(0,0,0)
(0,0,0)
(0,0,0)
(-3.60409302965772e-12,-9.02079372941512e-12,5.5170878261909e-10)
(-5.92682443167833e-12,-1.67084038375799e-11,5.49576754713849e-10)
(-8.49488012829522e-12,-2.44394386651512e-11,5.46719734495766e-10)
(-1.02487478188845e-11,-3.707838687516e-11,5.45020935008242e-10)
(-5.338236189643e-12,-5.70189784536197e-11,5.47030817004816e-10)
(1.90778714119097e-11,-1.1349818800352e-10,5.56099214681407e-10)
(1.02533350295304e-11,-4.47247063998611e-10,4.89973304012852e-10)
(1.92278581377102e-11,-7.97148480998006e-10,4.69249194705982e-10)
(2.33275200788666e-11,-1.12821124546565e-09,3.25308879509623e-10)
(2.46382309550535e-11,-1.55233549167722e-09,1.67071459463706e-10)
(0,0,0)
(0,0,0)
(0,0,0)
(0,0,0)
(0,0,0)
(0,0,0)
(-3.85559384303753e-12,-6.38162852137393e-12,8.08557061477703e-10)
(-5.3434133855018e-12,-1.18286545829911e-11,8.07146460942055e-10)
(-6.65937015563341e-12,-1.78778622709689e-11,8.06089151221885e-10)
(-6.88621722454251e-12,-2.99717775892385e-11,8.06380471923195e-10)
(-3.22690794028499e-12,-5.95856844391986e-11,8.09647440599022e-10)
(7.67203916933493e-12,-1.47718346470062e-10,8.16279748729035e-10)
(1.18245111531304e-11,-4.06543744279321e-10,7.99405815470188e-10)
(1.76443597771163e-11,-6.59731230465195e-10,6.80266769204805e-10)
(2.07267454580334e-11,-9.76096761398533e-10,4.95752716738507e-10)
(2.17879814263066e-11,-1.38959269470953e-09,2.67320271390676e-10)
(0,0,0)
(0,0,0)
(0,0,0)
(0,0,0)
(0,0,0)
(0,0,0)
(-3.70524267779006e-12,-3.6546633751242e-12,1.1830761229733e-09)
(-4.73837625062334e-12,-7.82334316267009e-12,1.18221318042453e-09)
(-5.18887007677082e-12,-1.31789711189944e-11,1.18119591264335e-09)
(-4.98997135071556e-12,-2.50902997639938e-11,1.17967471109223e-09)
(-1.80797319305789e-12,-5.54473988689002e-11,1.17514669233082e-09)
(4.92606111966988e-12,-1.30048885878814e-10,1.16047926921959e-09)
(1.13187169324532e-11,-2.87007161930139e-10,1.11073120323887e-09)
(1.6381943044916e-11,-4.77900371240565e-10,9.75282017223664e-10)
(1.8695941219133e-11,-7.50142549107163e-10,7.5451260524472e-10)
(2.00208071650903e-11,-1.12434879128946e-09,4.3307991758104e-10)
(0,0,0)
(0,0,0)
(0,0,0)
(0,0,0)
(0,0,0)
(0,0,0)
(-3.39560372139776e-12,-1.40014995632385e-12,1.64323306183227e-09)
(-4.11623995799005e-12,-4.03666293135933e-12,1.64322975923791e-09)
(-4.01828645817508e-12,-7.52918324773448e-12,1.64186398782254e-09)
(-3.51640452688591e-12,-1.50241425768853e-11,1.63796217214432e-09)
(-2.73269978712869e-13,-3.31467142746173e-11,1.62677914562408e-09)
(5.13402167078868e-12,-7.37342967789579e-11,1.59837686475956e-09)