/*--------------------------------*- C++ -*----------------------------------*\
| =========                 |                                                 |
| \\      /  F ield         | foam-extend: Open Source CFD                    |
|  \\    /   O peration     | Version:     4.0                                |
|   \\  /    A nd           | Web:         http://www.foam-extend.org         |
|    \\/     M anipulation  |                                                 |
\*---------------------------------------------------------------------------*/
FoamFile
{
    version 2.0;
    format ascii;
    class volVectorField;
    location "Data/3895";
    object      E;
}
// * * * * * * * * * * * * * * * * * * * * * * * * * * * * * * * * * * * * * //

dimensions      [0 1 -1 0 0 0 0];

internalField   nonuniform List<vector>
4096
(
(0,0,0)
(0,0,0)
(0,0,0)
(0,0,0)
(0,0,0)
(0,0,0)
(0,0,0)
(0,0,0)
(0,0,0)
(0,0,0)
(0,0,0)
(0,0,0)
(0,0,0)
(0,0,0)
(0,0,0)
(0,0,0)
(0,0,0)
(0,0,0)
(0,0,0)
(0,0,0)
(0,0,0)
(0,0,0)
(0,0,0)
(0,0,0)
(0,0,0)
(0,0,0)
(0,0,0)
(0,0,0)
(0,0,0)
(0,0,0)
(0,0,0)
(0,0,0)
(0,0,0)
(0,0,0)
(0,0,0)
(0,0,0)
(0,0,0)
(0,0,0)
(0,0,0)
(0,0,0)
(0,0,0)
(0,0,0)
(0,0,0)
(0,0,0)
(0,0,0)
(0,0,0)
(0,0,0)
(0,0,0)
(0,0,0)
(0,0,0)
(0,0,0)
(0,0,0)
(0,0,0)
(0,0,0)
(0,0,0)
(0,0,0)
(0,0,0)
(0,0,0)
(0,0,0)
(0,0,0)
(0,0,0)
(0,0,0)
(0,0,0)
(0,0,0)
(0,0,0)
(0,0,0)
(0,0,0)
(0,0,0)
(0,0,0)
(0,0,0)
(0,0,0)
(0,0,0)
(0,0,0)
(0,0,0)
(0,0,0)
(0,0,0)
(0,0,0)
(0,0,0)
(0,0,0)
(0,0,0)
(0,0,0)
(0,0,0)
(0,0,0)
(0,0,0)
(0,0,0)
(0,0,0)
(0,0,0)
(0,0,0)
(0,0,0)
(0,0,0)
(0,0,0)
(0,0,0)
(0,0,0)
(0,0,0)
(0,0,0)
(0,0,0)
(0,0,0)
(0,0,0)
(0,0,0)
(0,0,0)
(0,0,0)
(0,0,0)
(0,0,0)
(0,0,0)
(0,0,0)
(0,0,0)
(0,0,0)
(0,0,0)
(0,0,0)
(0,0,0)
(0,0,0)
(0,0,0)
(0,0,0)
(0,0,0)
(0,0,0)
(0,0,0)
(0,0,0)
(0,0,0)
(0,0,0)
(0,0,0)
(0,0,0)
(0,0,0)
(0,0,0)
(0,0,0)
(0,0,0)
(0,0,0)
(0,0,0)
(0,0,0)
(0,0,0)
(0,0,0)
(0,0,0)
(0,0,0)
(0,0,0)
(0,0,0)
(0,0,0)
(0,0,0)
(0,0,0)
(0,0,0)
(0,0,0)
(0,0,0)
(0,0,0)
(0,0,0)
(0,0,0)
(0,0,0)
(0,0,0)
(0,0,0)
(0,0,0)
(0,0,0)
(0,0,0)
(0,0,0)
(0,0,0)
(0,0,0)
(0,0,0)
(0,0,0)
(0,0,0)
(0,0,0)
(0,0,0)
(0,0,0)
(0,0,0)
(0,0,0)
(0,0,0)
(0,0,0)
(0,0,0)
(0,0,0)
(0,0,0)
(0,0,0)
(0,0,0)
(0,0,0)
(0,0,0)
(0,0,0)
(0,0,0)
(0,0,0)
(0,0,0)
(0,0,0)
(0,0,0)
(0,0,0)
(0,0,0)
(0,0,0)
(0,0,0)
(0,0,0)
(0,0,0)
(0,0,0)
(0,0,0)
(0,0,0)
(0,0,0)
(0,0,0)
(0,0,0)
(0,0,0)
(0,0,0)
(0,0,0)
(0,0,0)
(0,0,0)
(0,0,0)
(0,0,0)
(0,0,0)
(0,0,0)
(0,0,0)
(0,0,0)
(0,0,0)
(0,0,0)
(0,0,0)
(0,0,0)
(0,0,0)
(0,0,0)
(0,0,0)
(0,0,0)
(0,0,0)
(0,0,0)
(0,0,0)
(0,0,0)
(0,0,0)
(0,0,0)
(0,0,0)
(0,0,0)
(0,0,0)
(0,0,0)
(0,0,0)
(0,0,0)
(0,0,0)
(0,0,0)
(0,0,0)
(0,0,0)
(0,0,0)
(0,0,0)
(0,0,0)
(0,0,0)
(0,0,0)
(0,0,0)
(0,0,0)
(0,0,0)
(0,0,0)
(0,0,0)
(0,0,0)
(0,0,0)
(0,0,0)
(0,0,0)
(0,0,0)
(0,0,0)
(0,0,0)
(0,0,0)
(0,0,0)
(0,0,0)
(0,0,0)
(0,0,0)
(0,0,0)
(0,0,0)
(0,0,0)
(0,0,0)
(0,0,0)
(0,0,0)
(0,0,0)
(0,0,0)
(0,0,0)
(0,0,0)
(0,0,0)
(0,0,0)
(0,0,0)
(0,0,0)
(0,0,0)
(0,0,0)
(0,0,0)
(0,0,0)
(0,0,0)
(0,0,0)
(0,0,0)
(0,0,0)
(0,0,0)
(0,0,0)
(0,0,0)
(0,0,0)
(0,0,0)
(0,0,0)
(0,0,0)
(0,0,0)
(0,0,0)
(0,0,0)
(0,0,0)
(0,0,0)
(0,0,0)
(0,0,0)
(0,0,0)
(0,0,0)
(0,0,0)
(0,0,0)
(0,0,0)
(0,0,0)
(0,0,0)
(0,0,0)
(0,0,0)
(0,0,0)
(0,0,0)
(0,0,0)
(0,0,0)
(0,0,0)
(0,0,0)
(0,0,0)
(0,0,0)
(0,0,0)
(0,0,0)
(0,0,0)
(0,0,0)
(0,0,0)
(0,0,0)
(0,0,0)
(0,0,0)
(0,0,0)
(0,0,0)
(0,0,0)
(0,0,0)
(0,0,0)
(0,0,0)
(0,0,0)
(0,0,0)
(0,0,0)
(0,0,0)
(0,0,0)
(0,0,0)
(0,0,0)
(0,0,0)
(0,0,0)
(0,0,0)
(0,0,0)
(0,0,0)
(0,0,0)
(0,0,0)
(0,0,0)
(0,0,0)
(0,0,0)
(0,0,0)
(0,0,0)
(0,0,0)
(0,0,0)
(0,0,0)
(0,0,0)
(0,0,0)
(0,0,0)
(0,0,0)
(0,0,0)
(0,0,0)
(0,0,0)
(0,0,0)
(0,0,0)
(0,0,0)
(0,0,0)
(0,0,0)
(0,0,0)
(0,0,0)
(0,0,0)
(0,0,0)
(0,0,0)
(0,0,0)
(0,0,0)
(0,0,0)
(0,0,0)
(0,0,0)
(0,0,0)
(0,0,0)
(0,0,0)
(0,0,0)
(0,0,0)
(0,0,0)
(0,0,0)
(0,0,0)
(0,0,0)
(0,0,0)
(0,0,0)
(0,0,0)
(0,0,0)
(0,0,0)
(0,0,0)
(0,0,0)
(0,0,0)
(0,0,0)
(0,0,0)
(0,0,0)
(0,0,0)
(0,0,0)
(0,0,0)
(0,0,0)
(0,0,0)
(0,0,0)
(0,0,0)
(0,0,0)
(0,0,0)
(0,0,0)
(0,0,0)
(0,0,0)
(0,0,0)
(0,0,0)
(0,0,0)
(0,0,0)
(0,0,0)
(0,0,0)
(0,0,0)
(0,0,0)
(0,0,0)
(0,0,0)
(0,0,0)
(0,0,0)
(0,0,0)
(0,0,0)
(0,0,0)
(0,0,0)
(0,0,0)
(0,0,0)
(0,0,0)
(0,0,0)
(0,0,0)
(0,0,0)
(0,0,0)
(0,0,0)
(0,0,0)
(0,0,0)
(0,0,0)
(0,0,0)
(0,0,0)
(0,0,0)
(0,0,0)
(0,0,0)
(0,0,0)
(0,0,0)
(0,0,0)
(0,0,0)
(0,0,0)
(0,0,0)
(0,0,0)
(0,0,0)
(0,0,0)
(0,0,0)
(0,0,0)
(0,0,0)
(0,0,0)
(0,0,0)
(0,0,0)
(0,0,0)
(0,0,0)
(0,0,0)
(0,0,0)
(0,0,0)
(0,0,0)
(0,0,0)
(0,0,0)
(0,0,0)
(0,0,0)
(0,0,0)
(0,0,0)
(0,0,0)
(0,0,0)
(0,0,0)
(0,0,0)
(0,0,0)
(0,0,0)
(0,0,0)
(0,0,0)
(0,0,0)
(0,0,0)
(0,0,0)
(0,0,0)
(0,0,0)
(0,0,0)
(0,0,0)
(0,0,0)
(0,0,0)
(0,0,0)
(0,0,0)
(0,0,0)
(0,0,0)
(0,0,0)
(0,0,0)
(0,0,0)
(0,0,0)
(0,0,0)
(0,0,0)
(0,0,0)
(0,0,0)
(0,0,0)
(0,0,0)
(0,0,0)
(0,0,0)
(0,0,0)
(0,0,0)
(0,0,0)
(0,0,0)
(0,0,0)
(0,0,0)
(0,0,0)
(0,0,0)
(0,0,0)
(0,0,0)
(0,0,0)
(0,0,0)
(0,0,0)
(0,0,0)
(0,0,0)
(0,0,0)
(0,0,0)
(0,0,0)
(0,0,0)
(0,0,0)
(0,0,0)
(0,0,0)
(0,0,0)
(0,0,0)
(0,0,0)
(0,0,0)
(0,0,0)
(0,0,0)
(0,0,0)
(0,0,0)
(0,0,0)
(0,0,0)
(0,0,0)
(0,0,0)
(0,0,0)
(0,0,0)
(0,0,0)
(0,0,0)
(0,0,0)
(0,0,0)
(0,0,0)
(0,0,0)
(0,0,0)
(0,0,0)
(0,0,0)
(0,0,0)
(0,0,0)
(0,0,0)
(0,0,0)
(0,0,0)
(0,0,0)
(0,0,0)
(0,0,0)
(0,0,0)
(0,0,0)
(0,0,0)
(0,0,0)
(0,0,0)
(0,0,0)
(0,0,0)
(0,0,0)
(0,0,0)
(0,0,0)
(0,0,0)
(0,0,0)
(0,0,0)
(0,0,0)
(0,0,0)
(0,0,0)
(0,0,0)
(0,0,0)
(0,0,0)
(0,0,0)
(0,0,0)
(0,0,0)
(0,0,0)
(0,0,0)
(0,0,0)
(0,0,0)
(0,0,0)
(0,0,0)
(0,0,0)
(0,0,0)
(0,0,0)
(0,0,0)
(0,0,0)
(0,0,0)
(0,0,0)
(0,0,0)
(0,0,0)
(0,0,0)
(0,0,0)
(0,0,0)
(0,0,0)
(0,0,0)
(0,0,0)
(0,0,0)
(0,0,0)
(0,0,0)
(0,0,0)
(0,0,0)
(0,0,0)
(0,0,0)
(0,0,0)
(0,0,0)
(0,0,0)
(0,0,0)
(0,0,0)
(0,0,0)
(0,0,0)
(0,0,0)
(0,0,0)
(0,0,0)
(0,0,0)
(0,0,0)
(0,0,0)
(0,0,0)
(0,0,0)
(0,0,0)
(0,0,0)
(0,0,0)
(0,0,0)
(0,0,0)
(0,0,0)
(0,0,0)
(0,0,0)
(0,0,0)
(0,0,0)
(0,0,0)
(0,0,0)
(0,0,0)
(0,0,0)
(0,0,0)
(0,0,0)
(0,0,0)
(0,0,0)
(0,0,0)
(0,0,0)
(0,0,0)
(0,0,0)
(0,0,0)
(0,0,0)
(0,0,0)
(0,0,0)
(0,0,0)
(0,0,0)
(0,0,0)
(0,0,0)
(0,0,0)
(0,0,0)
(0,0,0)
(0,0,0)
(0,0,0)
(0,0,0)
(0,0,0)
(0,0,0)
(0,0,0)
(0,0,0)
(0,0,0)
(0,0,0)
(0,0,0)
(0,0,0)
(0,0,0)
(0,0,0)
(0,0,0)
(0,0,0)
(0,0,0)
(0,0,0)
(0,0,0)
(0,0,0)
(0,0,0)
(0,0,0)
(0,0,0)
(0,0,0)
(0,0,0)
(0,0,0)
(0,0,0)
(0,0,0)
(0,0,0)
(0,0,0)
(0,0,0)
(0,0,0)
(0,0,0)
(0,0,0)
(0,0,0)
(0,0,0)
(0,0,0)
(0,0,0)
(0,0,0)
(0,0,0)
(0,0,0)
(0,0,0)
(0,0,0)
(0,0,0)
(0,0,0)
(0,0,0)
(0,0,0)
(0,0,0)
(0,0,0)
(0,0,0)
(0,0,0)
(0,0,0)
(0,0,0)
(0,0,0)
(0,0,0)
(0,0,0)
(0,0,0)
(0,0,0)
(0,0,0)
(0,0,0)
(0,0,0)
(0,0,0)
(0,0,0)
(0,0,0)
(0,0,0)
(0,0,0)
(0,0,0)
(0,0,0)
(0,0,0)
(0,0,0)
(0,0,0)
(0,0,0)
(0,0,0)
(0,0,0)
(0,0,0)
(0,0,0)
(0,0,0)
(0,0,0)
(0,0,0)
(0,0,0)
(0,0,0)
(0,0,0)
(0,0,0)
(0,0,0)
(0,0,0)
(0,0,0)
(0,0,0)
(0,0,0)
(0,0,0)
(0,0,0)
(0,0,0)
(0,0,0)
(0,0,0)
(0,0,0)
(0,0,0)
(0,0,0)
(0,0,0)
(0,0,0)
(0,0,0)
(0,0,0)
(0,0,0)
(0,0,0)
(0,0,0)
(0,0,0)
(0,0,0)
(0,0,0)
(0,0,0)
(0,0,0)
(0,0,0)
(0,0,0)
(0,0,0)
(0,0,0)
(0,0,0)
(0,0,0)
(0,0,0)
(0,0,0)
(0,0,0)
(0,0,0)
(0,0,0)
(0,0,0)
(0,0,0)
(0,0,0)
(0,0,0)
(0,0,0)
(0,0,0)
(0,0,0)
(0,0,0)
(0,0,0)
(0,0,0)
(0,0,0)
(0,0,0)
(0,0,0)
(0,0,0)
(0,0,0)
(0,0,0)
(0,0,0)
(0,0,0)
(0,0,0)
(0,0,0)
(0,0,0)
(0,0,0)
(0,0,0)
(0,0,0)
(0,0,0)
(0,0,0)
(0,0,0)
(0,0,0)
(0,0,0)
(0,0,0)
(0,0,0)
(0,0,0)
(0,0,0)
(0,0,0)
(0,0,0)
(0,0,0)
(0,0,0)
(0,0,0)
(0,0,0)
(0,0,0)
(0,0,0)
(0,0,0)
(0,0,0)
(0,0,0)
(0,0,0)
(0,0,0)
(0,0,0)
(0,0,0)
(0,0,0)
(0,0,0)
(0,0,0)
(0,0,0)
(0,0,0)
(0,0,0)
(0,0,0)
(0,0,0)
(0,0,0)
(0,0,0)
(0,0,0)
(0,0,0)
(0,0,0)
(0,0,0)
(0,0,0)
(0,0,0)
(0,0,0)
(0,0,0)
(0,0,0)
(0,0,0)
(0,0,0)
(0,0,0)
(0,0,0)
(-109671.465775164,58031.2727592714,51640.1930158912)
(-116035.204251162,55680.5737862086,111994.823480842)
(-130710.878871322,50736.0472956268,191969.655056532)
(-158377.463182612,42929.1301492162,307417.988089941)
(-208225.315814929,32397.5820566905,483245.721848174)
(-297648.35267081,20221.1623039567,760672.912215034)
(-459581.409840624,9135.32378552976,1211118.99827016)
(-752314.673701181,2338.75911704127,1961094.9128543)
(-1240761.43199011,64.5283197117118,3201791.81652466)
(-1728773.15138628,-159.785622140576,4930724.75353314)
(0,0,0)
(0,0,0)
(0,0,0)
(0,0,0)
(0,0,0)
(0,0,0)
(-116029.813824765,124856.114597748,49204.9719862884)
(-122438.593713252,120411.43312611,106912.70635964)
(-137336.216912411,110989.449384183,183995.521183494)
(-165654.294288752,95930.2960886828,296648.649532778)
(-216872.142966231,75059.1156138349,470859.258941861)
(-308448.221869825,50153.7467978225,749374.896317812)
(-472175.293848808,26577.2259830576,1204108.28796908)
(-763795.010655383,11630.3326191305,1958611.72512232)
(-1248436.42546235,5724.33679607958,3201388.34210839)
(-1732359.72440248,2889.45037046444,4930698.83051811)
(0,0,0)
(0,0,0)
(0,0,0)
(0,0,0)
(0,0,0)
(0,0,0)
(-130561.217401569,210774.697780732,44642.6342185844)
(-137061.600869413,204794.73515311,97320.9330610017)
(-152399.066087792,192003.485752106,168705.962780876)
(-182098.555897371,171197.865880117,275536.948886813)
(-236555.762472847,141401.993789674,445749.833183808)
(-333793.579790367,104127.364071069,725569.795700935)
(-503156.872127317,66373.434301451,1188930.45950988)
(-792319.554006057,40420.6494557313,1952459.6966793)
(-1266799.56695183,26671.7637379946,3198311.83668923)
(-1740675.55304842,14422.6040764673,4927454.23603173)
(0,0,0)
(0,0,0)
(0,0,0)
(0,0,0)
(0,0,0)
(0,0,0)
(-157620.881806822,329890.355496096,38505.2240914584)
(-164210.25627262,323198.596626962,84311.6188902303)
(-180099.96515544,308828.868416768,147586.201381)
(-211810.732782361,285153.776555349,245441.023488116)
(-271645.183926849,250357.150719466,408131.050485192)
(-379778.46751417,204586.92104296,687449.961027466)
(-562576.726019994,153750.744914751,1162649.37643413)
(-847577.141260326,112210.892488034,1938436.27466213)
(-1300496.36635571,79782.2612301223,3185822.14352565)
(-1755374.50427511,42923.8498470577,4912695.40203043)
(0,0,0)
(0,0,0)
(0,0,0)
(0,0,0)
(0,0,0)
(0,0,0)
(-205958.306885639,504168.962213794,31679.7001679328)
(-212505.119946131,497614.616603966,69768.8001370528)
(-228698.846448688,483622.039990488,123674.475012026)
(-262130.363990916,460532.840847868,210425.774710428)
(-327528.63907673,426231.8555055,362079.709001112)
(-449165.148217317,379560.888809268,636270.889452111)
(-653114.950785033,322355.388349466,1120781.19680245)
(-931752.263173964,259018.876926617,1905725.47553781)
(-1349509.70667283,186241.267622052,3148776.17581883)
(-1776638.56202112,98727.7911427765,4869610.79654426)
(0,0,0)
(0,0,0)
(0,0,0)
(0,0,0)
(0,0,0)
(0,0,0)
(-293200.948381789,772306.520793739,25063.3898018494)
(-299418.518025761,766460.658545221,55635.8658863518)
(-315084.16098701,753984.621482006,100357.445381847)
(-348183.404171307,733171.202949146,175902.487451866)
(-414266.999302044,701227.507711226,315173.834548206)
(-538229.940639053,654170.979896204,578793.684100323)
(-742817.377272859,586733.125734054,1057233.3239886)
(-1008798.82620424,492264.342783332,1832786.68433616)
(-1402620.85136462,360481.980667493,3061166.82265531)
(-1803388.31995562,192452.634695499,4770830.29905819)
(0,0,0)
(0,0,0)
(0,0,0)
(0,0,0)
(0,0,0)
(0,0,0)
(-453356.636693131,1206511.68794628,19151.469540593)
(-458850.600036178,1201433.85658447,43028.8715375366)
(-472905.669912775,1190555.63019028,79363.5327420405)
(-503135.838578795,1171920.09668528,143750.477584693)
(-564533.475264656,1141646.08783973,267865.372720851)
(-681007.807634051,1091948.36953542,511095.790715706)
(-873000.591155902,1008239.05882466,962590.448781003)
(-1114867.08070976,868759.606492688,1700962.26578139)
(-1481793.1200591,650057.876892917,2893179.48961509)
(-1847083.44929289,354212.17830921,4578503.3952943)
(0,0,0)
(0,0,0)
(0,0,0)
(0,0,0)
(0,0,0)
(0,0,0)
(-746238.85752608,1938759.52297946,13991.0224928826)
(-750634.982984351,1934106.35075174,31953.511309964)
(-761951.960534154,1923915.19771758,60545.9043168153)
(-786531.248459958,1905707.96688965,113289.282572382)
(-837006.761217537,1874029.82710483,217912.304524822)
(-933814.340229526,1816508.44482265,427166.569467097)
(-1094596.43913792,1706993.18385828,823008.883571354)
(-1290409.01473442,1499886.39256845,1482291.11223005)
(-1625491.95247557,1160385.38367507,2597455.55792347)
(-1930583.49059639,657735.779744855,4224515.44708417)
(0,0,0)
(0,0,0)
(0,0,0)
(0,0,0)
(0,0,0)
(0,0,0)
(-1236638.05278801,3166041.07119855,9356.50456891027)
(-1239655.35227948,3161379.45601813,21738.751581991)
(-1247340.75230676,3150695.9270633,42298.7745429963)
(-1263861.03949047,3130456.45927419,81411.3216489138)
(-1297193.46239544,3092554.03950424,160080.571644971)
(-1359829.88136681,3018994.74787581,317424.149958635)
(-1465090.56263038,2873639.55681328,615868.339634031)
(-1621511.66931316,2594362.40072525,1142904.00079041)
(-1890544.88608767,2098861.868126,2094972.40242702)
(-2076207.91853773,1261944.07389493,3566972.02681466)
(0,0,0)
(0,0,0)
(0,0,0)
(0,0,0)
(0,0,0)
(0,0,0)
(-1726901.78475594,4888196.41846801,4746.43748647136)
(-1728415.7727933,4883354.69825576,11186.9680421149)
(-1732228.20327692,4871938.13122295,22172.9671593945)
(-1740324.15406106,4849569.78790197,43383.7925927198)
(-1756441.89054689,4806128.98639287,86250.7362510078)
(-1786614.26986068,4719959.36548226,171900.388505186)
(-1839290.07031993,4548189.29948255,336640.716155854)
(-1928079.9906524,4211531.94926542,647551.158268047)
(-2075725.89249673,3563896.50583545,1258242.41305523)
(-2090481.03568485,2305452.22854915,2305215.29408595)
(0,0,0)
(0,0,0)
(0,0,0)
(0,0,0)
(0,0,0)
(0,0,0)
(0,0,0)
(0,0,0)
(0,0,0)
(0,0,0)
(0,0,0)
(0,0,0)
(0,0,0)
(0,0,0)
(0,0,0)
(0,0,0)
(0,0,0)
(0,0,0)
(0,0,0)
(0,0,0)
(0,0,0)
(0,0,0)
(0,0,0)
(0,0,0)
(0,0,0)
(0,0,0)
(0,0,0)
(0,0,0)
(0,0,0)
(0,0,0)
(0,0,0)
(0,0,0)
(0,0,0)
(0,0,0)
(0,0,0)
(0,0,0)
(0,0,0)
(0,0,0)
(0,0,0)
(0,0,0)
(0,0,0)
(0,0,0)
(0,0,0)
(0,0,0)
(0,0,0)
(0,0,0)
(0,0,0)
(0,0,0)
(0,0,0)
(0,0,0)
(0,0,0)
(0,0,0)
(0,0,0)
(0,0,0)
(0,0,0)
(0,0,0)
(0,0,0)
(0,0,0)
(0,0,0)
(0,0,0)
(0,0,0)
(0,0,0)
(0,0,0)
(0,0,0)
(0,0,0)
(0,0,0)
(0,0,0)
(0,0,0)
(0,0,0)
(0,0,0)
(0,0,0)
(0,0,0)
(0,0,0)
(0,0,0)
(0,0,0)
(0,0,0)
(0,0,0)
(0,0,0)
(0,0,0)
(0,0,0)
(0,0,0)
(0,0,0)
(0,0,0)
(0,0,0)
(0,0,0)
(0,0,0)
(0,0,0)
(0,0,0)
(0,0,0)
(0,0,0)
(0,0,0)
(0,0,0)
(0,0,0)
(0,0,0)
(0,0,0)
(0,0,0)
(0,0,0)
(0,0,0)
(0,0,0)
(0,0,0)
(0,0,0)
(0,0,0)
(16213552.4571035,51685.7901459933,45291.6849200302)
(16202880.5661368,49278.7357770379,97298.5766998409)
(16178472.8664998,44103.187740956,164213.041532277)
(16132965.0601389,35652.4112101676,257419.504945283)
(16052044.6124837,23723.2438081037,393627.730783263)
(15908222.6725361,9424.11645643453,598533.987064483)
(15644357.0118209,-3430.10142060154,918227.06476803)
(15122794.1687129,-9132.62532448332,1472452.24562309)
(13945868.5380473,-7606.5651645749,2713630.23869492)
(10749437.6256586,-3753.46935988054,6659374.3289548)
(0,0,0)
(0,0,0)
(0,0,0)
(0,0,0)
(0,0,0)
(0,0,0)
(16202685.1206561,110379.737510656,42792.5160992149)
(16192028.2531352,105809.003425449,91996.7995469882)
(16167430.5336118,95907.391977931,155627.242730471)
(16121081.2799151,79428.6667413358,245316.810940135)
(16037969.6534571,55266.1162803144,379133.539989304)
(15890103.6315782,24708.548248572,585498.652693875)
(15622187.5841151,-4476.0107370257,912383.081991188)
(15102791.4704519,-16973.3277117454,1473838.70121586)
(13933412.875851,-12729.9239895793,2717314.15667187)
(10743969.8466449,-5473.63886689141,6662906.153076)
(0,0,0)
(0,0,0)
(0,0,0)
(0,0,0)
(0,0,0)
(0,0,0)
(16178063.5554704,183820.123653591,38136.2389296406)
(16167415.4935032,177706.296323846,81963.2496032818)
(16142404.9130197,164308.812299875,138959.248118636)
(16094093.8359413,141453.837191414,220943.083774612)
(16005279.3544669,106245.0244299,348330.45662993)
(15845314.0101303,58076.9396776269,556055.873224989)
(15562065.2344736,6894.76265893448,899664.391172725)
(15047612.1674448,-14897.8698306177,1477858.60978551)
(13901320.8499657,-7090.45087356704,2724300.11769637)
(10730642.5637981,-293.817693178201,6668003.57762077)
(0,0,0)
(0,0,0)
(0,0,0)
(0,0,0)
(0,0,0)
(0,0,0)
(16132979.5321861,281535.045568479,31886.0620368527)
(16122372.7534267,274840.966725044,68369.7798810616)
(16096818.1080501,260148.24668865,115813.670231396)
(16045409.342107,234784.088214413,185464.742263726)
(15946022.6648039,194410.60924264,299832.706664975)
(15758653.8514811,135157.319099075,504521.406192886)
(15428303.2415876,63174.2693704909,877563.32981843)
(14921882.8185478,27991.4024269088,1485415.49569747)
(13836429.5161523,30745.0044003329,2730855.55586016)
(10705724.2281795,21657.0427931248,6668007.36086398)
(0,0,0)
(0,0,0)
(0,0,0)
(0,0,0)
(0,0,0)
(0,0,0)
(16053781.4142256,416915.236932673,25081.4854692892)
(16043446.8699112,410679.206699328,53492.6535822454)
(16017775.6524082,397204.899390791,90162.8999680202)
(15963682.6664147,374469.095538381,144866.260182928)
(15852190.6920214,339470.48383417,240288.452438039)
(15623745.9030815,290512.546158813,432223.572024189)
(15187743.5119972,232666.525807583,842074.250749602)
(14688671.9492189,181939.567686132,1487903.27104227)
(13734649.6996217,133101.81067393,2721588.45641864)
(10668642.7635912,71948.3728154669,6646217.19872849)
(0,0,0)
(0,0,0)
(0,0,0)
(0,0,0)
(0,0,0)
(0,0,0)
(15912969.0214761,612166.181687547,18780.4833317546)
(15903341.9334759,607035.34455105,39865.2919229986)
(15878881.6624536,596143.756308382,67162.0095094529)
(15825778.8101147,578203.946235182,109666.342471406)
(15713018.4391925,550960.813617879,191091.972137744)
(15478046.1022325,511395.754565977,374134.118803569)
(15036503.484519,456521.629238959,791159.551525076)
(14559463.1996,386149.900748917,1438888.5906027)
(13647966.3285179,281286.275799109,2660318.34353982)
(10626131.1198824,148762.984156662,6574185.69030517)
(0,0,0)
(0,0,0)
(0,0,0)
(0,0,0)
(0,0,0)
(0,0,0)
(15651819.7221157,913599.685193065,13591.5356302359)
(15643443.8924181,909638.565101034,28895.2205706686)
(15621783.7892855,901474.065325288,49076.850300219)
(15573588.6858345,888493.870383942,82263.7996827264)
(15468432.9568311,869166.074634462,151293.504515029)
(15243750.3824814,839100.252116292,319032.21479393)
(14815512.2029465,786581.265542846,720661.182332145)
(14384995.800334,693152.075713279,1333997.52426871)
(13519567.7770011,506288.803782097,2527835.49716993)
(10553528.6878263,270664.656855187,6425523.08529704)
(0,0,0)
(0,0,0)
(0,0,0)
(0,0,0)
(0,0,0)
(0,0,0)
(15129793.5113577,1448216.69147883,9552.02277514254)
(15123180.9467612,1444989.85602327,20586.2000519833)
(15105941.8692053,1438445.89035455,35921.9432278725)
(15067017.8785522,1428319.34603897,62748.7385052906)
(14980356.8401216,1413760.56077346,120992.048971723)
(14789791.6363686,1390381.30670569,266306.415728965)
(14414961.2926149,1336390.62269936,627140.724764191)
(14134196.1958158,1168713.72692245,1147175.26094923)
(13260563.124713,895274.575873062,2292335.80961433)
(10385537.577955,512048.929371513,6155031.86649131)
(0,0,0)
(0,0,0)
(0,0,0)
(0,0,0)
(0,0,0)
(0,0,0)
(13949857.0310086,2675601.01227723,6321.99334973099)
(13945369.3673136,2672484.01573825,14004.5119862926)
(13933857.529517,2665731.79938261,25721.719079146)
(13908409.6467053,2653949.23079095,48022.5460760047)
(13854184.7517521,2633231.91880336,97374.3718431729)
(13743874.0957201,2592128.89940015,212124.200006667)
(13544869.3424332,2499345.13076467,459411.184822556)
(13265270.3601523,2287712.47695502,873831.8032693)
(12475866.3885394,1913615.13525462,1909281.3672054)
(9874558.90169894,1247621.31464793,5643143.55963693)
(0,0,0)
(0,0,0)
(0,0,0)
(0,0,0)
(0,0,0)
(0,0,0)
(10750787.958197,6614884.39291211,3228.27435673401)
(10748561.6711374,6611602.78746368,7333.45664504199)
(10742934.5801151,6604080.05289647,14023.8176838688)
(10730740.0598303,6589876.55082301,27233.681705211)
(10705545.0973863,6562607.64347737,56072.3670427483)
(10655969.0981961,6506606.53799788,119212.758333018)
(10564126.488061,6387489.90938694,247852.819274465)
(10388182.2742715,6139586.83952353,499917.589726846)
(9874967.76095688,5639541.06655179,1243499.40292083)
(8029247.26849497,4395881.07309562,4395712.73823797)
(0,0,0)
(0,0,0)
(0,0,0)
(0,0,0)
(0,0,0)
(0,0,0)
(0,0,0)
(0,0,0)
(0,0,0)
(0,0,0)
(0,0,0)
(0,0,0)
(0,0,0)
(0,0,0)
(0,0,0)
(0,0,0)
(0,0,0)
(0,0,0)
(0,0,0)
(0,0,0)
(0,0,0)
(0,0,0)
(0,0,0)
(0,0,0)
(0,0,0)
(0,0,0)
(0,0,0)
(0,0,0)
(0,0,0)
(0,0,0)
(0,0,0)
(0,0,0)
(0,0,0)
(0,0,0)
(0,0,0)
(0,0,0)
(0,0,0)
(0,0,0)
(0,0,0)
(0,0,0)
(0,0,0)
(0,0,0)
(0,0,0)
(0,0,0)
(0,0,0)
(0,0,0)
(0,0,0)
(0,0,0)
(0,0,0)
(0,0,0)
(0,0,0)
(0,0,0)
(0,0,0)
(0,0,0)
(0,0,0)
(0,0,0)
(0,0,0)
(0,0,0)
(0,0,0)
(0,0,0)
(0,0,0)
(0,0,0)
(0,0,0)
(0,0,0)
(0,0,0)
(0,0,0)
(0,0,0)
(0,0,0)
(0,0,0)
(0,0,0)
(0,0,0)
(0,0,0)
(0,0,0)
(0,0,0)
(0,0,0)
(0,0,0)
(0,0,0)
(0,0,0)
(0,0,0)
(0,0,0)
(0,0,0)
(0,0,0)
(0,0,0)
(0,0,0)
(0,0,0)
(0,0,0)
(0,0,0)
(0,0,0)
(0,0,0)
(0,0,0)
(0,0,0)
(0,0,0)
(0,0,0)
(0,0,0)
(0,0,0)
(0,0,0)
(0,0,0)
(0,0,0)
(0,0,0)
(0,0,0)
(0,0,0)
(0,0,0)
(-282293.153716915,40929.0571771355,34715.1556985916)
(-294071.054898492,38492.4694005802,72972.9093884923)
(-320580.186076085,33092.957933882,118731.606085983)
(-368692.272345168,23785.9056217518,176401.635003604)
(-450928.654095169,9618.87240203953,249554.631235735)
(-588020.611713951,-8735.06894353987,334331.586484752)
(-812215.505332695,-25619.6044799108,396322.310173745)
(-1167116.44151531,-29137.6251283907,295169.147585702)
(-1676006.60556825,-20043.4360345031,-483113.670708894)
(-2054446.8400243,-9192.94396323578,-4090237.65900736)
(0,0,0)
(0,0,0)
(0,0,0)
(0,0,0)
(0,0,0)
(0,0,0)
(-294760.407802853,85977.1488745283,32196.0388168139)
(-306289.430617598,81345.2380887646,67459.5559367876)
(-332483.208464527,70950.5186108694,109314.339391461)
(-380609.420083724,52435.7977347899,162153.749332565)
(-464070.477802671,22502.2596654917,231109.09538419)
(-604878.868242272,-20177.9272387195,317333.055555098)
(-834315.433634914,-64689.634234663,392704.705115088)
(-1185782.12757758,-72231.0592431261,304170.33931458)
(-1685371.12560807,-44874.7820956009,-472415.711109599)
(-2057776.75599929,-18790.5219182815,-4081272.92845495)
(0,0,0)
(0,0,0)
(0,0,0)
(0,0,0)
(0,0,0)
(0,0,0)
(-322533.66050873,138864.220705367,27508.7462037501)
(-333631.781191619,132755.728889407,56944.1321532704)
(-359274.793923083,118745.535965859,90627.4237962727)
(-407792.876951384,92716.6020017948,132031.934477236)
(-495504.357045304,46908.435506652,188208.072203619)
(-650793.231827464,-28654.0233912425,272590.012369111)
(-908274.51810244,-126936.499832253,384975.232598127)
(-1250486.76827546,-140708.340124068,331350.051254558)
(-1713751.35210642,-72057.4228821275,-446596.503831214)
(-2066897.94053805,-25224.0259213449,-4062823.89343667)
(0,0,0)
(0,0,0)
(0,0,0)
(0,0,0)
(0,0,0)
(0,0,0)
(-371941.103393987,202309.101647313,21274.3566934683)
(-382438.521971666,195886.673588618,42753.2894478956)
(-407301.614530941,181088.148517478,64329.0015326598)
(-456738.092734565,153031.076672866,85960.5637584612)
(-554170.06249649,100520.615348165,112339.71327261)
(-752028.35784132,185.189780200033,173981.311478979)
(-1138331.24222547,-177448.204257322,370926.101772389)
(-1462588.82026502,-205292.23671326,399780.239229711)
(-1784951.30791948,-71094.7483131368,-400003.009212051)
(-2086420.33680526,-15464.0602599819,-4037819.80783346)
(0,0,0)
(0,0,0)
(0,0,0)
(0,0,0)
(0,0,0)
(0,0,0)
(-454767.178594356,275951.850889107,14704.4456334398)
(-464364.233854406,270473.045851855,27727.7791912385)
(-487830.255045183,258266.072823162,35954.364394129)
(-537265.331164673,236534.49607102,33197.544630854)
(-646216.479363743,200227.623739441,11696.3096799562)
(-925353.038372467,144724.605792984,-3945.562823549)
(-1837986.66457875,81337.8404811741,342797.171069124)
(-2180413.02849684,52644.6904500973,533743.82367681)
(-1924730.77143241,46353.6217121888,-344525.47323893)
(-2118462.27897223,29382.7160856934,-4022468.60496568)
(0,0,0)
(0,0,0)
(0,0,0)
(0,0,0)
(0,0,0)
(0,0,0)
(-591165.643583524,350799.511536283,9085.60646793525)
(-599543.692116777,346946.122565457,15296.7574023842)
(-620570.561592,338889.400445612,13924.2558808713)
(-666559.790850208,325896.008190224,-3300.05321817681)
(-772491.937062555,306288.551708769,-44052.0028770353)
(-1050930.85753954,276994.199034468,-67546.0342910155)
(-1919239.74337526,235394.945057931,313938.691081724)
(-2232979.29829429,211564.432952404,527260.048528974)
(-1989840.28391481,152821.332264618,-361602.447535569)
(-2150498.79546897,76144.667882567,-4051935.88192573)
(0,0,0)
(0,0,0)
(0,0,0)
(0,0,0)
(0,0,0)
(0,0,0)
(-814081.514475991,391356.530273439,5142.81990993583)
(-820989.758179383,389200.058585313,7121.13654287375)
(-838650.221987143,385496.256899117,746.893417266639)
(-878730.468775525,381833.118165668,-23072.4598927081)
(-976024.065922749,381047.103589615,-73575.386964345)
(-1248728.57816518,385035.764584808,-109339.389812768)
(-2154520.44274843,385892.308184672,289994.494810903)
(-2444333.84438556,442222.998089688,468464.17644856)
(-2088260.49267698,247181.807231505,-438269.426784652)
(-2203381.74355358,102615.88609778,-4128031.61156479)
(0,0,0)
(0,0,0)
(0,0,0)
(0,0,0)
(0,0,0)
(0,0,0)
(-1169986.58224201,268029.595534554,2905.63039390735)
(-1175193.40269389,267005.137010061,3273.50347962199)
(-1188647.50483878,266266.775545621,-3109.03906741095)
(-1220067.49819248,269668.358126082,-24060.3002277511)
(-1300615.67721848,287533.287725606,-69775.364968219)
(-1550857.17638205,344337.511563801,-108629.697141302)
(-2540378.56652386,466130.999165242,346270.073072339)
(-2070633.64707594,299660.362462293,273461.153646937)
(-2166735.51421549,110486.791567522,-582746.589705092)
(-2285220.32203611,990.56621250967,-4230564.76777334)
(0,0,0)
(0,0,0)
(0,0,0)
(0,0,0)
(0,0,0)
(0,0,0)
(-1680497.155531,-523670.248153387,1852.6322828218)
(-1683904.7860218,-524529.522569041,2460.04725271923)
(-1692510.19025833,-525323.657260283,216.801889276865)
(-1711813.24090953,-523803.114177553,-6290.2361368665)
(-1756182.38871428,-515506.266605796,-13084.93928371)
(-1862276.03692482,-495872.220825327,13073.5278054688)
(-2094371.40503926,-481524.29014554,179768.166643964)
(-2170365.48316929,-589485.729604028,84348.7040870585)
(-2370026.68879536,-687370.163404501,-692102.661550823)
(-2407532.87765943,-597758.234452006,-4231463.47947254)
(0,0,0)
(0,0,0)
(0,0,0)
(0,0,0)
(0,0,0)
(0,0,0)
(-2057925.61511739,-4136169.54858561,1011.47580203243)
(-2059580.38805059,-4137249.86101554,1672.47549188854)
(-2063674.84554447,-4139030.39366266,1787.23960918554)
(-2072562.15786148,-4140923.01896912,2007.96414777138)
(-2091620.16230609,-4142976.48814913,6442.04743879476)
(-2131585.27879911,-4149408.98158084,27331.7872447313)
(-2205464.88684385,-4176682.64297603,71880.1170354461)
(-2287658.885045,-4248615.14430678,-13350.7068900609)
(-2408231.73629202,-4235449.51431062,-602273.2566798)
(-2324051.8699446,-3633385.64722104,-3633548.10341591)
(0,0,0)
(0,0,0)
(0,0,0)
(0,0,0)
(0,0,0)
(0,0,0)
(0,0,0)
(0,0,0)
(0,0,0)
(0,0,0)
(0,0,0)
(0,0,0)
(0,0,0)
(0,0,0)
(0,0,0)
(0,0,0)
(0,0,0)
(0,0,0)
(0,0,0)
(0,0,0)
(0,0,0)
(0,0,0)
(0,0,0)
(0,0,0)
(0,0,0)
(0,0,0)
(0,0,0)
(0,0,0)
(0,0,0)
(0,0,0)
(0,0,0)
(0,0,0)
(0,0,0)
(0,0,0)
(0,0,0)
(0,0,0)
(0,0,0)
(0,0,0)
(0,0,0)
(0,0,0)
(0,0,0)
(0,0,0)
(0,0,0)
(0,0,0)
(0,0,0)
(0,0,0)
(0,0,0)
(0,0,0)
(0,0,0)
(0,0,0)
(0,0,0)
(0,0,0)
(0,0,0)
(0,0,0)
(0,0,0)
(0,0,0)
(0,0,0)
(0,0,0)
(0,0,0)
(0,0,0)
(0,0,0)
(0,0,0)
(0,0,0)
(0,0,0)
(0,0,0)
(0,0,0)
(0,0,0)
(0,0,0)
(0,0,0)
(0,0,0)
(0,0,0)
(0,0,0)
(0,0,0)
(0,0,0)
(0,0,0)
(0,0,0)
(0,0,0)
(0,0,0)
(0,0,0)
(0,0,0)
(0,0,0)
(0,0,0)
(0,0,0)
(0,0,0)
(0,0,0)
(0,0,0)
(0,0,0)
(0,0,0)
(0,0,0)
(0,0,0)
(0,0,0)
(0,0,0)
(0,0,0)
(0,0,0)
(0,0,0)
(0,0,0)
(0,0,0)
(0,0,0)
(0,0,0)
(0,0,0)
(0,0,0)
(0,0,0)
(-334004.647119597,28656.472583726,23055.0208189567)
(-343998.57285505,26401.3628625396,46581.1759129768)
(-365920.797515716,21263.8842418252,70657.9031107849)
(-404052.196254167,11901.0036262598,94116.8233935256)
(-465540.920849652,-3533.07920881313,112262.169356822)
(-560002.599688104,-25619.1224483933,109863.279779364)
(-695749.600249442,-47747.5731272446,41144.9478233541)
(-864113.717840155,-47819.6971050767,-214038.078746724)
(-998740.043137998,-29399.3053128347,-861905.335864098)
(-867798.345319466,-12490.8340598158,-2036062.99650906)
(0,0,0)
(0,0,0)
(0,0,0)
(0,0,0)
(0,0,0)
(0,0,0)
(-345359.736323654,58526.614568666,20729.1865358568)
(-354748.072701318,54256.763774967,41332.4277071536)
(-375410.320772828,44328.7951972942,61194.6290599873)
(-411482.296733572,25330.241212893,78638.268123199)
(-470136.981231816,-8946.75722873506,90118.4495722614)
(-561854.541191727,-66143.8338164733,87618.8338898009)
(-696686.757035427,-138715.743342764,40958.3275058366)
(-859938.356281879,-137020.03385527,-195685.107039676)
(-992067.376815501,-73286.9150921474,-845101.246052903)
(-863717.866998472,-27878.3462688211,-2023772.62284481)
(0,0,0)
(0,0,0)
(0,0,0)
(0,0,0)
(0,0,0)
(0,0,0)
(-370119.365850933,89688.4257283908,16423.8941824807)
(-378379.485707249,84149.6439929039,31278.7184801729)
(-396576.08820289,70867.8840398819,42040.9239173902)
(-428448.355074181,43823.1649023555,44203.4783507206)
(-481173.703496227,-11791.0501097925,32717.1176827004)
(-569082.616029488,-129946.283647874,14808.9517161096)
(-717605.897711919,-357040.82239634,42465.410379161)
(-860056.465391087,-352884.694521405,-132100.231839087)
(-975917.078934965,-143320.60293789,-799900.817164804)
(-853762.525227753,-44772.9191389251,-1996141.65960504)
(0,0,0)
(0,0,0)
(0,0,0)
(0,0,0)
(0,0,0)
(0,0,0)
(-412605.76195121,119575.668122592,10777.4161630322)
(-419357.59520059,114021.699221193,17824.4341636743)
(-433997.13906402,100624.833514932,14763.0092217067)
(-459069.971577875,72545.0619676135,-11627.009000236)
(-500324.214413221,8449.59595203548,-85713.5031453316)
(-581860.23172586,-173211.430391574,-212616.482517101)
(-877171.970240107,-877146.081976036,46329.5050772387)
(-923224.724581795,-923150.200501191,77230.915373777)
(-938531.901086199,-210933.015856737,-701576.07854065)
(-833687.601428398,-47565.3420486275,-1951516.39100791)
(0,0,0)
(0,0,0)
(0,0,0)
(0,0,0)
(0,0,0)
(0,0,0)
(-479718.622691347,139469.981851432,5057.13036814802)
(-484674.446812836,135205.408809788,4183.63373798629)
(-494894.764502708,125481.845771513,-13608.8690610639)
(-509616.842958933,107221.634473419,-75933.9297726061)
(-519973.731725189,73921.1137896361,-267648.195248763)
(-468419.730346451,19058.634678916,-916851.568345266)
(8.84294861780876e-05,2.32415083340778e-05,-5.73200021798171e-05)