/*--------------------------------*- C++ -*----------------------------------*\
| =========                 |                                                 |
| \\      /  F ield         | foam-extend: Open Source Cstd::filesystem::create_directory();FD                    |
|  \\    /   O peration     | Version:     4.0                                |
|   \\  /    A nd           | Web:         http://www.foam-extend.org         |
|    \\/     M anipulation  |                                                 |
\*---------------------------------------------------------------------------*/
FoamFile
{
    version 2.0;
    format ascii;
    class volVectorField;
    location "Data/2345";
    object      H;
}
// * * * * * * * * * * * * * * * * * * * * * * * * * * * * * * * * * * * * * //

dimensions      [0 1 -1 0 0 0 0];

internalField   nonuniform List<vector>
4096
(
(0,0,0)
(0,0,0)
(0,0,0)
(0,0,0)
(0,0,0)
(0,0,0)
(0,0,0)
(0,0,0)
(0,0,0)
(0,0,0)
(0,0,0)
(0,0,0)
(0,0,0)
(0,0,0)
(0,0,0)
(0,0,0)
(0,0,0)
(0,0,0)
(0,0,0)
(0,0,0)
(0,0,0)
(0,0,0)
(0,0,0)
(0,0,0)
(0,0,0)
(0,0,0)
(0,0,0)
(0,0,0)
(0,0,0)
(0,0,0)
(0,0,0)
(0,0,0)
(0,0,0)
(0,0,0)
(0,0,0)
(0,0,0)
(0,0,0)
(0,0,0)
(0,0,0)
(0,0,0)
(0,0,0)
(0,0,0)
(0,0,0)
(0,0,0)
(0,0,0)
(0,0,0)
(0,0,0)
(0,0,0)
(0,0,0)
(0,0,0)
(0,0,0)
(0,0,0)
(0,0,0)
(0,0,0)
(0,0,0)
(0,0,0)
(0,0,0)
(0,0,0)
(0,0,0)
(0,0,0)
(0,0,0)
(0,0,0)
(0,0,0)
(0,0,0)
(0,0,0)
(0,0,0)
(0,0,0)
(0,0,0)
(0,0,0)
(0,0,0)
(0,0,0)
(0,0,0)
(0,0,0)
(0,0,0)
(0,0,0)
(0,0,0)
(0,0,0)
(0,0,0)
(0,0,0)
(0,0,0)
(0,0,0)
(0,0,0)
(0,0,0)
(0,0,0)
(0,0,0)
(0,0,0)
(0,0,0)
(0,0,0)
(0,0,0)
(0,0,0)
(0,0,0)
(0,0,0)
(0,0,0)
(0,0,0)
(0,0,0)
(0,0,0)
(0,0,0)
(0,0,0)
(0,0,0)
(0,0,0)
(0,0,0)
(0,0,0)
(0,0,0)
(0,0,0)
(0,0,0)
(0,0,0)
(0,0,0)
(0,0,0)
(0,0,0)
(0,0,0)
(0,0,0)
(0,0,0)
(0,0,0)
(0,0,0)
(0,0,0)
(0,0,0)
(0,0,0)
(0,0,0)
(0,0,0)
(0,0,0)
(0,0,0)
(0,0,0)
(0,0,0)
(0,0,0)
(0,0,0)
(0,0,0)
(0,0,0)
(0,0,0)
(0,0,0)
(0,0,0)
(0,0,0)
(0,0,0)
(0,0,0)
(0,0,0)
(0,0,0)
(0,0,0)
(0,0,0)
(0,0,0)
(0,0,0)
(0,0,0)
(0,0,0)
(0,0,0)
(0,0,0)
(0,0,0)
(0,0,0)
(0,0,0)
(0,0,0)
(0,0,0)
(0,0,0)
(0,0,0)
(0,0,0)
(0,0,0)
(0,0,0)
(0,0,0)
(0,0,0)
(0,0,0)
(0,0,0)
(0,0,0)
(0,0,0)
(0,0,0)
(0,0,0)
(0,0,0)
(0,0,0)
(0,0,0)
(0,0,0)
(0,0,0)
(0,0,0)
(0,0,0)
(0,0,0)
(0,0,0)
(0,0,0)
(0,0,0)
(0,0,0)
(0,0,0)
(0,0,0)
(0,0,0)
(0,0,0)
(0,0,0)
(0,0,0)
(0,0,0)
(0,0,0)
(0,0,0)
(0,0,0)
(0,0,0)
(0,0,0)
(0,0,0)
(0,0,0)
(0,0,0)
(0,0,0)
(0,0,0)
(0,0,0)
(0,0,0)
(0,0,0)
(0,0,0)
(0,0,0)
(0,0,0)
(0,0,0)
(0,0,0)
(0,0,0)
(0,0,0)
(0,0,0)
(0,0,0)
(0,0,0)
(0,0,0)
(0,0,0)
(0,0,0)
(0,0,0)
(0,0,0)
(0,0,0)
(0,0,0)
(0,0,0)
(0,0,0)
(0,0,0)
(0,0,0)
(0,0,0)
(0,0,0)
(0,0,0)
(0,0,0)
(0,0,0)
(0,0,0)
(0,0,0)
(0,0,0)
(0,0,0)
(0,0,0)
(0,0,0)
(0,0,0)
(0,0,0)
(0,0,0)
(0,0,0)
(0,0,0)
(0,0,0)
(0,0,0)
(0,0,0)
(0,0,0)
(0,0,0)
(0,0,0)
(0,0,0)
(0,0,0)
(0,0,0)
(0,0,0)
(0,0,0)
(0,0,0)
(0,0,0)
(0,0,0)
(0,0,0)
(0,0,0)
(0,0,0)
(0,0,0)
(0,0,0)
(0,0,0)
(0,0,0)
(0,0,0)
(0,0,0)
(0,0,0)
(0,0,0)
(0,0,0)
(0,0,0)
(0,0,0)
(0,0,0)
(0,0,0)
(0,0,0)
(0,0,0)
(0,0,0)
(0,0,0)
(0,0,0)
(0,0,0)
(0,0,0)
(0,0,0)
(0,0,0)
(0,0,0)
(0,0,0)
(0,0,0)
(0,0,0)
(0,0,0)
(0,0,0)
(0,0,0)
(0,0,0)
(0,0,0)
(0,0,0)
(0,0,0)
(0,0,0)
(0,0,0)
(0,0,0)
(0,0,0)
(0,0,0)
(0,0,0)
(0,0,0)
(0,0,0)
(0,0,0)
(0,0,0)
(0,0,0)
(0,0,0)
(0,0,0)
(0,0,0)
(0,0,0)
(0,0,0)
(0,0,0)
(0,0,0)
(0,0,0)
(0,0,0)
(0,0,0)
(0,0,0)
(0,0,0)
(0,0,0)
(0,0,0)
(0,0,0)
(0,0,0)
(0,0,0)
(0,0,0)
(0,0,0)
(0,0,0)
(0,0,0)
(0,0,0)
(0,0,0)
(0,0,0)
(0,0,0)
(0,0,0)
(0,0,0)
(0,0,0)
(0,0,0)
(0,0,0)
(0,0,0)
(0,0,0)
(0,0,0)
(0,0,0)
(0,0,0)
(0,0,0)
(0,0,0)
(0,0,0)
(0,0,0)
(0,0,0)
(0,0,0)
(0,0,0)
(0,0,0)
(0,0,0)
(0,0,0)
(0,0,0)
(0,0,0)
(0,0,0)
(0,0,0)
(0,0,0)
(0,0,0)
(0,0,0)
(0,0,0)
(0,0,0)
(0,0,0)
(0,0,0)
(0,0,0)
(0,0,0)
(0,0,0)
(0,0,0)
(0,0,0)
(0,0,0)
(0,0,0)
(0,0,0)
(0,0,0)
(0,0,0)
(0,0,0)
(0,0,0)
(0,0,0)
(0,0,0)
(0,0,0)
(0,0,0)
(0,0,0)
(0,0,0)
(0,0,0)
(0,0,0)
(0,0,0)
(0,0,0)
(0,0,0)
(0,0,0)
(0,0,0)
(0,0,0)
(0,0,0)
(0,0,0)
(0,0,0)
(0,0,0)
(0,0,0)
(0,0,0)
(0,0,0)
(0,0,0)
(0,0,0)
(0,0,0)
(0,0,0)
(0,0,0)
(0,0,0)
(0,0,0)
(0,0,0)
(0,0,0)
(0,0,0)
(0,0,0)
(0,0,0)
(0,0,0)
(0,0,0)
(0,0,0)
(0,0,0)
(0,0,0)
(0,0,0)
(0,0,0)
(0,0,0)
(0,0,0)
(0,0,0)
(0,0,0)
(0,0,0)
(0,0,0)
(0,0,0)
(0,0,0)
(0,0,0)
(0,0,0)
(0,0,0)
(0,0,0)
(0,0,0)
(0,0,0)
(0,0,0)
(0,0,0)
(0,0,0)
(0,0,0)
(0,0,0)
(0,0,0)
(0,0,0)
(0,0,0)
(0,0,0)
(0,0,0)
(0,0,0)
(0,0,0)
(0,0,0)
(0,0,0)
(0,0,0)
(0,0,0)
(0,0,0)
(0,0,0)
(0,0,0)
(0,0,0)
(0,0,0)
(0,0,0)
(0,0,0)
(0,0,0)
(0,0,0)
(0,0,0)
(0,0,0)
(0,0,0)
(0,0,0)
(0,0,0)
(0,0,0)
(0,0,0)
(0,0,0)
(0,0,0)
(0,0,0)
(0,0,0)
(0,0,0)
(0,0,0)
(0,0,0)
(0,0,0)
(0,0,0)
(0,0,0)
(0,0,0)
(0,0,0)
(0,0,0)
(0,0,0)
(0,0,0)
(0,0,0)
(0,0,0)
(0,0,0)
(0,0,0)
(0,0,0)
(0,0,0)
(0,0,0)
(0,0,0)
(0,0,0)
(0,0,0)
(0,0,0)
(0,0,0)
(0,0,0)
(0,0,0)
(0,0,0)
(0,0,0)
(0,0,0)
(0,0,0)
(0,0,0)
(0,0,0)
(0,0,0)
(0,0,0)
(0,0,0)
(0,0,0)
(0,0,0)
(0,0,0)
(0,0,0)
(0,0,0)
(0,0,0)
(0,0,0)
(0,0,0)
(0,0,0)
(0,0,0)
(0,0,0)
(0,0,0)
(0,0,0)
(0,0,0)
(0,0,0)
(0,0,0)
(0,0,0)
(0,0,0)
(0,0,0)
(0,0,0)
(0,0,0)
(0,0,0)
(0,0,0)
(0,0,0)
(0,0,0)
(0,0,0)
(0,0,0)
(0,0,0)
(0,0,0)
(0,0,0)
(0,0,0)
(0,0,0)
(0,0,0)
(0,0,0)
(0,0,0)
(0,0,0)
(0,0,0)
(0,0,0)
(0,0,0)
(0,0,0)
(0,0,0)
(0,0,0)
(0,0,0)
(0,0,0)
(0,0,0)
(0,0,0)
(0,0,0)
(0,0,0)
(0,0,0)
(0,0,0)
(0,0,0)
(0,0,0)
(0,0,0)
(0,0,0)
(0,0,0)
(0,0,0)
(0,0,0)
(0,0,0)
(0,0,0)
(0,0,0)
(0,0,0)
(0,0,0)
(0,0,0)
(0,0,0)
(0,0,0)
(0,0,0)
(0,0,0)
(0,0,0)
(0,0,0)
(0,0,0)
(0,0,0)
(0,0,0)
(0,0,0)
(0,0,0)
(0,0,0)
(0,0,0)
(0,0,0)
(0,0,0)
(0,0,0)
(0,0,0)
(0,0,0)
(0,0,0)
(0,0,0)
(0,0,0)
(0,0,0)
(0,0,0)
(0,0,0)
(0,0,0)
(0,0,0)
(0,0,0)
(0,0,0)
(0,0,0)
(0,0,0)
(0,0,0)
(0,0,0)
(0,0,0)
(0,0,0)
(0,0,0)
(0,0,0)
(0,0,0)
(0,0,0)
(0,0,0)
(0,0,0)
(0,0,0)
(0,0,0)
(0,0,0)
(0,0,0)
(0,0,0)
(0,0,0)
(0,0,0)
(0,0,0)
(0,0,0)
(0,0,0)
(0,0,0)
(0,0,0)
(0,0,0)
(0,0,0)
(0,0,0)
(0,0,0)
(0,0,0)
(0,0,0)
(0,0,0)
(0,0,0)
(0,0,0)
(0,0,0)
(0,0,0)
(0,0,0)
(0,0,0)
(0,0,0)
(0,0,0)
(0,0,0)
(0,0,0)
(0,0,0)
(0,0,0)
(0,0,0)
(0,0,0)
(0,0,0)
(0,0,0)
(0,0,0)
(0,0,0)
(0,0,0)
(0,0,0)
(0,0,0)
(0,0,0)
(0,0,0)
(0,0,0)
(0,0,0)
(0,0,0)
(0,0,0)
(0,0,0)
(0,0,0)
(0,0,0)
(0,0,0)
(0,0,0)
(0,0,0)
(0,0,0)
(0,0,0)
(0,0,0)
(0,0,0)
(0,0,0)
(0,0,0)
(0,0,0)
(0,0,0)
(0,0,0)
(0,0,0)
(0,0,0)
(0,0,0)
(0,0,0)
(0,0,0)
(0,0,0)
(0,0,0)
(0,0,0)
(0,0,0)
(0,0,0)
(0,0,0)
(0,0,0)
(0,0,0)
(0,0,0)
(0,0,0)
(0,0,0)
(0,0,0)
(0,0,0)
(0,0,0)
(0,0,0)
(0,0,0)
(0,0,0)
(0,0,0)
(0,0,0)
(0,0,0)
(0,0,0)
(0,0,0)
(0,0,0)
(0,0,0)
(0,0,0)
(0,0,0)
(0,0,0)
(0,0,0)
(0,0,0)
(0,0,0)
(0,0,0)
(0,0,0)
(0,0,0)
(0,0,0)
(0,0,0)
(0,0,0)
(0,0,0)
(0,0,0)
(0,0,0)
(0,0,0)
(0,0,0)
(0,0,0)
(0,0,0)
(0,0,0)
(0,0,0)
(0,0,0)
(0,0,0)
(0,0,0)
(0,0,0)
(0,0,0)
(0,0,0)
(0,0,0)
(0,0,0)
(0,0,0)
(0,0,0)
(0,0,0)
(0,0,0)
(0,0,0)
(0,0,0)
(0,0,0)
(0,0,0)
(0,0,0)
(0,0,0)
(0,0,0)
(0,0,0)
(0,0,0)
(0,0,0)
(0,0,0)
(0,0,0)
(0,0,0)
(0,0,0)
(0,0,0)
(0,0,0)
(0,0,0)
(0,0,0)
(0,0,0)
(0,0,0)
(0,0,0)
(0,0,0)
(0,0,0)
(0,0,0)
(0,0,0)
(0,0,0)
(0,0,0)
(0,0,0)
(0,0,0)
(0,0,0)
(0,0,0)
(0,0,0)
(0,0,0)
(0,0,0)
(0,0,0)
(0,0,0)
(0,0,0)
(0,0,0)
(0,0,0)
(0,0,0)
(0,0,0)
(0,0,0)
(0,0,0)
(0,0,0)
(0,0,0)
(0,0,0)
(0,0,0)
(0,0,0)
(0,0,0)
(0,0,0)
(0,0,0)
(0,0,0)
(0,0,0)
(0,0,0)
(0,0,0)
(0,0,0)
(0,0,0)
(0,0,0)
(0,0,0)
(0,0,0)
(0,0,0)
(0,0,0)
(0,0,0)
(0,0,0)
(0,0,0)
(0,0,0)
(0,0,0)
(0,0,0)
(0,0,0)
(0,0,0)
(0,0,0)
(0,0,0)
(0,0,0)
(0,0,0)
(0,0,0)
(0,0,0)
(0,0,0)
(0,0,0)
(0,0,0)
(0,0,0)
(0,0,0)
(0,0,0)
(0,0,0)
(0,0,0)
(0,0,0)
(0,0,0)
(0,0,0)
(0,0,0)
(0,0,0)
(0,0,0)
(0,0,0)
(0,0,0)
(0,0,0)
(0,0,0)
(0,0,0)
(0,0,0)
(0,0,0)
(0,0,0)
(0,0,0)
(0,0,0)
(0,0,0)
(0,0,0)
(0,0,0)
(0,0,0)
(0,0,0)
(0,0,0)
(0,0,0)
(0,0,0)
(0,0,0)
(0,0,0)
(2.3517477798826e-13,1.21549699676178e-11,-1.48439671296255e-11)
(1.33171287342565e-12,2.70029356523084e-11,-1.37821162788697e-11)
(1.18987494897739e-12,4.69773296372846e-11,-1.17451777160989e-11)
(3.28385345996374e-13,7.58225163778772e-11,-9.36472024114765e-12)
(-1.4496802043107e-13,1.18309819960896e-10,-6.70324591199517e-12)
(-4.43954672806944e-13,1.84301037575988e-10,-3.95854934885146e-12)
(-1.10111002426843e-12,2.93078853327362e-10,-1.66764535204999e-12)
(-1.78380226873749e-12,4.76013048519861e-10,-4.91012455416146e-13)
(-3.58633833801892e-12,7.81441007473543e-10,5.20434987507649e-14)
(-5.92480432760832e-12,1.20756177389626e-09,3.54363412542248e-13)
(0,0,0)
(0,0,0)
(0,0,0)
(0,0,0)
(0,0,0)
(0,0,0)
(1.12221367329737e-13,1.13853392909033e-11,-3.05101129274327e-11)
(2.60144147204735e-12,2.55652427570623e-11,-2.93427944191074e-11)
(2.7021158409676e-12,4.50704842337627e-11,-2.64875638744738e-11)
(1.35485151020325e-12,7.29644827208852e-11,-2.20136699917837e-11)
(1.66826904454941e-13,1.15210979423615e-10,-1.68130597925688e-11)
(-1.05438354461433e-13,1.8175490078185e-10,-1.14255807590033e-11)
(-1.17981023525874e-12,2.91683852696733e-10,-6.58672294075124e-12)
(-3.92491037107325e-12,4.75820574800781e-10,-3.79365132038978e-12)
(-7.03355262119503e-12,7.81949601956864e-10,-2.22547838822061e-12)
(-9.85630339322026e-12,1.20863318598795e-09,-6.90127014640786e-13)
(0,0,0)
(0,0,0)
(0,0,0)
(0,0,0)
(0,0,0)
(0,0,0)
(-2.63882359239415e-13,1.00466061728713e-11,-5.08128481502841e-11)
(1.10398241156723e-12,2.33309808802725e-11,-4.93855729519273e-11)
(1.11938523049337e-12,4.16241152841837e-11,-4.57634521163992e-11)
(-6.45995602317354e-13,6.79261086685807e-11,-3.98918658847898e-11)
(-2.6310801611922e-12,1.09334072958186e-10,-3.27031166198098e-11)
(-3.22997097420242e-12,1.76685978145684e-10,-2.47347090383307e-11)
(-4.05780133466281e-12,2.89048407669079e-10,-1.72167378871672e-11)
(-7.22888968012327e-12,4.75526975641821e-10,-1.20209849332117e-11)
(-1.02102349159221e-11,7.82146653657144e-10,-7.77590894433081e-12)
(-1.31156183670547e-11,1.20907620696436e-09,-3.44360698037002e-12)
(0,0,0)
(0,0,0)
(0,0,0)
(0,0,0)
(0,0,0)
(0,0,0)
(2.63819502091236e-13,8.18935916911546e-12,-8.00725633212345e-11)
(1.04585056331592e-12,2.00054697541889e-11,-7.87158456393715e-11)
(6.96379368999522e-13,3.63223310691205e-11,-7.46425689529346e-11)
(-1.62766220935575e-12,6.03335442095741e-11,-6.82368643333887e-11)
(-3.54701234512658e-12,1.00138309964833e-10,-6.01263880014062e-11)
(-5.1458705760776e-12,1.67886213937759e-10,-5.0246769658866e-11)
(-6.81846243667069e-12,2.83155282858886e-10,-4.01070295168719e-11)
(-9.9677129919628e-12,4.73034799609958e-10,-3.10442530788943e-11)
(-1.14569467849141e-11,7.80361745244251e-10,-2.15834625321116e-11)
(-1.34056458124444e-11,1.20703260621429e-09,-1.08181683353215e-11)
(0,0,0)
(0,0,0)
(0,0,0)
(0,0,0)
(0,0,0)
(0,0,0)
(2.25955959748293e-13,6.63829253158359e-12,-1.22967115683497e-10)
(1.01784081872188e-12,1.63939841213797e-11,-1.2107124588601e-10)
(8.14537990039247e-13,3.02083062986714e-11,-1.16959070771871e-10)
(-9.39127059804459e-13,5.12490032523462e-11,-1.11278422003554e-10)
(-3.30729684584852e-12,8.81691688719528e-11,-1.03678309063024e-10)
(-5.88484591885108e-12,1.54800532105231e-10,-9.3791162001457e-11)
(-9.02361352172898e-12,2.72147450417451e-10,-8.23301991207447e-11)
(-1.19454017209363e-11,4.65684849257671e-10,-6.63404784563171e-11)
(-1.25704792661975e-11,7.73239926076227e-10,-4.69814920827137e-11)
(-1.32540301276976e-11,1.19867455353218e-09,-2.44571833273278e-11)
(0,0,0)
(0,0,0)
(0,0,0)
(0,0,0)
(0,0,0)
(0,0,0)
(4.91250661874415e-13,4.87419208901889e-12,-1.89464332074487e-10)
(1.0195943336924e-12,1.25979867760928e-11,-1.87706044889089e-10)
(9.1128523925254e-13,2.41276979971987e-11,-1.83974419875953e-10)
(-4.9551710276443e-13,4.20830754939949e-11,-1.78592903946786e-10)
(-4.04590423398379e-12,7.54317265928381e-11,-1.71493221011797e-10)
(-6.63292432992347e-12,1.40038642112212e-10,-1.6161342224266e-10)
(-9.73138184440994e-12,2.57951203099821e-10,-1.4649500011737e-10)
(-1.17704320702724e-11,4.49944391876146e-10,-1.22427759192914e-10)
(-1.26622752891399e-11,7.54623231932269e-10,-8.89363786696869e-11)
(-1.32193437016024e-11,1.17705721174856e-09,-4.71438960004366e-11)
(0,0,0)
(0,0,0)
(0,0,0)
(0,0,0)
(0,0,0)
(0,0,0)
(8.2690587187418e-13,3.54872332185251e-12,-2.95528412340428e-10)
(9.24297582988993e-13,9.20829991731456e-12,-2.94408505361753e-10)
(5.26051797880426e-13,1.8365451631513e-11,-2.91552009800024e-10)
(-9.82709880878314e-13,3.35727776345254e-11,-2.87084091712952e-10)
(-4.06296690830452e-12,6.28415993840921e-11,-2.80734085424273e-10)
(-6.48160713936962e-12,1.22545629024032e-10,-2.69970723276838e-10)
(-8.4497499623217e-12,2.35594043457189e-10,-2.48437756419755e-10)
(-9.71272133644403e-12,4.19368834157386e-10,-2.14264533655947e-10)
(-1.09995334030701e-11,7.15209346700001e-10,-1.60254722041124e-10)
(-1.11563326500284e-11,1.1314283570688e-09,-8.69842370112544e-11)
(0,0,0)
(0,0,0)
(0,0,0)
(0,0,0)
(0,0,0)
(0,0,0)
(7.12682730609989e-13,2.45528715139507e-12,-4.75360783893278e-10)
(8.5308683516297e-13,6.49707446973232e-12,-4.74551950794406e-10)
(8.09450184393232e-13,1.38588165252381e-11,-4.72298746634205e-10)
(5.12066119619697e-14,2.6482318130419e-11,-4.68374433507841e-10)
(-1.01781160996528e-12,5.17085082382169e-11,-4.61833340941693e-10)
(-2.90191002622245e-12,1.03772565885711e-10,-4.48840273997252e-10)
(-5.34522720261389e-12,2.02383015983416e-10,-4.21473761737334e-10)
(-7.28408264533006e-12,3.66556861807234e-10,-3.70734367547165e-10)
(-8.51110444567815e-12,6.42681890726092e-10,-2.8704525216146e-10)
(-7.48187603822249e-12,1.04434134289825e-09,-1.62513784000143e-10)
(0,0,0)
(0,0,0)
(0,0,0)
(0,0,0)
(0,0,0)
(0,0,0)
(-5.36390773239608e-13,1.59947518927068e-12,-7.77548029682984e-10)
(-1.12867526157446e-12,4.27072518561122e-12,-7.76843938470089e-10)
(-4.82006445895912e-13,9.47602626135608e-12,-7.74839709902035e-10)
(6.83420092985429e-13,1.85614778253852e-11,-7.70614666171034e-10)
(2.06137864603775e-12,3.75380020111794e-11,-7.62711135431009e-10)
(1.42594569911659e-12,7.68813283504906e-11,-7.46090760806462e-10)
(-8.9648332008644e-13,1.51442408953165e-10,-7.10720718370383e-10)
(-3.33718834801541e-12,2.82733765436049e-10,-6.42004967654364e-10)
(-4.91777070324707e-12,5.18163140635521e-10,-5.1941874547474e-10)
(-4.09167365488131e-12,8.81790355405094e-10,-3.12204882799052e-10)
(0,0,0)
(0,0,0)
(0,0,0)
(0,0,0)
(0,0,0)
(0,0,0)
(-1.46258342147361e-12,8.58130856578074e-13,-1.20237371728957e-09)
(-2.44274184173014e-12,2.11684967665679e-12,-1.20163542404944e-09)
(-9.98334551689665e-13,4.69724665862573e-12,-1.1997873936321e-09)
(1.309077647034e-12,9.61832134201426e-12,-1.19539796023028e-09)
(3.70039011173879e-12,1.99215451059643e-11,-1.18613552642903e-09)
(3.39660930981967e-12,4.15468855014247e-11,-1.16641139222731e-09)
(1.2605751054484e-12,8.27086783247613e-11,-1.12442408944355e-09)
(-2.22726817795554e-13,1.59963653189646e-10,-1.04128722201681e-09)
(-2.50490564870847e-12,3.10956959527891e-10,-8.81050452381395e-10)
(-3.9723865816411e-12,5.70038728217501e-10,-5.70002414953939e-10)
(0,0,0)
(0,0,0)
(0,0,0)
(0,0,0)
(0,0,0)
(0,0,0)
(0,0,0)
(0,0,0)
(0,0,0)
(0,0,0)
(0,0,0)
(0,0,0)
(0,0,0)
(0,0,0)
(0,0,0)
(0,0,0)
(0,0,0)
(0,0,0)
(0,0,0)
(0,0,0)
(0,0,0)
(0,0,0)
(0,0,0)
(0,0,0)
(0,0,0)
(0,0,0)
(0,0,0)
(0,0,0)
(0,0,0)
(0,0,0)
(0,0,0)
(0,0,0)
(0,0,0)
(0,0,0)
(0,0,0)
(0,0,0)
(0,0,0)
(0,0,0)
(0,0,0)
(0,0,0)
(0,0,0)
(0,0,0)
(0,0,0)
(0,0,0)
(0,0,0)
(0,0,0)
(0,0,0)
(0,0,0)
(0,0,0)
(0,0,0)
(0,0,0)
(0,0,0)
(0,0,0)
(0,0,0)
(0,0,0)
(0,0,0)
(0,0,0)
(0,0,0)
(0,0,0)
(0,0,0)
(0,0,0)
(0,0,0)
(0,0,0)
(0,0,0)
(0,0,0)
(0,0,0)
(0,0,0)
(0,0,0)
(0,0,0)
(0,0,0)
(0,0,0)
(0,0,0)
(0,0,0)
(0,0,0)
(0,0,0)
(0,0,0)
(0,0,0)
(0,0,0)
(0,0,0)
(0,0,0)
(0,0,0)
(0,0,0)
(0,0,0)
(0,0,0)
(0,0,0)
(0,0,0)
(0,0,0)
(0,0,0)
(0,0,0)
(0,0,0)
(0,0,0)
(0,0,0)
(0,0,0)
(0,0,0)
(0,0,0)
(0,0,0)
(0,0,0)
(0,0,0)
(0,0,0)
(0,0,0)
(0,0,0)
(0,0,0)
(-5.70453960571158e-14,2.19984147879546e-11,-2.82194667087371e-11)
(7.32467205897633e-13,5.03972627795433e-11,-2.64464273534414e-11)
(7.1626287752715e-13,8.7435313534265e-11,-2.27172023553171e-11)
(5.24944673835736e-13,1.39154499519921e-10,-1.8275840468793e-11)
(2.09175953651743e-13,2.14674366228859e-10,-1.25204022690709e-11)
(-1.88721875446191e-13,3.299481733365e-10,-6.5676631809871e-12)
(-8.82742290204066e-13,5.15259798424638e-10,-1.438691527417e-12)
(-2.13438450395622e-12,8.32993886814659e-10,1.12708788308646e-12)
(-4.39725273549007e-12,1.4442611112609e-09,1.41579186437701e-12)
(-6.64185300728137e-12,2.84694597971302e-09,8.21657619515594e-13)
(0,0,0)
(0,0,0)
(0,0,0)
(0,0,0)
(0,0,0)
(0,0,0)
(2.83635977037555e-13,2.06615385579396e-11,-5.83567381069056e-11)
(1.98047280420729e-12,4.73497311138596e-11,-5.60469550973142e-11)
(1.67459090786323e-12,8.31897487114459e-11,-5.01136837217439e-11)
(1.19261536328547e-12,1.33324856281544e-10,-4.14184357446299e-11)
(6.56254336318722e-13,2.08505868224434e-10,-3.00420595992924e-11)
(1.24626463438217e-13,3.24796141737768e-10,-1.76178918295553e-11)
(-1.33743682807802e-12,5.13203087862016e-10,-6.66749864357438e-12)
(-5.19948414403752e-12,8.33660507595022e-10,-1.65107980095865e-12)
(-8.76595569469047e-12,1.44564705654613e-09,-5.63076075666622e-13)
(-1.09894513840441e-11,2.84832222068537e-09,-1.53387905535415e-13)
(0,0,0)
(0,0,0)
(0,0,0)
(0,0,0)
(0,0,0)
(0,0,0)
(1.66089446160345e-13,1.88185464706067e-11,-9.6874465721418e-11)
(8.07372702128291e-13,4.27962955017854e-11,-9.34691454883369e-11)
(5.49583213961706e-13,7.5717561698266e-11,-8.5959034441729e-11)
(-2.42180408282804e-13,1.22793301264327e-10,-7.42140414617665e-11)
(-1.40372474937187e-12,1.96301140819317e-10,-5.83465709365309e-11)
(-1.94817791744284e-12,3.14246537216289e-10,-3.92118766515287e-11)
(-3.36042947841089e-12,5.09238907850114e-10,-2.0772162475534e-11)
(-8.98178963733183e-12,8.35288459651312e-10,-1.2307631014943e-11)
(-1.27576284672331e-11,1.44800958178782e-09,-8.44272970853145e-12)
(-1.45156245974984e-11,2.85021921702517e-09,-4.43511884628813e-12)
(0,0,0)
(0,0,0)
(0,0,0)
(0,0,0)
(0,0,0)
(0,0,0)
(4.58168457759373e-13,1.57848712888381e-11,-1.48831031115653e-10)
(5.84059509685203e-13,3.64538044969434e-11,-1.45228810955067e-10)
(4.04699519894148e-13,6.49519018669176e-11,-1.3710407285652e-10)
(-6.53597584106262e-13,1.07073473843724e-10,-1.24208523411484e-10)
(-1.45748959479839e-12,1.76269594983623e-10,-1.06367016521811e-10)
(-2.19992888551814e-12,2.94088961394246e-10,-8.30614024309879e-11)
(-4.87340643323284e-12,4.98817122281492e-10,-5.85241868427569e-11)
(-1.20785531863439e-11,8.34900338761835e-10,-4.40358874936261e-11)
(-1.51004218131993e-11,1.44871137359645e-09,-3.19009081037195e-11)
(-1.58657614648061e-11,2.84957474576119e-09,-1.70087379621333e-11)
(0,0,0)
(0,0,0)
(0,0,0)
(0,0,0)
(0,0,0)
(0,0,0)
(9.41866048259652e-14,1.25896436247705e-11,-2.23353093497761e-10)
(7.01663049866714e-13,2.9195142840616e-11,-2.19882141423934e-10)
(1.21449752319541e-12,5.22441526227323e-11,-2.12430792785424e-10)
(6.26687758009375e-13,8.74944758682357e-11,-2.00562068534637e-10)
(-4.57001628292943e-13,1.4904634789075e-10,-1.84518669959002e-10)
(-2.58391880654494e-12,2.62035370354213e-10,-1.6498875738401e-10)
(-1.08170868685313e-11,4.73827295281443e-10,-1.47341259213395e-10)
(-1.55639307128255e-11,8.2685596700002e-10,-1.14997964015629e-10)
(-1.64780938776921e-11,1.44029155782521e-09,-8.08057813646541e-11)
(-1.60938716718614e-11,2.83766933408784e-09,-4.22623639734119e-11)
(0,0,0)
(0,0,0)
(0,0,0)
(0,0,0)
(0,0,0)
(0,0,0)
(5.84322436431742e-14,9.21513237308508e-12,-3.35900973708601e-10)
(6.77656179333806e-13,2.21019310428795e-11,-3.33402753471814e-10)
(1.29201567576731e-12,3.99956285268938e-11,-3.27468610139721e-10)
(9.1509782172773e-13,6.81872423631202e-11,-3.17712455525381e-10)
(-1.3355757943621e-12,1.21522875580379e-10,-3.04744486143655e-10)
(-4.25833336707023e-12,2.30635064519616e-10,-2.87683234786827e-10)
(-1.14414631261694e-11,4.52098116931675e-10,-2.64935676309904e-10)
(-1.46862548747249e-11,8.03070938765707e-10,-2.20680725743384e-10)
(-1.50408727261902e-11,1.40964294229716e-09,-1.591108948791e-10)
(-1.47343850220544e-11,2.80104972061069e-09,-8.39774755616094e-11)
(0,0,0)
(0,0,0)
(0,0,0)
(0,0,0)
(0,0,0)
(0,0,0)
(8.00435063655357e-13,6.47270831199495e-12,-5.1524722855911e-10)
(7.79027468844107e-13,1.5950201580135e-11,-5.13805728649989e-10)
(5.64768817084035e-13,2.9516633034427e-11,-5.10104649618044e-10)
(-2.42256665458726e-13,5.15683103816098e-11,-5.03653885680161e-10)
(-3.69323790984243e-12,9.58009285047363e-11,-4.94779482176718e-10)
(-9.24151085810757e-12,1.94433605405196e-10,-4.79964026884154e-10)
(-9.41194525231374e-12,4.13892390076289e-10,-4.40461625009225e-10)
(-1.0910560601248e-11,7.50070481155306e-10,-3.85765539438736e-10)
(-1.17425624593396e-11,1.34070532742585e-09,-2.85797698512905e-10)
(-1.10535554902036e-11,2.72141458669039e-09,-1.54248828081804e-10)
(0,0,0)
(0,0,0)
(0,0,0)
(0,0,0)
(0,0,0)
(0,0,0)
(7.59661593862266e-13,4.50368432034404e-12,-8.27204367809888e-10)
(8.26231959083735e-13,1.13338485537815e-11,-8.26012731445887e-10)
(1.26792732191458e-12,2.18106751539361e-11,-8.23538464229048e-10)
(1.43095435084958e-12,4.02390279384653e-11,-8.18666686466515e-10)
(1.59627672605294e-13,8.06832844026473e-11,-8.10317261968458e-10)
(-3.37718475089285e-12,1.71761273486722e-10,-7.93042436358821e-10)
(-5.14401436249727e-12,3.58382293409787e-10,-7.49956937055223e-10)
(-7.15010166003278e-12,6.51368015686171e-10,-6.59007462954777e-10)
(-8.52382251627447e-12,1.21088283953855e-09,-5.08311026245738e-10)
(-7.4446725458055e-12,2.56859221976435e-09,-2.89366835008354e-10)
(0,0,0)
(0,0,0)
(0,0,0)
(0,0,0)
(0,0,0)
(0,0,0)
(-4.99137653441817e-13,3.14408405203058e-12,-1.43316005430972e-09)
(-9.79028320673729e-13,8.10764176945034e-12,-1.43228983084866e-09)
(7.17294258356449e-14,1.56680127298456e-11,-1.42988304125974e-09)
(1.7230458363343e-12,2.95854070091148e-11,-1.42406890611135e-09)
(3.05746092671972e-12,6.14634321856785e-11,-1.41230887729741e-09)
(1.39034611208528e-12,1.31132155904003e-10,-1.38645923118132e-09)
(-8.78503407701636e-13,2.66218699667931e-10,-1.32800346255334e-09)
(-3.15329828123912e-12,4.99838097952995e-10,-1.20741981400533e-09)
(-4.92545227132011e-12,9.91439390942782e-10,-9.92610739572603e-10)
(-4.54492926627572e-12,2.2791542317519e-09,-6.20922905795894e-10)
(0,0,0)
(0,0,0)
(0,0,0)
(0,0,0)
(0,0,0)
(0,0,0)
(-1.34274580502359e-12,1.7031429931905e-12,-2.83221281828695e-09)
(-2.17392258241495e-12,4.30386631784734e-12,-2.83148934079919e-09)
(-6.90521294885071e-13,8.25402921284429e-12,-2.82880099800877e-09)
(1.66496518779927e-12,1.59641164369202e-11,-2.82203669972864e-09)
(3.89780101597751e-12,3.34699237438357e-11,-2.80742278829666e-09)
(2.95619202747317e-12,7.1490854776782e-11,-2.77523721294854e-09)
(8.32386003459295e-13,1.44570820610981e-10,-2.70461756454872e-09)
(-4.95843263523202e-13,2.84059352662066e-10,-2.56026250930882e-09)
(-2.59598354827089e-12,6.18961857607661e-10,-2.27638476929233e-09)
(-3.9360733179899e-12,1.65814142418422e-09,-1.65781627592323e-09)
(0,0,0)
(0,0,0)
(0,0,0)
(0,0,0)
(0,0,0)
(0,0,0)
(0,0,0)
(0,0,0)
(0,0,0)
(0,0,0)
(0,0,0)
(0,0,0)
(0,0,0)
(0,0,0)
(0,0,0)
(0,0,0)
(0,0,0)
(0,0,0)
(0,0,0)
(0,0,0)
(0,0,0)
(0,0,0)
(0,0,0)
(0,0,0)
(0,0,0)
(0,0,0)
(0,0,0)
(0,0,0)
(0,0,0)
(0,0,0)
(0,0,0)
(0,0,0)
(0,0,0)
(0,0,0)
(0,0,0)
(0,0,0)
(0,0,0)
(0,0,0)
(0,0,0)
(0,0,0)
(0,0,0)
(0,0,0)
(0,0,0)
(0,0,0)
(0,0,0)
(0,0,0)
(0,0,0)
(0,0,0)
(0,0,0)
(0,0,0)
(0,0,0)
(0,0,0)
(0,0,0)
(0,0,0)
(0,0,0)
(0,0,0)
(0,0,0)
(0,0,0)
(0,0,0)
(0,0,0)
(0,0,0)
(0,0,0)
(0,0,0)
(0,0,0)
(0,0,0)
(0,0,0)
(0,0,0)
(0,0,0)
(0,0,0)
(0,0,0)
(0,0,0)
(0,0,0)
(0,0,0)
(0,0,0)
(0,0,0)
(0,0,0)
(0,0,0)
(0,0,0)
(0,0,0)
(0,0,0)
(0,0,0)
(0,0,0)
(0,0,0)
(0,0,0)
(0,0,0)
(0,0,0)
(0,0,0)
(0,0,0)
(0,0,0)
(0,0,0)
(0,0,0)
(0,0,0)
(0,0,0)
(0,0,0)
(0,0,0)
(0,0,0)
(0,0,0)
(0,0,0)
(0,0,0)
(0,0,0)
(0,0,0)
(0,0,0)
(-4.93208521359045e-13,3.18328876595142e-11,-3.80874202308304e-11)
(5.07738731337392e-14,6.97955381308039e-11,-3.56777772172963e-11)
(5.20465814511092e-13,1.17552388247043e-10,-3.07725417620773e-11)
(5.991497128195e-13,1.83426861817115e-10,-2.44925009786052e-11)
(4.24934869663703e-13,2.76407205737419e-10,-1.55478361793131e-11)
(-1.65661930319272e-13,4.11150846665992e-10,-5.19056012296862e-12)
(-1.3918111384019e-12,6.095392071622e-10,3.77673809217163e-12)
(-3.08970926562098e-12,9.00376929571243e-10,6.58691153984764e-12)
(-5.18906377583094e-12,1.31807445928998e-09,4.91401413313881e-12)
(-7.19643636035323e-12,1.82815305383211e-09,2.30298503885257e-12)
(0,0,0)
(0,0,0)
(0,0,0)
(0,0,0)
(0,0,0)
(0,0,0)
(-1.83154945652323e-13,2.99191222409337e-11,-7.89552638233148e-11)
(6.00637040155752e-13,6.54294434065189e-11,-7.49507789691769e-11)
(4.51529942987289e-13,1.11364949274715e-10,-6.62354062560012e-11)
(3.47794235840331e-13,1.74913351867147e-10,-5.38809692199338e-11)
(4.36813971850381e-13,2.67085817987368e-10,-3.62511536592271e-11)
(-2.76162200992176e-13,4.03659084904157e-10,-1.39253590322582e-11)
(-2.38967566000196e-12,6.08354486310693e-10,6.82226992930032e-12)
(-7.91543992417961e-12,9.03832968962523e-10,1.15490740139521e-11)
(-1.15381691067154e-11,1.32219492711913e-09,7.66520270275988e-12)
(-1.30398356291177e-11,1.83152633273829e-09,3.36447048663026e-12)
(0,0,0)
(0,0,0)
(0,0,0)
(0,0,0)
(0,0,0)
(0,0,0)
(-2.05555607120165e-13,2.67509171535712e-11,-1.29729759575062e-10)
(-3.60247338410132e-13,5.792789164874e-11,-1.24278958478206e-10)
(-4.2974993413165e-13,9.95805601388483e-11,-1.13373492937659e-10)
(-3.89823513632062e-13,1.58113808204221e-10,-9.60301228948473e-11)
(-5.06873198556988e-13,2.46559200388907e-10,-6.98214949243989e-11)
(-2.30316271419983e-13,3.85645419378927e-10,-3.29682757698499e-11)
(-1.40317536956692e-12,6.06732132522314e-10,7.24910169821037e-12)
(-1.24585700553174e-11,9.12902835120613e-10,1.16639873669688e-11)
(-1.74670311369368e-11,1.3308841361807e-09,4.58448058072943e-12)
(-1.83062721805932e-11,1.83787487245488e-09,4.49193065921258e-13)
(0,0,0)
(0,0,0)
(0,0,0)
(0,0,0)
(0,0,0)
(0,0,0)
(5.11759605012197e-14,2.19740000569617e-11,-1.96026650632306e-10)
(-2.82016931283878e-13,4.79693076923014e-11,-1.90338698392489e-10)
(2.16899318363523e-13,8.26608851982597e-11,-1.78771668793345e-10)
(1.08389350098033e-12,1.32102194304034e-10,-1.59295427015522e-10)
(2.4601434077871e-12,2.10551931617272e-10,-1.28501850014842e-10)
(5.31644656588637e-12,3.46615499742e-10,-8.06503507411755e-11)
(5.62812121790511e-12,5.99314380701129e-10,-1.68382330165513e-11)
(-1.61691608139961e-11,9.29145555065656e-10,-1.59862968891258e-11)
(-2.1572776183164e-11,1.34324867219918e-09,-2.00818653657652e-11)
(-2.09690877543795e-11,1.84386641396422e-09,-1.369761066896e-11)
(0,0,0)
(0,0,0)
(0,0,0)
(0,0,0)
(0,0,0)
(0,0,0)
(-2.25421766187231e-15,1.6778519123333e-11,-2.86037545589875e-10)
(3.43526209932515e-13,3.68388455157786e-11,-2.81261629757932e-10)
(1.5942973671836e-12,6.30221248548079e-11,-2.71081076458539e-10)
(3.89052268770107e-12,9.98281237699268e-11,-2.53446143915447e-10)
(7.53655810800161e-12,1.59440271549441e-10,-2.27008402331593e-10)
(1.11688888564138e-11,2.70989839567174e-10,-1.94702151869734e-10)
(-2.14312037173493e-11,5.32826255415372e-10,-1.99417033582745e-10)
(-2.59710851295392e-11,9.45908516625236e-10,-1.31600744794992e-10)
(-2.43728957391519e-11,1.3487579455988e-09,-9.03333882844668e-11)
(-2.17366221686344e-11,1.83759359761284e-09,-4.7530526658819e-11)
(0,0,0)
(0,0,0)
(0,0,0)
(0,0,0)
(0,0,0)
(0,0,0)
(3.02636068282055e-13,1.21742582836468e-11,-4.15014673870637e-10)
(8.95242309684012e-13,2.66704850625782e-11,-4.11635801795409e-10)
(2.01485655370233e-12,4.43898125589659e-11,-4.03965830527215e-10)
(4.56606042284314e-12,6.86788587092976e-11,-3.91392915085636e-10)
(7.32511992342058e-12,1.11237062711403e-10,-3.73693286027532e-10)
(9.19556727038157e-12,2.13422174087728e-10,-3.51044548461399e-10)
(-1.74906868367253e-11,5.3372944595995e-10,-3.48081096037611e-10)
(-2.32556281292586e-11,9.32363337583814e-10,-2.78473536017329e-10)
(-2.12366771717703e-11,1.31908539601267e-09,-1.94994158273352e-10)
(-1.90767266642688e-11,1.79744827262755e-09,-1.00896946246723e-10)
(0,0,0)
(0,0,0)
(0,0,0)
(0,0,0)
(0,0,0)
(0,0,0)
(1.32795914687714e-12,8.36150696057316e-12,-6.04428255344134e-10)
(1.6943014625471e-12,1.82086428189191e-11,-6.0266982187874e-10)
(1.81996275987866e-12,2.94830597324196e-11,-5.98369707201433e-10)
(2.21262227420586e-12,4.33954787121735e-11,-5.93076196558058e-10)
(-3.39104910000993e-12,6.59896044431256e-11,-5.91053511027037e-10)
(-2.60715808147409e-11,1.3138346689974e-10,-5.95180076511201e-10)
(-8.59793415611228e-12,4.93080618761938e-10,-5.16324187902301e-10)
(-1.21759360585688e-11,8.72995888687525e-10,-4.9671120489643e-10)
(-1.3468945002591e-11,1.23594053863296e-09,-3.47035325385922e-10)
(-1.24800166456499e-11,1.70231732998812e-09,-1.79195916683283e-10)
(0,0,0)
(0,0,0)
(0,0,0)
(0,0,0)
(0,0,0)
(0,0,0)
(9.27625498417191e-13,6.00125709052848e-12,-8.86630579705962e-10)
(1.57817152676273e-12,1.25783984621353e-11,-8.85309626575773e-10)
(2.53881198263739e-12,2.09640997306414e-11,-8.82969293570452e-10)
(3.73515078330155e-12,3.43186465114191e-11,-8.80686549007291e-10)
(2.10465427921438e-12,6.65402946645447e-11,-8.8081902214699e-10)
(-5.83356647157031e-12,1.64235898593125e-10,-8.83031739882975e-10)
(-3.92989472093725e-12,4.46221415100094e-10,-8.59304106239422e-10)
(-6.316620636994e-12,7.22660939384129e-10,-7.33364099418491e-10)
(-8.02456515757621e-12,1.07009651493304e-09,-5.36170203787313e-10)
(-7.37351954109559e-12,1.52480219770543e-09,-2.89716426043032e-10)
(0,0,0)
(0,0,0)
(0,0,0)
(0,0,0)
(0,0,0)
(0,0,0)
(7.15799441780544e-14,4.13954901456196e-12,-1.29712617021827e-09)
(4.17957541971872e-13,8.95814266018786e-12,-1.29599919062063e-09)
(1.67157779512481e-12,1.58607977968633e-11,-1.29377112025807e-09)
(3.58430759453244e-12,2.86140966020454e-11,-1.28973664852161e-09)
(5.20132325287454e-12,6.05468141471709e-11,-1.28244774623918e-09)
(2.57587861103141e-12,1.42235161979771e-10,-1.26392576120837e-09)
(1.85727101121605e-13,3.13524847124202e-10,-1.20830310253684e-09)
(-2.18362742410578e-12,5.22941170927385e-10,-1.06261144442811e-09)
(-4.13575271211648e-12,8.22464360621445e-10,-8.23417075570595e-10)
(-4.45502749465656e-12,1.23417991261912e-09,-4.73131839081133e-10)
(0,0,0)
(0,0,0)
(0,0,0)
(0,0,0)
(0,0,0)
(0,0,0)
(-3.63080300182662e-13,2.17776740254178e-12,-1.80304288129141e-09)
(-5.58399055298577e-13,4.97813796318405e-12,-1.80199829454503e-09)
(7.99209638307825e-13,9.09973222625635e-12,-1.79893409267836e-09)
(3.01517019246124e-12,1.70879629855912e-11,-1.79265488982135e-09)
(5.18214941188474e-12,3.60494919313969e-11,-1.77929210053054e-09)
(3.82739840393199e-12,8.07249829057166e-11,-1.74764670045588e-09)