/*--------------------------------*- C++ -*----------------------------------*\
| =========                 |                                                 |
| \\      /  F ield         | foam-extend: Open Source CFD                    |
|  \\    /   O peration     | Version:     4.0                                |
|   \\  /    A nd           | Web:         http://www.foam-extend.org         |
|    \\/     M anipulation  |                                                 |
\*---------------------------------------------------------------------------*/
FoamFile
{
    version 2.0;
    format ascii;
    class volVectorField;
    location "1791";
    object      E;
}
// * * * * * * * * * * * * * * * * * * * * * * * * * * * * * * * * * * * * * //

dimensions      [0 1 -1 0 0 0 0];

internalField   nonuniform List<vector>
4096
(
(0,0,0)
(0,0,0)
(0,0,0)
(0,0,0)
(0,0,0)
(0,0,0)
(0,0,0)
(0,0,0)
(0,0,0)
(0,0,0)
(0,0,0)
(0,0,0)
(0,0,0)
(0,0,0)
(0,0,0)
(0,0,0)
(0,0,0)
(0,0,0)
(0,0,0)
(0,0,0)
(0,0,0)
(0,0,0)
(0,0,0)
(0,0,0)
(0,0,0)
(0,0,0)
(0,0,0)
(0,0,0)
(0,0,0)
(0,0,0)
(0,0,0)
(0,0,0)
(0,0,0)
(0,0,0)
(0,0,0)
(0,0,0)
(0,0,0)
(0,0,0)
(0,0,0)
(0,0,0)
(0,0,0)
(0,0,0)
(0,0,0)
(0,0,0)
(0,0,0)
(0,0,0)
(0,0,0)
(0,0,0)
(0,0,0)
(0,0,0)
(0,0,0)
(0,0,0)
(0,0,0)
(0,0,0)
(0,0,0)
(0,0,0)
(0,0,0)
(0,0,0)
(0,0,0)
(0,0,0)
(0,0,0)
(0,0,0)
(0,0,0)
(0,0,0)
(0,0,0)
(0,0,0)
(0,0,0)
(0,0,0)
(0,0,0)
(0,0,0)
(0,0,0)
(0,0,0)
(0,0,0)
(0,0,0)
(0,0,0)
(0,0,0)
(0,0,0)
(0,0,0)
(0,0,0)
(0,0,0)
(0,0,0)
(0,0,0)
(0,0,0)
(0,0,0)
(0,0,0)
(0,0,0)
(0,0,0)
(0,0,0)
(0,0,0)
(0,0,0)
(0,0,0)
(0,0,0)
(0,0,0)
(0,0,0)
(0,0,0)
(0,0,0)
(0,0,0)
(0,0,0)
(0,0,0)
(0,0,0)
(0,0,0)
(0,0,0)
(0,0,0)
(0,0,0)
(0,0,0)
(0,0,0)
(0,0,0)
(0,0,0)
(0,0,0)
(0,0,0)
(0,0,0)
(0,0,0)
(0,0,0)
(0,0,0)
(0,0,0)
(0,0,0)
(0,0,0)
(0,0,0)
(0,0,0)
(0,0,0)
(0,0,0)
(0,0,0)
(0,0,0)
(0,0,0)
(0,0,0)
(0,0,0)
(0,0,0)
(0,0,0)
(0,0,0)
(0,0,0)
(0,0,0)
(0,0,0)
(0,0,0)
(0,0,0)
(0,0,0)
(0,0,0)
(0,0,0)
(0,0,0)
(0,0,0)
(0,0,0)
(0,0,0)
(0,0,0)
(0,0,0)
(0,0,0)
(0,0,0)
(0,0,0)
(0,0,0)
(0,0,0)
(0,0,0)
(0,0,0)
(0,0,0)
(0,0,0)
(0,0,0)
(0,0,0)
(0,0,0)
(0,0,0)
(0,0,0)
(0,0,0)
(0,0,0)
(0,0,0)
(0,0,0)
(0,0,0)
(0,0,0)
(0,0,0)
(0,0,0)
(0,0,0)
(0,0,0)
(0,0,0)
(0,0,0)
(0,0,0)
(0,0,0)
(0,0,0)
(0,0,0)
(0,0,0)
(0,0,0)
(0,0,0)
(0,0,0)
(0,0,0)
(0,0,0)
(0,0,0)
(0,0,0)
(0,0,0)
(0,0,0)
(0,0,0)
(0,0,0)
(0,0,0)
(0,0,0)
(0,0,0)
(0,0,0)
(0,0,0)
(0,0,0)
(0,0,0)
(0,0,0)
(0,0,0)
(0,0,0)
(0,0,0)
(0,0,0)
(0,0,0)
(0,0,0)
(0,0,0)
(0,0,0)
(0,0,0)
(0,0,0)
(0,0,0)
(0,0,0)
(0,0,0)
(0,0,0)
(0,0,0)
(0,0,0)
(0,0,0)
(0,0,0)
(0,0,0)
(0,0,0)
(0,0,0)
(0,0,0)
(0,0,0)
(0,0,0)
(0,0,0)
(0,0,0)
(0,0,0)
(0,0,0)
(0,0,0)
(0,0,0)
(0,0,0)
(0,0,0)
(0,0,0)
(0,0,0)
(0,0,0)
(0,0,0)
(0,0,0)
(0,0,0)
(0,0,0)
(0,0,0)
(0,0,0)
(0,0,0)
(0,0,0)
(0,0,0)
(0,0,0)
(0,0,0)
(0,0,0)
(0,0,0)
(0,0,0)
(0,0,0)
(0,0,0)
(0,0,0)
(0,0,0)
(0,0,0)
(0,0,0)
(0,0,0)
(0,0,0)
(0,0,0)
(0,0,0)
(0,0,0)
(0,0,0)
(0,0,0)
(0,0,0)
(0,0,0)
(0,0,0)
(0,0,0)
(0,0,0)
(0,0,0)
(0,0,0)
(0,0,0)
(0,0,0)
(0,0,0)
(0,0,0)
(0,0,0)
(0,0,0)
(0,0,0)
(0,0,0)
(0,0,0)
(0,0,0)
(0,0,0)
(0,0,0)
(0,0,0)
(0,0,0)
(0,0,0)
(0,0,0)
(0,0,0)
(0,0,0)
(0,0,0)
(0,0,0)
(0,0,0)
(0,0,0)
(0,0,0)
(0,0,0)
(0,0,0)
(0,0,0)
(0,0,0)
(0,0,0)
(0,0,0)
(0,0,0)
(0,0,0)
(0,0,0)
(0,0,0)
(0,0,0)
(0,0,0)
(0,0,0)
(0,0,0)
(0,0,0)
(0,0,0)
(0,0,0)
(0,0,0)
(0,0,0)
(0,0,0)
(0,0,0)
(0,0,0)
(0,0,0)
(0,0,0)
(0,0,0)
(0,0,0)
(0,0,0)
(0,0,0)
(0,0,0)
(0,0,0)
(0,0,0)
(0,0,0)
(0,0,0)
(0,0,0)
(0,0,0)
(0,0,0)
(0,0,0)
(0,0,0)
(0,0,0)
(0,0,0)
(0,0,0)
(0,0,0)
(0,0,0)
(0,0,0)
(0,0,0)
(0,0,0)
(0,0,0)
(0,0,0)
(0,0,0)
(0,0,0)
(0,0,0)
(0,0,0)
(0,0,0)
(0,0,0)
(0,0,0)
(0,0,0)
(0,0,0)
(0,0,0)
(0,0,0)
(0,0,0)
(0,0,0)
(0,0,0)
(0,0,0)
(0,0,0)
(0,0,0)
(0,0,0)
(0,0,0)
(0,0,0)
(0,0,0)
(0,0,0)
(0,0,0)
(0,0,0)
(0,0,0)
(0,0,0)
(0,0,0)
(0,0,0)
(0,0,0)
(0,0,0)
(0,0,0)
(0,0,0)
(0,0,0)
(0,0,0)
(0,0,0)
(0,0,0)
(0,0,0)
(0,0,0)
(0,0,0)
(0,0,0)
(0,0,0)
(0,0,0)
(0,0,0)
(0,0,0)
(0,0,0)
(0,0,0)
(0,0,0)
(0,0,0)
(0,0,0)
(0,0,0)
(0,0,0)
(0,0,0)
(0,0,0)
(0,0,0)
(0,0,0)
(0,0,0)
(0,0,0)
(0,0,0)
(0,0,0)
(0,0,0)
(0,0,0)
(0,0,0)
(0,0,0)
(0,0,0)
(0,0,0)
(0,0,0)
(0,0,0)
(0,0,0)
(0,0,0)
(0,0,0)
(0,0,0)
(0,0,0)
(0,0,0)
(0,0,0)
(0,0,0)
(0,0,0)
(0,0,0)
(0,0,0)
(0,0,0)
(0,0,0)
(0,0,0)
(0,0,0)
(0,0,0)
(0,0,0)
(0,0,0)
(0,0,0)
(0,0,0)
(0,0,0)
(0,0,0)
(0,0,0)
(0,0,0)
(0,0,0)
(0,0,0)
(0,0,0)
(0,0,0)
(0,0,0)
(0,0,0)
(0,0,0)
(0,0,0)
(0,0,0)
(0,0,0)
(0,0,0)
(0,0,0)
(0,0,0)
(0,0,0)
(0,0,0)
(0,0,0)
(0,0,0)
(0,0,0)
(0,0,0)
(0,0,0)
(0,0,0)
(0,0,0)
(0,0,0)
(0,0,0)
(0,0,0)
(0,0,0)
(0,0,0)
(0,0,0)
(0,0,0)
(0,0,0)
(0,0,0)
(0,0,0)
(0,0,0)
(0,0,0)
(0,0,0)
(0,0,0)
(0,0,0)
(0,0,0)
(0,0,0)
(0,0,0)
(0,0,0)
(0,0,0)
(0,0,0)
(0,0,0)
(0,0,0)
(0,0,0)
(0,0,0)
(0,0,0)
(0,0,0)
(0,0,0)
(0,0,0)
(0,0,0)
(0,0,0)
(0,0,0)
(0,0,0)
(0,0,0)
(0,0,0)
(0,0,0)
(0,0,0)
(0,0,0)
(0,0,0)
(0,0,0)
(0,0,0)
(0,0,0)
(0,0,0)
(0,0,0)
(0,0,0)
(0,0,0)
(0,0,0)
(0,0,0)
(0,0,0)
(0,0,0)
(0,0,0)
(0,0,0)
(0,0,0)
(0,0,0)
(0,0,0)
(0,0,0)
(0,0,0)
(0,0,0)
(0,0,0)
(0,0,0)
(0,0,0)
(0,0,0)
(0,0,0)
(0,0,0)
(0,0,0)
(0,0,0)
(0,0,0)
(0,0,0)
(0,0,0)
(0,0,0)
(0,0,0)
(0,0,0)
(0,0,0)
(0,0,0)
(0,0,0)
(0,0,0)
(0,0,0)
(0,0,0)
(0,0,0)
(0,0,0)
(0,0,0)
(0,0,0)
(0,0,0)
(0,0,0)
(0,0,0)
(0,0,0)
(0,0,0)
(0,0,0)
(0,0,0)
(0,0,0)
(0,0,0)
(0,0,0)
(0,0,0)
(0,0,0)
(0,0,0)
(0,0,0)
(0,0,0)
(0,0,0)
(0,0,0)
(0,0,0)
(0,0,0)
(0,0,0)
(0,0,0)
(0,0,0)
(0,0,0)
(0,0,0)
(0,0,0)
(0,0,0)
(0,0,0)
(0,0,0)
(0,0,0)
(0,0,0)
(0,0,0)
(0,0,0)
(0,0,0)
(0,0,0)
(0,0,0)
(0,0,0)
(0,0,0)
(0,0,0)
(0,0,0)
(0,0,0)
(0,0,0)
(0,0,0)
(0,0,0)
(0,0,0)
(0,0,0)
(0,0,0)
(0,0,0)
(0,0,0)
(0,0,0)
(0,0,0)
(0,0,0)
(0,0,0)
(0,0,0)
(0,0,0)
(0,0,0)
(0,0,0)
(0,0,0)
(0,0,0)
(0,0,0)
(0,0,0)
(0,0,0)
(0,0,0)
(0,0,0)
(0,0,0)
(0,0,0)
(0,0,0)
(0,0,0)
(0,0,0)
(0,0,0)
(0,0,0)
(0,0,0)
(0,0,0)
(0,0,0)
(0,0,0)
(0,0,0)
(0,0,0)
(0,0,0)
(0,0,0)
(0,0,0)
(0,0,0)
(0,0,0)
(0,0,0)
(0,0,0)
(0,0,0)
(0,0,0)
(0,0,0)
(0,0,0)
(0,0,0)
(0,0,0)
(0,0,0)
(0,0,0)
(0,0,0)
(0,0,0)
(0,0,0)
(0,0,0)
(0,0,0)
(0,0,0)
(0,0,0)
(0,0,0)
(0,0,0)
(0,0,0)
(0,0,0)
(0,0,0)
(0,0,0)
(0,0,0)
(0,0,0)
(0,0,0)
(0,0,0)
(0,0,0)
(0,0,0)
(0,0,0)
(0,0,0)
(0,0,0)
(0,0,0)
(0,0,0)
(0,0,0)
(0,0,0)
(0,0,0)
(0,0,0)
(0,0,0)
(0,0,0)
(0,0,0)
(0,0,0)
(0,0,0)
(0,0,0)
(0,0,0)
(0,0,0)
(0,0,0)
(0,0,0)
(0,0,0)
(0,0,0)
(0,0,0)
(0,0,0)
(0,0,0)
(0,0,0)
(0,0,0)
(0,0,0)
(0,0,0)
(0,0,0)
(0,0,0)
(0,0,0)
(0,0,0)
(0,0,0)
(0,0,0)
(0,0,0)
(0,0,0)
(0,0,0)
(0,0,0)
(0,0,0)
(0,0,0)
(0,0,0)
(0,0,0)
(0,0,0)
(0,0,0)
(0,0,0)
(0,0,0)
(0,0,0)
(0,0,0)
(0,0,0)
(0,0,0)
(0,0,0)
(0,0,0)
(0,0,0)
(0,0,0)
(0,0,0)
(0,0,0)
(0,0,0)
(0,0,0)
(0,0,0)
(0,0,0)
(0,0,0)
(0,0,0)
(0,0,0)
(0,0,0)
(0,0,0)
(0,0,0)
(0,0,0)
(0,0,0)
(0,0,0)
(0,0,0)
(0,0,0)
(0,0,0)
(0,0,0)
(0,0,0)
(0,0,0)
(0,0,0)
(0,0,0)
(0,0,0)
(0,0,0)
(0,0,0)
(0,0,0)
(0,0,0)
(0,0,0)
(0,0,0)
(0,0,0)
(0,0,0)
(0,0,0)
(0,0,0)
(0,0,0)
(0,0,0)
(0,0,0)
(0,0,0)
(0,0,0)
(0,0,0)
(0,0,0)
(0,0,0)
(0,0,0)
(0,0,0)
(0,0,0)
(0,0,0)
(0,0,0)
(0,0,0)
(0,0,0)
(0,0,0)
(0,0,0)
(0,0,0)
(0,0,0)
(0,0,0)
(0,0,0)
(0,0,0)
(0,0,0)
(0,0,0)
(0,0,0)
(0,0,0)
(0,0,0)
(0,0,0)
(0,0,0)
(0,0,0)
(0,0,0)
(0,0,0)
(0,0,0)
(0,0,0)
(0,0,0)
(0,0,0)
(0,0,0)
(0,0,0)
(0,0,0)
(0,0,0)
(0,0,0)
(0,0,0)
(0,0,0)
(0,0,0)
(0,0,0)
(0,0,0)
(0,0,0)
(0,0,0)
(0,0,0)
(0,0,0)
(0,0,0)
(0,0,0)
(0,0,0)
(0,0,0)
(0,0,0)
(0,0,0)
(0,0,0)
(0,0,0)
(0,0,0)
(0,0,0)
(0,0,0)
(0,0,0)
(0,0,0)
(0,0,0)
(0,0,0)
(0,0,0)
(0,0,0)
(0,0,0)
(0,0,0)
(0,0,0)
(0,0,0)
(0,0,0)
(0,0,0)
(0,0,0)
(0,0,0)
(0,0,0)
(0,0,0)
(0,0,0)
(0,0,0)
(0,0,0)
(0,0,0)
(0,0,0)
(0,0,0)
(0,0,0)
(0,0,0)
(0,0,0)
(0,0,0)
(0,0,0)
(0,0,0)
(0,0,0)
(0,0,0)
(0,0,0)
(0,0,0)
(-127710.411568522,68030.5509961583,59679.8605723621)
(-135067.592818916,65245.6302074043,129501.823183873)
(-152049.469956631,59477.7361664732,222073.556974032)
(-184215.008969253,50349.1361069854,355939.429836306)
(-242198.874154041,37966.6382349819,560171.665755373)
(-346296.197140419,23759.0513186174,882708.811577167)
(-534817.034076519,10822.5466090804,1406703.29904463)
(-875479.25418277,2868.76619831046,2279313.78702913)
(-1443906.77596652,224.748983403387,3722995.81401221)
(-2011766.19541008,-77.1487160802006,5734839.15813841)
(0,0,0)
(0,0,0)
(0,0,0)
(0,0,0)
(0,0,0)
(0,0,0)
(-135014.335366858,146160.704549838,56884.1818131773)
(-142469.637466132,140934.330219561,123665.119267158)
(-159739.018563493,129947.579435033,212934.294562088)
(-192635.534863159,112294.745985332,343624.219546906)
(-252225.372974837,87826.3000628343,545989.93069388)
(-358828.899677913,58760.9315491675,869816.950141242)
(-549423.745694314,31247.9495428289,1398815.29290181)
(-888810.862518263,13783.8935594875,2276711.02805882)
(-1452798.60268485,6898.86925872167,3722835.51046839)
(-2015920.84343761,3544.05717372087,5735135.14801614)
(0,0,0)
(0,0,0)
(0,0,0)
(0,0,0)
(0,0,0)
(0,0,0)
(-151801.433792379,246348.475019649,51613.6633225676)
(-159395.957679391,239358.490864749,112585.460356774)
(-177229.800704043,224487.573269675,195275.267226179)
(-211758.672708441,200102.246892014,319226.439027941)
(-275165.91505185,165251.915121582,516966.73902103)
(-388384.18648556,121733.773479707,842378.083576049)
(-585510.65721668,77664.4507837502,1381472.23955183)
(-922043.973500685,47334.0814291458,2269966.02518282)
(-1474213.82714112,31298.6900940038,3719780.03148869)
(-2025611.86011467,16971.1545420419,5731964.79423511)
(0,0,0)
(0,0,0)
(0,0,0)
(0,0,0)
(0,0,0)
(0,0,0)
(-183193.442248671,385055.934348093,44485.9829202275)
(-190896.660271984,377221.339793099,97519.7942638624)
(-209408.840979461,360522.784674624,170893.423838367)
(-246306.742727748,332836.778178529,284465.635279592)
(-315998.574220898,292186.808846237,473529.315775842)
(-441911.145044336,238731.466348818,798442.76795107)
(-654656.020309687,179378.285565334,1351384.95347917)
(-986332.223111415,130862.71146183,2254188.54655783)
(-1513436.8629046,93062.1617153075,3705861.93784109)
(-2042721.14789259,50078.7408856935,5715475.49939016)
(0,0,0)
(0,0,0)
(0,0,0)
(0,0,0)
(0,0,0)
(0,0,0)
(-239456.584263724,587922.871462164,36589.6471496499)
(-247136.295674979,580281.51242383,80665.7701938946)
(-266020.371519099,563996.732103282,143212.194284338)
(-304916.79702314,536999.315371717,243966.454114289)
(-381086.31492303,496902.215477692,420337.362405868)
(-522700.18340458,442371.281170501,739397.730988741)
(-760043.596954684,375562.629944967,1303256.98356379)
(-1084301.03477153,301663.868163752,2216756.86163341)
(-1570443.78295793,216878.630801671,3663384.17550505)
(-2067440.32730121,114945.815577216,5665957.42811471)
(0,0,0)
(0,0,0)
(0,0,0)
(0,0,0)
(0,0,0)
(0,0,0)
(-341039.805253871,900062.305776044,28900.3709399943)
(-348330.276527601,893220.968168117,64291.1917233038)
(-366607.965116972,878641.507016194,116254.381927364)
(-405129.39829515,854324.613938764,204058.481655464)
(-482104.126882578,816981.225550808,366083.598464931)
(-626412.356530085,761966.429205549,672900.806959987)
(-864497.699107124,683207.423303858,1229753.71270823)
(-1174040.44880114,573069.416673092,2132388.61300003)
(-1632274.58436213,419598.456321926,3561943.37184197)
(-2098588.07761795,223987.668531691,5551489.59650528)
(0,0,0)
(0,0,0)
(0,0,0)
(0,0,0)
(0,0,0)
(0,0,0)
(-527460.518576312,1405462.61070113,22060.2136512252)
(-533908.570594643,1399476.46996232,49713.282451671)
(-550321.927568225,1386723.70567269,91953.0113634101)
(-585511.75733883,1364967.41494784,166821.967693168)
(-656996.104243445,1329572.01502333,311227.282464083)
(-792586.328847662,1271445.66952251,594334.370994777)
(-1016041.74449251,1173700.97292962,1119882.56586154)
(-1297513.81697911,1011202.28475504,1979263.51475871)
(-1724434.00858957,756592.117575477,3366703.86209467)
(-2149420.62723394,412226.380139477,5327885.77772093)
(0,0,0)
(0,0,0)
(0,0,0)
(0,0,0)
(0,0,0)
(0,0,0)
(-868273.410091525,2257556.800632,16179.2201606571)
(-873436.376961344,2252081.27597094,37010.7911133932)
(-886689.652663015,2240195.38886092,70228.7605881864)
(-915322.748247395,2218983.45143047,131535.472352933)
(-974062.93827852,2181906.18122569,253264.244429088)
(-1086779.13351515,2114652.04287766,496837.004589071)
(-1273925.39268793,1986849.96176849,957613.408438108)
(-1501771.35161954,1745637.04048516,1724950.00432754)
(-1891655.6663655,1350464.46825691,3022733.32001161)
(-2246585.50035839,765434.409484472,4916110.79102495)
(0,0,0)
(0,0,0)
(0,0,0)
(0,0,0)
(0,0,0)
(0,0,0)
(-1438963.92333349,3685670.00845279,10850.7155126681)
(-1442505.73352833,3680184.60536132,25253.1196506411)
(-1451523.37804412,3667815.07809452,49156.8084611175)
(-1470774.34938323,3644295.79188435,94618.8173904631)
(-1509579.00883817,3599972.44453129,186131.562923032)
(-1582530.15736127,3514036.40686087,369277.356301096)
(-1705037.54657121,3344505.22889784,716659.635742977)
(-1887005.946191,3019250.46611117,1330052.15630797)
(-2200033.50407621,2442513.43962504,2438036.68901598)
(-2416029.50305996,1468502.53147053,4150998.07008989)
(0,0,0)
(0,0,0)
(0,0,0)
(0,0,0)
(0,0,0)
(0,0,0)
(-2009488.42437812,5689620.52952294,5537.90330800665)
(-2011268.27907237,5683953.33448485,13037.4532568401)
(-2015758.27538306,5670799.39394698,25811.4127874748)
(-2025215.20854354,5644821.33512952,50501.0780858792)
(-2043994.28489546,5594100.91045771,100366.897054966)
(-2079117.18142493,5493489.08992962,200031.395411145)
(-2140423.21599951,5293190.35395594,391769.48635254)
(-2243704.04012018,4901101.77097472,753622.221609129)
(-2415475.70287571,4147289.28692737,1464322.07718247)
(-2432623.08920373,2682772.61457828,2682675.08327848)
(0,0,0)
(0,0,0)
(0,0,0)
(0,0,0)
(0,0,0)
(0,0,0)
(0,0,0)
(0,0,0)
(0,0,0)
(0,0,0)
(0,0,0)
(0,0,0)
(0,0,0)
(0,0,0)
(0,0,0)
(0,0,0)
(0,0,0)
(0,0,0)
(0,0,0)
(0,0,0)
(0,0,0)
(0,0,0)
(0,0,0)
(0,0,0)
(0,0,0)
(0,0,0)
(0,0,0)
(0,0,0)
(0,0,0)
(0,0,0)
(0,0,0)
(0,0,0)
(0,0,0)
(0,0,0)
(0,0,0)
(0,0,0)
(0,0,0)
(0,0,0)
(0,0,0)
(0,0,0)
(0,0,0)
(0,0,0)
(0,0,0)
(0,0,0)
(0,0,0)
(0,0,0)
(0,0,0)
(0,0,0)
(0,0,0)
(0,0,0)
(0,0,0)
(0,0,0)
(0,0,0)
(0,0,0)
(0,0,0)
(0,0,0)
(0,0,0)
(0,0,0)
(0,0,0)
(0,0,0)
(0,0,0)
(0,0,0)
(0,0,0)
(0,0,0)
(0,0,0)
(0,0,0)
(0,0,0)
(0,0,0)
(0,0,0)
(0,0,0)
(0,0,0)
(0,0,0)
(0,0,0)
(0,0,0)
(0,0,0)
(0,0,0)
(0,0,0)
(0,0,0)
(0,0,0)
(0,0,0)
(0,0,0)
(0,0,0)
(0,0,0)
(0,0,0)
(0,0,0)
(0,0,0)
(0,0,0)
(0,0,0)
(0,0,0)
(0,0,0)
(0,0,0)
(0,0,0)
(0,0,0)
(0,0,0)
(0,0,0)
(0,0,0)
(0,0,0)
(0,0,0)
(0,0,0)
(0,0,0)
(0,0,0)
(0,0,0)
(18866704.621012,60564.2347300983,52337.2665108307)
(18854363.5189335,57752.1684163828,112470.520163549)
(18826104.4826851,51735.1858606445,189897.915482574)
(18773203.1030173,41864.8780475239,297931.459269908)
(18679097.6923547,27890.8888660619,456060.537716541)
(18511694.6857187,11179.8308922969,694206.357786405)
(18204509.3062442,-3813.80771471577,1066010.35900182)
(17597519.7065627,-10462.1697709202,1710790.10184873)
(16227922.0168798,-8678.65635304452,3154956.4991769)
(12508383.4282343,-4239.41032504561,7746362.81967902)
(0,0,0)
(0,0,0)
(0,0,0)
(0,0,0)
(0,0,0)
(0,0,0)
(18854203.9489502,129190.705349406,49471.7788850763)
(18841828.9529249,123875.496978706,106366.393753162)
(18813310.3246933,112375.083865721,179993.686312664)
(18759444.1147464,93116.1072826843,283979.341289366)
(18662739.3587805,64861.1487901207,439360.883431419)
(18490626.384267,29171.0135612233,679230.950639127)
(18178764.2897469,-4873.77553428471,1059419.41683901)
(17574289.8252318,-19448.9666269668,1712622.05976642)
(16213482.2984021,-14522.972192001,3159502.00833966)
(12502056.8059521,-6173.91425119851,7750775.39669746)
(0,0,0)
(0,0,0)
(0,0,0)
(0,0,0)
(0,0,0)
(0,0,0)
(18825777.9132392,214855.573158367,44072.3189807945)
(18813384.6882497,207750.984439594,94732.7194122521)
(18784308.0464651,192196.817020796,160689.672909523)
(18728110.9405596,165462.966985901,255789.733759785)
(18624686.358556,124351.103685426,403764.039078057)
(18438470.4026342,68133.0652338828,645263.932107105)
(18108793.1388754,8450.67543249444,1044952.21886976)
(17510069.038937,-17002.1750625386,1717708.94868916)
(16176123.7223146,-7970.042136453,3168135.00299924)
(12486569.8474503,-174.845048503441,7757270.7600531)
(0,0,0)
(0,0,0)
(0,0,0)
(0,0,0)
(0,0,0)
(0,0,0)
(18773447.5061795,328688.713360802,36842.4451908301)
(18761094.1815187,320913.045100876,79006.076560307)
(18731326.1498797,303840.813764327,133943.622779042)
(18671472.7427625,274165.7249805,214777.913115679)
(18555720.6594387,227041.397254005,347684.919709041)
(18337614.77931,157889.821518972,585718.772891158)
(17953147.7101585,73969.4644560075,1019712.78722091)
(17363798.2229038,32882.0008587011,1727014.69910585)
(16100606.3146979,35989.5830087044,3176328.43017949)
(12457564.9964327,25303.459870022,7757880.51475719)
(0,0,0)
(0,0,0)
(0,0,0)
(0,0,0)
(0,0,0)
(0,0,0)
(18681307.8941056,486265.921370349,28974.8474425147)
(18669228.8625391,479023.679285863,61815.5888648189)
(18639304.1406809,463338.24766785,104310.176582823)
(18576320.3734563,436729.320425858,167825.944479427)
(18446481.0257378,395841.195563132,278775.339330957)
(18180579.6724978,338649.348787358,502052.489981698)
(17673190.0274251,271131.914121028,978972.949758401)
(17092430.6054046,211945.625056827,1730494.21920564)
(15982208.1307897,155025.501035892,3166122.92125209)
(12414432.4153152,83785.007694996,7733085.16463214)
(0,0,0)
(0,0,0)
(0,0,0)
(0,0,0)
(0,0,0)
(0,0,0)
(18517333.1325669,713534.350414698,21675.1669563321)
(18506074.937793,707530.383214484,46079.7825285641)
(18477542.5463717,694817.696374292,77766.3561548311)
(18415714.4574101,673845.826976022,127122.527720937)
(18284395.990222,641987.584693902,221792.555307035)
(18010864.2257696,595703.192615544,434778.663000547)
(17496985.8785899,531603.146778142,920140.386467906)
(16941852.2381983,449540.13799616,1673969.72035044)
(15881239.3021651,327427.146833129,3095370.7218474)
(12364930.771563,173150.370640767,7649803.04354204)
(0,0,0)
(0,0,0)
(0,0,0)
(0,0,0)
(0,0,0)
(0,0,0)
(18213299.5678477,1064411.99538035,15678.8024318077)
(18203504.2065091,1059737.28511784,33375.6572462182)
(18178217.6216796,1050172.48746561,56797.8507286359)
(18122108.4659295,1034981.5130274,95358.4752303516)
(17999680.9740718,1012338.94920121,175646.566229304)
(17738108.3263597,977106.865049024,370864.772409795)
(17239664.9972278,915723.963785049,838353.747503976)
(16738679.0298562,806828.748050098,1552188.82443623)
(15731730.8246225,589286.466841953,2941481.20503657)
(12280446.2148794,315008.357923239,7477072.90946228)
(0,0,0)
(0,0,0)
(0,0,0)
(0,0,0)
(0,0,0)
(0,0,0)
(17605815.116904,1686566.0461579,11073.9560483532)
(17598085.6243462,1682764.30793542,23841.4657447003)
(17577911.1865733,1675106.11283015,41623.5349652761)
(17532565.1256531,1663256.64358305,72777.0643305887)
(17431691.0012478,1646163.96056013,140514.6472666)
(17209795.407731,1618701.06250631,309662.442384744)
(16773487.0784659,1555590.78579334,729699.683044008)
(16446858.7570863,1360263.47612081,1334951.38008878)
(15430345.3345209,1041962.32655088,2667591.05331485)
(12084968.0409441,595917.160354278,7162445.24340273)
(0,0,0)
(0,0,0)
(0,0,0)
(0,0,0)
(0,0,0)
(0,0,0)
(16232712.8225789,3114845.34505165,7360.48901534708)
(16227499.5568527,3111143.72381899,16292.3165722656)
(16214008.8733357,3103285.13823829,29897.5736057084)
(16184350.1659055,3089568.31459848,55777.9211229792)
(16121205.9395054,3065320.01699875,113153.450162195)
(15992700.7993155,3017215.18458409,246724.905229035)
(15761071.4957787,2908921.85002681,534601.332467144)
(15435823.4620936,2662426.67300405,1016925.26112085)
(14517303.1433303,2226974.16613345,2221893.30795325)
(11490382.1859614,1451868.1591876,6566847.15391997)
(0,0,0)
(0,0,0)
(0,0,0)
(0,0,0)
(0,0,0)
(0,0,0)
(12510113.2293416,7698773.71320477,3786.51194850575)
(12507519.6362496,7694885.14366821,8573.71059870851)
(12500895.1915673,7686193.01086317,16328.9048449339)
(12486650.5388678,7669682.23682264,31665.7690310163)
(12457303.2070008,7637797.47694903,65207.3510059526)
(12399568.2012441,7572359.8986812,138693.788061291)
(12292671.3125537,7433403.27999285,288434.363363546)
(12087993.0395816,7144689.75407029,581790.736416999)
(11490837.9218787,6562658.97093838,1447108.84067915)
(9343112.33347779,5115337.87063219,5115220.24037436)
(0,0,0)
(0,0,0)
(0,0,0)
(0,0,0)
(0,0,0)
(0,0,0)
(0,0,0)
(0,0,0)
(0,0,0)
(0,0,0)
(0,0,0)
(0,0,0)
(0,0,0)
(0,0,0)
(0,0,0)
(0,0,0)
(0,0,0)
(0,0,0)
(0,0,0)
(0,0,0)
(0,0,0)
(0,0,0)
(0,0,0)
(0,0,0)
(0,0,0)
(0,0,0)
(0,0,0)
(0,0,0)
(0,0,0)
(0,0,0)
(0,0,0)
(0,0,0)
(0,0,0)
(0,0,0)
(0,0,0)
(0,0,0)
(0,0,0)
(0,0,0)
(0,0,0)
(0,0,0)
(0,0,0)
(0,0,0)
(0,0,0)
(0,0,0)
(0,0,0)
(0,0,0)
(0,0,0)
(0,0,0)
(0,0,0)
(0,0,0)
(0,0,0)
(0,0,0)
(0,0,0)
(0,0,0)
(0,0,0)
(0,0,0)
(0,0,0)
(0,0,0)
(0,0,0)
(0,0,0)
(0,0,0)
(0,0,0)
(0,0,0)
(0,0,0)
(0,0,0)
(0,0,0)
(0,0,0)
(0,0,0)
(0,0,0)
(0,0,0)
(0,0,0)
(0,0,0)
(0,0,0)
(0,0,0)
(0,0,0)
(0,0,0)
(0,0,0)
(0,0,0)
(0,0,0)
(0,0,0)
(0,0,0)
(0,0,0)
(0,0,0)
(0,0,0)
(0,0,0)
(0,0,0)
(0,0,0)
(0,0,0)
(0,0,0)
(0,0,0)
(0,0,0)
(0,0,0)
(0,0,0)
(0,0,0)
(0,0,0)
(0,0,0)
(0,0,0)
(0,0,0)
(0,0,0)
(0,0,0)
(0,0,0)
(0,0,0)
(-328654.721496673,48000.1172452839,40042.6914419398)
(-342284.379969837,45154.980589712,84219.0759340441)
(-372987.148454401,38869.347085321,137124.826166823)
(-428892.749964921,27997.6520313359,203906.493296297)
(-524481.406844693,11479.4759681626,288689.582706098)
(-684057.156615878,-9919.34874639739,387044.239965783)
(-945065.330641804,-29624.8088240951,458927.15185443)
(-1358114.13860645,-33745.1581819406,340989.621384073)
(-1950360.32222288,-23154.6966684466,-564889.876666284)
(-2390780.93851369,-10568.6694159518,-4762473.37432364)
(0,0,0)
(0,0,0)
(0,0,0)
(0,0,0)
(0,0,0)
(0,0,0)
(-342969.169275596,100711.304457092,37145.3971925447)
(-356367.79689542,95330.6977212096,77849.8960599239)
(-386753.012876649,83252.2022574512,126213.844636369)
(-442679.797961424,61645.4859992178,187373.389554887)
(-539760.437336067,26741.2659412389,267294.861876937)
(-703669.598644549,-23023.383562113,367378.345782657)
(-970750.72541149,-74921.6631413354,454873.68143678)
(-1379795.21252665,-83727.0221167897,351624.049308626)
(-1961205.42019051,-51914.3829739987,-552245.079614467)
(-2394610.37115253,-21678.0405109395,-4751785.06523621)
(0,0,0)
(0,0,0)
(0,0,0)
(0,0,0)
(0,0,0)
(0,0,0)
(-375015.827260598,162504.82305143,31683.6880841265)
(-387949.325186949,155389.82995574,65642.0354648062)
(-417777.229802192,139110.996552354,104551.983615701)
(-474206.399271961,108712.726825058,152485.548799907)
(-576321.455939718,55303.27094065,217614.82447478)
(-757089.419320612,-32762.0721351282,315596.801181136)
(-1056792.01601566,-147245.880902895,446189.640012248)
(-1455070.38213131,-163315.957416036,383601.462558269)
(-1994217.03802117,-83507.1673855416,-521781.526515741)
(-2405182.4794282,-29177.2981135066,-4729846.47585617)
(0,0,0)
(0,0,0)
(0,0,0)
(0,0,0)
(0,0,0)
(0,0,0)
(-432352.717161893,236507.913179041,24480.5993923454)
(-444582.563007,229011.908716722,49218.7313356222)
(-473543.508539686,211767.764505557,74115.08798038)
(-531106.256940673,178963.813680407,99126.4670067151)
(-644580.10986523,117736.192972516,129677.780457247)
(-874877.657334202,798.613841070504,201292.997303721)
(-1324424.05062889,-206036.752373541,430339.09574031)
(-1701689.20720472,-238504.053710168,463698.088321599)
(-2076977.75745875,-82464.3675592502,-467077.173169387)
(-2427874.83126556,-17873.3864926649,-4700257.79091346)
(0,0,0)
(0,0,0)
(0,0,0)
(0,0,0)
(0,0,0)
(0,0,0)
(-528714.364683828,322288.793554468,16924.844592607)
(-539933.040363029,315859.795257413,31922.3271326696)
(-567266.497646567,301578.857523854,41365.3386203073)
(-624846.418802724,276129.82827558,38049.5824627574)
(-751748.825783469,233749.474483428,12949.6186516328)
(-1076636.9298454,168939.413170099,-5291.11215569447)
(-2138592.18401752,94950.0436949333,398187.769396915)
(-2536715.63262729,61402.151130614,620111.268766573)
(-2239467.65270375,54028.7818063781,-402022.630926914)
(-2465128.35383324,34248.2622668583,-4681900.04435931)
(0,0,0)
(0,0,0)
(0,0,0)
(0,0,0)
(0,0,0)
(0,0,0)
(-687554.487765296,409410.13154311,10449.7485221074)
(-697385.968448356,404847.786961075,17606.1292383566)
(-721913.991789078,395379.564584935,15945.4265166715)
(-775451.162023859,380129.395727804,-4205.05532311265)
(-898809.480595815,357149.335868358,-51715.9797116699)
(-1222975.1922146,322832.967020323,-79086.6493990683)
(-2233603.07342335,274188.100709427,364947.711778171)
(-2598564.10220231,246316.958985577,613132.710502447)
(-2315517.11784925,177907.800905484,-421306.422403761)
(-2502480.021173,88651.6207920156,-4715615.52201422)
(0,0,0)
(0,0,0)
(0,0,0)
(0,0,0)
(0,0,0)
(0,0,0)
(-947116.086722713,456604.200002255,5905.05228978404)
(-955216.178208252,454014.540657799,8142.14948891044)
(-975857.574198219,449601.159863605,679.216266481288)
(-1022512.17617567,445217.309916559,-27104.5896385307)
(-1135787.5592894,444133.045665283,-85936.2998957506)
(-1453321.48627368,448596.424394891,-127586.47845826)
(-2507726.62462728,449381.148127552,337295.56215731)
(-2844927.6239254,514844.821297272,545057.819805738)
(-2430280.82379556,287799.76287507,-510139.027567025)
(-2564066.93186586,119497.61256004,-4803788.40641133)
(0,0,0)
(0,0,0)
(0,0,0)
(0,0,0)
(0,0,0)
(0,0,0)
(-1361271.78059827,313005.311056758,3369.25262633913)
(-1367391.56694323,311783.314268987,3761.13648310064)
(-1383195.9267709,310835.101128,-3682.22525852116)
(-1419810.91161224,314705.516670469,-28110.928568547)
(-1513587.95839855,335391.256225952,-81406.7133041197)
(-1805019.59008238,401357.406813983,-126669.231731387)
(-2957050.69023795,542970.313510167,402962.837768465)
(-2410017.93670443,349059.783375178,318308.035659887)
(-2521594.29033497,128796.320126897,-678065.430557405)
(-2659304.98770888,1297.74904002303,-4922909.07220575)
(0,0,0)
(0,0,0)
(0,0,0)
(0,0,0)
(0,0,0)
(0,0,0)
(-1955408.66483873,-608365.084746274,2175.34939917186)
(-1959374.16911005,-609363.648050936,2879.50386032619)
(-1969526.08338015,-610325.372923207,258.400805989241)
(-1992058.80803775,-608570.94730677,-7372.69509495965)
(-2043745.23706322,-598976.178640626,-15370.6174811621)
(-2167398.45165164,-576276.293281167,15045.7997597058)
(-2437691.3832896,-559761.734516214,209224.193032903)
(-2525911.3552496,-685580.079373392,98282.3393031175)
(-2758089.38160245,-799610.36285749,-805234.986601211)
(-2801614.258007,-695426.957993706,-4923830.36942054)
(0,0,0)
(0,0,0)
(0,0,0)
(0,0,0)
(0,0,0)
(0,0,0)
(-2394639.47462621,-4812142.94654005,1214.03194018529)
(-2396567.54435676,-4813374.66670881,1995.69738291322)
(-2401432.21460094,-4815411.78938977,2092.98619630151)
(-2411846.5560698,-4817597.66618424,2300.26618977174)
(-2434052.74738014,-4820080.29174809,7443.79985676961)
(-2480623.63029673,-4827705.60743811,31748.4117330755)
(-2566661.05400917,-4859662.50387494,83665.013833223)
(-2662240.37522533,-4943541.37815687,-15456.8063978981)
(-2802480.23071271,-4928343.22876148,-700722.321723996)
(-2704455.98519948,-4227846.25356247,-4228051.24129936)
(0,0,0)
(0,0,0)
(0,0,0)
(0,0,0)
(0,0,0)
(0,0,0)
(0,0,0)
(0,0,0)
(0,0,0)
(0,0,0)
(0,0,0)
(0,0,0)
(0,0,0)
(0,0,0)
(0,0,0)
(0,0,0)
(0,0,0)
(0,0,0)
(0,0,0)
(0,0,0)
(0,0,0)
(0,0,0)
(0,0,0)
(0,0,0)
(0,0,0)
(0,0,0)
(0,0,0)
(0,0,0)
(0,0,0)
(0,0,0)
(0,0,0)
(0,0,0)
(0,0,0)
(0,0,0)
(0,0,0)
(0,0,0)
(0,0,0)
(0,0,0)
(0,0,0)
(0,0,0)
(0,0,0)
(0,0,0)
(0,0,0)
(0,0,0)
(0,0,0)
(0,0,0)
(0,0,0)
(0,0,0)
(0,0,0)
(0,0,0)
(0,0,0)
(0,0,0)
(0,0,0)
(0,0,0)
(0,0,0)
(0,0,0)
(0,0,0)
(0,0,0)
(0,0,0)
(0,0,0)
(0,0,0)
(0,0,0)
(0,0,0)
(0,0,0)
(0,0,0)
(0,0,0)
(0,0,0)
(0,0,0)
(0,0,0)
(0,0,0)
(0,0,0)
(0,0,0)
(0,0,0)
(0,0,0)
(0,0,0)
(0,0,0)
(0,0,0)
(0,0,0)
(0,0,0)
(0,0,0)
(0,0,0)
(0,0,0)
(0,0,0)
(0,0,0)
(0,0,0)
(0,0,0)
(0,0,0)
(0,0,0)
(0,0,0)
(0,0,0)
(0,0,0)
(0,0,0)
(0,0,0)
(0,0,0)
(0,0,0)
(0,0,0)
(0,0,0)
(0,0,0)
(0,0,0)
(0,0,0)
(0,0,0)
(0,0,0)
(-388722.57856446,33595.0556347475,26472.8014330403)
(-400314.478577398,30974.0841040106,53528.8159365944)
(-425724.132314989,25003.0146981704,81262.7850990134)
(-470027.59973591,14093.5536271128,108304.081242886)
(-541473.42783597,-3853.33448360517,129149.436717771)
(-651393.532513332,-29570.5027793082,126056.315394536)
(-809433.366182129,-55370.1775409993,45794.528475863)
(-1005409.11399426,-55491.3281150563,-251419.168021281)
(-1162136.81865465,-34066.1362348785,-1005576.5353546)
(-1009840.5861595,-14433.861360291,-2372083.02634848)
(0,0,0)
(0,0,0)
(0,0,0)
(0,0,0)
(0,0,0)
(0,0,0)
(-401780.820380324,68592.2739500392,23814.4327894344)
(-412700.351293742,63647.633362669,47473.4379290989)
(-436689.371569465,52118.7768555103,70294.034464579)
(-478616.567018445,29994.2893565288,90330.0677921801)
(-546823.772696053,-9897.58329112955,103437.651959693)
(-653579.644594876,-76511.4313303057,100288.626461025)
(-810545.444271981,-161025.60515594,45738.7729364616)
(-1000553.40339821,-159046.124407627,-229948.239899401)
(-1154359.97446593,-84958.2449198651,-985901.576938989)
(-1005080.1118685,-32274.4170717551,-2357591.28051161)
(0,0,0)
(0,0,0)
(0,0,0)
(0,0,0)
(0,0,0)
(0,0,0)
(-430363.69022268,105140.024974643,18800.1119374828)
(-440019.813495824,98697.496289033,35820.7373199893)
(-461206.955491895,83261.1382566426,48108.1016085587)
(-498252.864404649,51724.7008207135,50424.1552770655)
(-559637.199320948,-13028.0365741877,36870.3519413514)
(-661990.342911969,-150602.949993846,15862.7941962348)
(-834863.793415389,-414922.5805051,47831.5469451289)
(-1000613.64311742,-409981.195830013,-155690.120646383)
(-1135541.55385593,-166306.554237585,-933017.295493889)
(-993475.872131218,-51895.3823778022,-2325102.93748482)
(0,0,0)
(0,0,0)
(0,0,0)
(0,0,0)
(0,0,0)
(0,0,0)
(-479674.927991305,140195.45881471,12266.7769893522)
(-487555.989993516,133685.444236895,20252.2560280101)
(-504611.687968472,118037.487761324,16544.0859521168)
(-533786.397030698,85226.7299166615,-14277.8030538076)
(-581870.768823527,10554.6093571705,-100569.790026865)
(-676812.955579906,-200994.178450141,-248243.263324867)
(-1020356.81795785,-1020245.92942095,53012.8529199385)
(-1073386.24087331,-1073566.36073977,88295.051498295)
(-1091751.81101006,-245007.856594391,-818229.592593595)
(-970040.626469521,-55167.8875631318,-2272791.29220432)
(0,0,0)
(0,0,0)
(0,0,0)
(0,0,0)
(0,0,0)
(0,0,0)
(-557730.998841759,163485.986602074,5726.10637056607)
(-563543.330599186,158431.516970767,4590.32387285201)
(-575451.061271566,147010.04853187,-16197.6732726922)
(-592622.711230415,125598.426572636,-88793.0775009733)
(-604788.352976541,86699.1570455635,-311898.097996297)
(-544903.982202927,22599.3188167813,-1067224.5429057)
(8.64143839117622e-05,2.29546891086579e-05,-5.63619403565122e-05)