/*--------------------------------*- C++ -*----------------------------------*\
| =========                 |                                                 |
| \\      /  F ield         | foam-extend: Open Source CFD                    |
|  \\    /   O peration     | Version:     4.0                                |
|   \\  /    A nd           | Web:         http://www.foam-extend.org         |
|    \\/     M anipulation  |                                                 |
\*---------------------------------------------------------------------------*/
FoamFile
{
    version 2.0;
    format ascii;
    class volVectorField;
    location "Data/3923";
    object      E;
}
// * * * * * * * * * * * * * * * * * * * * * * * * * * * * * * * * * * * * * //

dimensions      [0 1 -1 0 0 0 0];

internalField   nonuniform List<vector>
4096
(
(0,0,0)
(0,0,0)
(0,0,0)
(0,0,0)
(0,0,0)
(0,0,0)
(0,0,0)
(0,0,0)
(0,0,0)
(0,0,0)
(0,0,0)
(0,0,0)
(0,0,0)
(0,0,0)
(0,0,0)
(0,0,0)
(0,0,0)
(0,0,0)
(0,0,0)
(0,0,0)
(0,0,0)
(0,0,0)
(0,0,0)
(0,0,0)
(0,0,0)
(0,0,0)
(0,0,0)
(0,0,0)
(0,0,0)
(0,0,0)
(0,0,0)
(0,0,0)
(0,0,0)
(0,0,0)
(0,0,0)
(0,0,0)
(0,0,0)
(0,0,0)
(0,0,0)
(0,0,0)
(0,0,0)
(0,0,0)
(0,0,0)
(0,0,0)
(0,0,0)
(0,0,0)
(0,0,0)
(0,0,0)
(0,0,0)
(0,0,0)
(0,0,0)
(0,0,0)
(0,0,0)
(0,0,0)
(0,0,0)
(0,0,0)
(0,0,0)
(0,0,0)
(0,0,0)
(0,0,0)
(0,0,0)
(0,0,0)
(0,0,0)
(0,0,0)
(0,0,0)
(0,0,0)
(0,0,0)
(0,0,0)
(0,0,0)
(0,0,0)
(0,0,0)
(0,0,0)
(0,0,0)
(0,0,0)
(0,0,0)
(0,0,0)
(0,0,0)
(0,0,0)
(0,0,0)
(0,0,0)
(0,0,0)
(0,0,0)
(0,0,0)
(0,0,0)
(0,0,0)
(0,0,0)
(0,0,0)
(0,0,0)
(0,0,0)
(0,0,0)
(0,0,0)
(0,0,0)
(0,0,0)
(0,0,0)
(0,0,0)
(0,0,0)
(0,0,0)
(0,0,0)
(0,0,0)
(0,0,0)
(0,0,0)
(0,0,0)
(0,0,0)
(0,0,0)
(0,0,0)
(0,0,0)
(0,0,0)
(0,0,0)
(0,0,0)
(0,0,0)
(0,0,0)
(0,0,0)
(0,0,0)
(0,0,0)
(0,0,0)
(0,0,0)
(0,0,0)
(0,0,0)
(0,0,0)
(0,0,0)
(0,0,0)
(0,0,0)
(0,0,0)
(0,0,0)
(0,0,0)
(0,0,0)
(0,0,0)
(0,0,0)
(0,0,0)
(0,0,0)
(0,0,0)
(0,0,0)
(0,0,0)
(0,0,0)
(0,0,0)
(0,0,0)
(0,0,0)
(0,0,0)
(0,0,0)
(0,0,0)
(0,0,0)
(0,0,0)
(0,0,0)
(0,0,0)
(0,0,0)
(0,0,0)
(0,0,0)
(0,0,0)
(0,0,0)
(0,0,0)
(0,0,0)
(0,0,0)
(0,0,0)
(0,0,0)
(0,0,0)
(0,0,0)
(0,0,0)
(0,0,0)
(0,0,0)
(0,0,0)
(0,0,0)
(0,0,0)
(0,0,0)
(0,0,0)
(0,0,0)
(0,0,0)
(0,0,0)
(0,0,0)
(0,0,0)
(0,0,0)
(0,0,0)
(0,0,0)
(0,0,0)
(0,0,0)
(0,0,0)
(0,0,0)
(0,0,0)
(0,0,0)
(0,0,0)
(0,0,0)
(0,0,0)
(0,0,0)
(0,0,0)
(0,0,0)
(0,0,0)
(0,0,0)
(0,0,0)
(0,0,0)
(0,0,0)
(0,0,0)
(0,0,0)
(0,0,0)
(0,0,0)
(0,0,0)
(0,0,0)
(0,0,0)
(0,0,0)
(0,0,0)
(0,0,0)
(0,0,0)
(0,0,0)
(0,0,0)
(0,0,0)
(0,0,0)
(0,0,0)
(0,0,0)
(0,0,0)
(0,0,0)
(0,0,0)
(0,0,0)
(0,0,0)
(0,0,0)
(0,0,0)
(0,0,0)
(0,0,0)
(0,0,0)
(0,0,0)
(0,0,0)
(0,0,0)
(0,0,0)
(0,0,0)
(0,0,0)
(0,0,0)
(0,0,0)
(0,0,0)
(0,0,0)
(0,0,0)
(0,0,0)
(0,0,0)
(0,0,0)
(0,0,0)
(0,0,0)
(0,0,0)
(0,0,0)
(0,0,0)
(0,0,0)
(0,0,0)
(0,0,0)
(0,0,0)
(0,0,0)
(0,0,0)
(0,0,0)
(0,0,0)
(0,0,0)
(0,0,0)
(0,0,0)
(0,0,0)
(0,0,0)
(0,0,0)
(0,0,0)
(0,0,0)
(0,0,0)
(0,0,0)
(0,0,0)
(0,0,0)
(0,0,0)
(0,0,0)
(0,0,0)
(0,0,0)
(0,0,0)
(0,0,0)
(0,0,0)
(0,0,0)
(0,0,0)
(0,0,0)
(0,0,0)
(0,0,0)
(0,0,0)
(0,0,0)
(0,0,0)
(0,0,0)
(0,0,0)
(0,0,0)
(0,0,0)
(0,0,0)
(0,0,0)
(0,0,0)
(0,0,0)
(0,0,0)
(0,0,0)
(0,0,0)
(0,0,0)
(0,0,0)
(0,0,0)
(0,0,0)
(0,0,0)
(0,0,0)
(0,0,0)
(0,0,0)
(0,0,0)
(0,0,0)
(0,0,0)
(0,0,0)
(0,0,0)
(0,0,0)
(0,0,0)
(0,0,0)
(0,0,0)
(0,0,0)
(0,0,0)
(0,0,0)
(0,0,0)
(0,0,0)
(0,0,0)
(0,0,0)
(0,0,0)
(0,0,0)
(0,0,0)
(0,0,0)
(0,0,0)
(0,0,0)
(0,0,0)
(0,0,0)
(0,0,0)
(0,0,0)
(0,0,0)
(0,0,0)
(0,0,0)
(0,0,0)
(0,0,0)
(0,0,0)
(0,0,0)
(0,0,0)
(0,0,0)
(0,0,0)
(0,0,0)
(0,0,0)
(0,0,0)
(0,0,0)
(0,0,0)
(0,0,0)
(0,0,0)
(0,0,0)
(0,0,0)
(0,0,0)
(0,0,0)
(0,0,0)
(0,0,0)
(0,0,0)
(0,0,0)
(0,0,0)
(0,0,0)
(0,0,0)
(0,0,0)
(0,0,0)
(0,0,0)
(0,0,0)
(0,0,0)
(0,0,0)
(0,0,0)
(0,0,0)
(0,0,0)
(0,0,0)
(0,0,0)
(0,0,0)
(0,0,0)
(0,0,0)
(0,0,0)
(0,0,0)
(0,0,0)
(0,0,0)
(0,0,0)
(0,0,0)
(0,0,0)
(0,0,0)
(0,0,0)
(0,0,0)
(0,0,0)
(0,0,0)
(0,0,0)
(0,0,0)
(0,0,0)
(0,0,0)
(0,0,0)
(0,0,0)
(0,0,0)
(0,0,0)
(0,0,0)
(0,0,0)
(0,0,0)
(0,0,0)
(0,0,0)
(0,0,0)
(0,0,0)
(0,0,0)
(0,0,0)
(0,0,0)
(0,0,0)
(0,0,0)
(0,0,0)
(0,0,0)
(0,0,0)
(0,0,0)
(0,0,0)
(0,0,0)
(0,0,0)
(0,0,0)
(0,0,0)
(0,0,0)
(0,0,0)
(0,0,0)
(0,0,0)
(0,0,0)
(0,0,0)
(0,0,0)
(0,0,0)
(0,0,0)
(0,0,0)
(0,0,0)
(0,0,0)
(0,0,0)
(0,0,0)
(0,0,0)
(0,0,0)
(0,0,0)
(0,0,0)
(0,0,0)
(0,0,0)
(0,0,0)
(0,0,0)
(0,0,0)
(0,0,0)
(0,0,0)
(0,0,0)
(0,0,0)
(0,0,0)
(0,0,0)
(0,0,0)
(0,0,0)
(0,0,0)
(0,0,0)
(0,0,0)
(0,0,0)
(0,0,0)
(0,0,0)
(0,0,0)
(0,0,0)
(0,0,0)
(0,0,0)
(0,0,0)
(0,0,0)
(0,0,0)
(0,0,0)
(0,0,0)
(0,0,0)
(0,0,0)
(0,0,0)
(0,0,0)
(0,0,0)
(0,0,0)
(0,0,0)
(0,0,0)
(0,0,0)
(0,0,0)
(0,0,0)
(0,0,0)
(0,0,0)
(0,0,0)
(0,0,0)
(0,0,0)
(0,0,0)
(0,0,0)
(0,0,0)
(0,0,0)
(0,0,0)
(0,0,0)
(0,0,0)
(0,0,0)
(0,0,0)
(0,0,0)
(0,0,0)
(0,0,0)
(0,0,0)
(0,0,0)
(0,0,0)
(0,0,0)
(0,0,0)
(0,0,0)
(0,0,0)
(0,0,0)
(0,0,0)
(0,0,0)
(0,0,0)
(0,0,0)
(0,0,0)
(0,0,0)
(0,0,0)
(0,0,0)
(0,0,0)
(0,0,0)
(0,0,0)
(0,0,0)
(0,0,0)
(0,0,0)
(0,0,0)
(0,0,0)
(0,0,0)
(0,0,0)
(0,0,0)
(0,0,0)
(0,0,0)
(0,0,0)
(0,0,0)
(0,0,0)
(0,0,0)
(0,0,0)
(0,0,0)
(0,0,0)
(0,0,0)
(0,0,0)
(0,0,0)
(0,0,0)
(0,0,0)
(0,0,0)
(0,0,0)
(0,0,0)
(0,0,0)
(0,0,0)
(0,0,0)
(0,0,0)
(0,0,0)
(0,0,0)
(0,0,0)
(0,0,0)
(0,0,0)
(0,0,0)
(0,0,0)
(0,0,0)
(0,0,0)
(0,0,0)
(0,0,0)
(0,0,0)
(0,0,0)
(0,0,0)
(0,0,0)
(0,0,0)
(0,0,0)
(0,0,0)
(0,0,0)
(0,0,0)
(0,0,0)
(0,0,0)
(0,0,0)
(0,0,0)
(0,0,0)
(0,0,0)
(0,0,0)
(0,0,0)
(0,0,0)
(0,0,0)
(0,0,0)
(0,0,0)
(0,0,0)
(0,0,0)
(0,0,0)
(0,0,0)
(0,0,0)
(0,0,0)
(0,0,0)
(0,0,0)
(0,0,0)
(0,0,0)
(0,0,0)
(0,0,0)
(0,0,0)
(0,0,0)
(0,0,0)
(0,0,0)
(0,0,0)
(0,0,0)
(0,0,0)
(0,0,0)
(0,0,0)
(0,0,0)
(0,0,0)
(0,0,0)
(0,0,0)
(0,0,0)
(0,0,0)
(0,0,0)
(0,0,0)
(0,0,0)
(0,0,0)
(0,0,0)
(0,0,0)
(0,0,0)
(0,0,0)
(0,0,0)
(0,0,0)
(0,0,0)
(0,0,0)
(0,0,0)
(0,0,0)
(0,0,0)
(0,0,0)
(0,0,0)
(0,0,0)
(0,0,0)
(0,0,0)
(0,0,0)
(0,0,0)
(0,0,0)
(0,0,0)
(0,0,0)
(0,0,0)
(0,0,0)
(0,0,0)
(0,0,0)
(0,0,0)
(0,0,0)
(0,0,0)
(0,0,0)
(0,0,0)
(0,0,0)
(0,0,0)
(0,0,0)
(0,0,0)
(0,0,0)
(0,0,0)
(0,0,0)
(0,0,0)
(0,0,0)
(0,0,0)
(0,0,0)
(0,0,0)
(0,0,0)
(0,0,0)
(0,0,0)
(0,0,0)
(0,0,0)
(0,0,0)
(0,0,0)
(0,0,0)
(0,0,0)
(0,0,0)
(0,0,0)
(0,0,0)
(0,0,0)
(0,0,0)
(0,0,0)
(0,0,0)
(0,0,0)
(0,0,0)
(0,0,0)
(0,0,0)
(0,0,0)
(0,0,0)
(0,0,0)
(0,0,0)
(0,0,0)
(0,0,0)
(0,0,0)
(0,0,0)
(0,0,0)
(0,0,0)
(0,0,0)
(0,0,0)
(0,0,0)
(0,0,0)
(0,0,0)
(0,0,0)
(0,0,0)
(0,0,0)
(0,0,0)
(0,0,0)
(0,0,0)
(0,0,0)
(0,0,0)
(0,0,0)
(0,0,0)
(0,0,0)
(0,0,0)
(0,0,0)
(0,0,0)
(0,0,0)
(0,0,0)
(0,0,0)
(0,0,0)
(0,0,0)
(0,0,0)
(0,0,0)
(0,0,0)
(0,0,0)
(0,0,0)
(0,0,0)
(0,0,0)
(0,0,0)
(0,0,0)
(0,0,0)
(0,0,0)
(0,0,0)
(0,0,0)
(0,0,0)
(0,0,0)
(0,0,0)
(0,0,0)
(0,0,0)
(0,0,0)
(0,0,0)
(0,0,0)
(0,0,0)
(0,0,0)
(0,0,0)
(0,0,0)
(0,0,0)
(0,0,0)
(0,0,0)
(0,0,0)
(0,0,0)
(0,0,0)
(0,0,0)
(0,0,0)
(0,0,0)
(0,0,0)
(0,0,0)
(0,0,0)
(0,0,0)
(0,0,0)
(0,0,0)
(0,0,0)
(0,0,0)
(0,0,0)
(0,0,0)
(0,0,0)
(0,0,0)
(0,0,0)
(0,0,0)
(0,0,0)
(0,0,0)
(0,0,0)
(0,0,0)
(0,0,0)
(0,0,0)
(0,0,0)
(0,0,0)
(0,0,0)
(0,0,0)
(0,0,0)
(0,0,0)
(0,0,0)
(0,0,0)
(0,0,0)
(0,0,0)
(0,0,0)
(0,0,0)
(0,0,0)
(0,0,0)
(0,0,0)
(0,0,0)
(0,0,0)
(0,0,0)
(0,0,0)
(0,0,0)
(0,0,0)
(0,0,0)
(0,0,0)
(0,0,0)
(0,0,0)
(0,0,0)
(0,0,0)
(0,0,0)
(0,0,0)
(0,0,0)
(0,0,0)
(0,0,0)
(0,0,0)
(0,0,0)
(0,0,0)
(0,0,0)
(0,0,0)
(0,0,0)
(0,0,0)
(0,0,0)
(0,0,0)
(0,0,0)
(0,0,0)
(0,0,0)
(0,0,0)
(0,0,0)
(0,0,0)
(0,0,0)
(0,0,0)
(0,0,0)
(0,0,0)
(0,0,0)
(0,0,0)
(0,0,0)
(0,0,0)
(0,0,0)
(0,0,0)
(0,0,0)
(0,0,0)
(0,0,0)
(0,0,0)
(0,0,0)
(0,0,0)
(0,0,0)
(0,0,0)
(0,0,0)
(0,0,0)
(0,0,0)
(0,0,0)
(0,0,0)
(0,0,0)
(0,0,0)
(0,0,0)
(0,0,0)
(0,0,0)
(0,0,0)
(0,0,0)
(0,0,0)
(0,0,0)
(0,0,0)
(0,0,0)
(0,0,0)
(0,0,0)
(0,0,0)
(0,0,0)
(0,0,0)
(-90869.6454114708,48236.7136568169,42632.9317546524)
(-96138.2712485133,46245.4070971933,92525.7959059705)
(-108296.237622974,42138.6518771745,158683.381651765)
(-131239.277405671,35660.9800061668,254261.679051282)
(-172648.076381104,26904.5030459491,400005.252386433)
(-246941.642271004,16775.222322529,630171.672334914)
(-381478.375812609,7584.91431052804,1004065.13383702)
(-624586.986096722,1933.16333222057,1626718.95660152)
(-1030230.59770958,24.9367666078952,2656924.61754447)
(-1435479.78691673,-134.659391857004,4092539.06385311)
(0,0,0)
(0,0,0)
(0,0,0)
(0,0,0)
(0,0,0)
(0,0,0)
(-96170.2590772925,103800.576352863,40606.3963812464)
(-101493.086624498,100053.887737893,88291.0023650452)
(-113833.103999851,92202.524644992,152060.233597078)
(-137291.515434619,79634.4785040149,245378.250533848)
(-179820.283998675,62298.0369742969,389805.000604172)
(-255880.944308763,41564.0401862244,620897.127049231)
(-391889.715932192,21974.841555024,998396.915736911)
(-634069.364049702,9562.5294271419,1624836.91369164)
(-1036553.4407827,4684.47928574401,2656730.81195529)
(-1438440.71974932,2417.76289034902,4092619.10942226)
(0,0,0)
(0,0,0)
(0,0,0)
(0,0,0)
(0,0,0)
(0,0,0)
(-108219.357762863,175209.975738335,36809.9583773906)
(-113631.328991603,170160.410578465,80334.7645284252)
(-126354.92791277,159490.96808411,139401.249002083)
(-150988.57157077,142137.775958725,227886.523118143)
(-196220.821283467,117378.062550457,369027.318825436)
(-276975.93517726,86330.3684605278,601236.9257284)
(-417623.585325082,54918.9741804769,985916.378428052)
(-657748.031580042,33362.2586388671,1619864.68079633)
(-1051798.15114609,22012.0919260991,2654335.21930208)
(-1445347.58306767,11964.6582269223,4090135.90703326)
(0,0,0)
(0,0,0)
(0,0,0)
(0,0,0)
(0,0,0)
(0,0,0)
(-130573.456432999,274058.105873663,31725.3262976711)
(-136094.668172223,268424.282621932,69556.1224264313)
(-149322.797636203,256418.436509192,121951.451637544)
(-175651.381847852,236686.024520112,203054.584923995)
(-225343.566916254,207762.271176665,338013.94321406)
(-315151.964148343,169675.908960824,569820.366862102)
(-466939.844489898,127390.60848052,964288.577051926)
(-703607.279635842,92878.6999645094,1608379.4153621)
(-1079766.93700498,66021.9090650089,2644136.53522811)
(-1457547.81476626,35570.1868431465,4078078.82137841)
(0,0,0)
(0,0,0)
(0,0,0)
(0,0,0)
(0,0,0)
(0,0,0)
(-170729.482665794,418663.317966071,26124.2705733772)
(-176225.140595332,413193.665579315,57580.0282113196)
(-189708.255391784,401501.029721662,102205.690390637)
(-217442.376776042,382235.854582679,174098.237104119)
(-271738.384682861,353679.170160933,299919.7228027)
(-372753.229873278,314836.028298364,527512.833338426)
(-542088.053827106,267261.420996327,929730.074649747)
(-773466.209058747,214683.59228964,1581391.39138335)
(-1120421.65990991,154346.317656203,2613488.64270218)
(-1475176.51298672,81842.0708265278,4042393.27170555)
(0,0,0)
(0,0,0)
(0,0,0)
(0,0,0)
(0,0,0)
(0,0,0)
(-243215.449604321,641195.860828867,20682.9067415312)
(-248404.666598053,636301.473130817,45979.7657880792)
(-261446.618211189,625875.03126527,83052.3824556633)
(-288916.833582805,608548.807459008,145656.263162129)
(-343775.105295343,581947.681553484,261162.857064943)
(-446688.483398701,542745.524709444,479941.844052564)
(-616547.900093297,486665.19164938,877085.973492815)
(-837431.355474738,408252.034762975,1520948.88649425)
(-1164508.99827499,298946.692414048,2540857.51001137)
(-1497391.52778543,159610.665434274,3960480.44318904)
(0,0,0)
(0,0,0)
(0,0,0)
(0,0,0)
(0,0,0)
(0,0,0)
(-376206.39837311,1001523.80505491,15878.4541470615)
(-380801.159220519,997324.140601332,35656.9458970807)
(-392512.120237788,988247.845343855,65796.252056284)
(-417618.006619919,972789.674204352,119173.391930852)
(-468569.992394679,947612.759700839,222078.306178179)
(-565257.923767513,906205.805805927,423875.948849231)
(-724688.542471956,836596.289749458,798633.393221115)
(-925538.559347018,720811.161880746,1411612.82545034)
(-1230257.99607047,539337.577064177,2401479.93687071)
(-1533676.16508595,293888.397253408,3800878.37013756)
(0,0,0)
(0,0,0)
(0,0,0)
(0,0,0)
(0,0,0)
(0,0,0)
(-619388.00541072,1609212.89753817,11698.9129274515)
(-623063.558969235,1605445.27541527,26641.337082747)
(-632516.247261053,1597034.94296003,50370.4867276273)
(-652944.681351883,1582039.08185653,94065.7604273044)
(-694826.084736725,1555719.46742635,180785.137438517)
(-775214.824171182,1507817.03980482,354388.727610778)
(-908748.859893799,1416787.97072296,682945.90653103)
(-1071372.94417955,1244893.4471497,1230236.56544167)
(-1349657.3572125,963159.083107283,2156072.41661107)
(-1603050.32723526,545996.002165687,3507015.138934)
(0,0,0)
(0,0,0)
(0,0,0)
(0,0,0)
(0,0,0)
(0,0,0)
(-1026657.43785821,2627979.69751492,7890.63788145187)
(-1029171.96421242,2624248.31129616,18259.5662129669)
(-1035602.35048905,2615556.96250986,35339.89715215)
(-1049323.39661722,2598966.7091316,67735.6664942875)
(-1076999.1807264,2567540.13562995,132914.179017127)
(-1129034.08546504,2506366.13496516,263399.169321847)
(-1216457.29174989,2385579.03025116,511065.401543558)
(-1346363.31861579,2153769.36138886,948552.80592021)
(-1569808.79748689,1742528.38295372,1738992.30356054)
(-1724018.65264167,1047771.25899398,2961235.69937389)
(0,0,0)
(0,0,0)
(0,0,0)
(0,0,0)
(0,0,0)
(0,0,0)
(-1433835.97097962,4057773.17663269,4042.49186183275)
(-1435107.42637802,4053937.15186392,9461.07767207083)
(-1438298.01237968,4044724.1764556,18591.8761060308)
(-1445033.49363193,4026411.11210549,36180.9667641105)
(-1458446.80211255,3990463.87600898,71704.0284976676)
(-1483515.46543705,3918894.55927633,142691.069623495)
(-1527275.59550102,3776197.70281298,279347.992562693)
(-1600999.79105429,3496686.90080861,537430.244197189)
(-1723595.79066165,2959074.01706521,1044480.40074724)
(-1735865.72883775,1914286.14350814,1913831.24507094)
(0,0,0)
(0,0,0)
(0,0,0)
(0,0,0)
(0,0,0)
(0,0,0)
(0,0,0)
(0,0,0)
(0,0,0)
(0,0,0)
(0,0,0)
(0,0,0)
(0,0,0)
(0,0,0)
(0,0,0)
(0,0,0)
(0,0,0)
(0,0,0)
(0,0,0)
(0,0,0)
(0,0,0)
(0,0,0)
(0,0,0)
(0,0,0)
(0,0,0)
(0,0,0)
(0,0,0)
(0,0,0)
(0,0,0)
(0,0,0)
(0,0,0)
(0,0,0)
(0,0,0)
(0,0,0)
(0,0,0)
(0,0,0)
(0,0,0)
(0,0,0)
(0,0,0)
(0,0,0)
(0,0,0)
(0,0,0)
(0,0,0)
(0,0,0)
(0,0,0)
(0,0,0)
(0,0,0)
(0,0,0)
(0,0,0)
(0,0,0)
(0,0,0)
(0,0,0)
(0,0,0)
(0,0,0)
(0,0,0)
(0,0,0)
(0,0,0)
(0,0,0)
(0,0,0)
(0,0,0)
(0,0,0)
(0,0,0)
(0,0,0)
(0,0,0)
(0,0,0)
(0,0,0)
(0,0,0)
(0,0,0)
(0,0,0)
(0,0,0)
(0,0,0)
(0,0,0)
(0,0,0)
(0,0,0)
(0,0,0)
(0,0,0)
(0,0,0)
(0,0,0)
(0,0,0)
(0,0,0)
(0,0,0)
(0,0,0)
(0,0,0)
(0,0,0)
(0,0,0)
(0,0,0)
(0,0,0)
(0,0,0)
(0,0,0)
(0,0,0)
(0,0,0)
(0,0,0)
(0,0,0)
(0,0,0)
(0,0,0)
(0,0,0)
(0,0,0)
(0,0,0)
(0,0,0)
(0,0,0)
(0,0,0)
(0,0,0)
(13463916.5056724,42998.5388029186,37393.8467249945)
(13455098.8761164,40958.7862306299,80376.4497413459)
(13434889.741692,36666.158247762,135702.848790235)
(13397150.8952003,29647.5890306689,212843.623765349)
(13329961.6084951,19726.6953355098,325685.780165424)
(13210468.9010733,7791.6574494949,495662.115983256)
(12991240.3486697,-2877.57219192434,760999.500304427)
(12558055.9265936,-7579.84243079556,1221114.96665666)
(11580665.2688624,-6309.44247076358,2251707.07916724)
(8926346.47187799,-3083.82254459544,5528143.1795291)
(0,0,0)
(0,0,0)
(0,0,0)
(0,0,0)
(0,0,0)
(0,0,0)
(13454883.5800394,91803.2606180306,35319.975679985)
(13446044.6408011,87956.4907699649,75963.0803268284)
(13425671.9754068,79731.825631684,128570.870147982)
(13387257.9729421,66008.2786599554,202839.228753829)
(13318262.4328353,45927.6319467698,313734.111920417)
(13195438.030287,20458.1255423184,484927.205843616)
(12972870.6994404,-3787.37285981904,756255.12775077)
(12541511.3386355,-14117.8456771595,1222390.96492373)
(11570398.7432616,-10561.2162072441,2254869.09122745)
(8921837.00670427,-4488.81492896604,5531174.89376979)
(0,0,0)
(0,0,0)
(0,0,0)
(0,0,0)
(0,0,0)
(0,0,0)
(13434520.5577899,152805.689241299,31436.1924355923)
(13425665.5578766,147660.901719163,67613.4312299677)
(13404909.8458756,136515.770581169,114743.249103985)
(13364827.6405216,117471.408639947,182642.443643485)
(13291066.972605,88204.2104942738,288256.607819259)
(13158207.368778,48113.8802368919,460596.085781309)
(12922956.0168241,5594.97586038298,745812.671523682)
(12495738.0424303,-12460.0734839726,1225847.36193199)
(11543806.0208365,-5927.30793441188,2260787.81828814)
(8910801.97384811,-225.058630658977,5535553.04168578)
(0,0,0)
(0,0,0)
(0,0,0)
(0,0,0)
(0,0,0)
(0,0,0)
(13397234.733569,233903.873563343,26272.1622876651)
(13388369.7130478,228293.292645637,56353.9267529503)
(13367093.8940654,216032.941430103,95598.6008141828)
(13324395.1269305,194876.819441669,153325.217845854)
(13241874.5470114,161304.80912375,248185.041900611)
(13086294.2166406,112018.654121357,418012.623839012)
(12811973.3344605,52244.9186943715,727628.038666437)
(12391437.2106886,23064.5105805402,1232237.50088933)
(11489979.9026048,25390.8861751017,2266351.00378183)
(8890128.96446494,17937.7365915934,5535689.96594024)
(0,0,0)
(0,0,0)
(0,0,0)
(0,0,0)
(0,0,0)
(0,0,0)
(13331475.7592975,346190.986003404,20686.1822084947)
(13322833.5260488,340986.076992276,44113.2678294192)
(13301466.6024522,329730.503326482,74419.3847009549)
(13256551.0833298,310748.39350064,119732.8871478)
(13163967.3337207,281620.330730623,198890.183749245)
(12974292.0399603,240871.055603145,358171.049045736)
(12612314.9289339,192818.31248539,698373.209105533)
(12197929.9756861,150745.740341689,1234474.33121143)
(11405567.3985296,110267.123717142,2258787.57184145)
(8859382.68168738,59633.330929039,5517711.31944156)
(0,0,0)
(0,0,0)
(0,0,0)
(0,0,0)
(0,0,0)
(0,0,0)
(13214474.6656414,508171.500790406,15507.9065789104)
(13206459.5757678,503864.732788033,32943.5450290238)
(13186114.3967283,494770.837759892,55520.7322679)
(13142008.9346066,479833.050222234,90688.8439687296)
(13048361.0862328,457153.331750142,158198.18803285)
(12853289.7997144,424186.430446524,310083.066688064)
(12486732.1470996,378573.524429518,656226.344162971)
(12090629.3991664,320179.927332904,1193909.93914237)
(11333567.0578995,233231.156864928,2208048.38643207)
(8824061.40514466,123367.908406797,5458039.41263587)
(0,0,0)
(0,0,0)
(0,0,0)
(0,0,0)
(0,0,0)
(0,0,0)
(12997579.8003396,758278.322171586,11285.5165178096)
(12990587.7181959,754986.340359344,23953.5681419016)
(12972565.2493109,748181.171448864,40644.4015160635)
(12932525.4928326,737416.368482527,68096.1204149771)
(12845210.9003413,721345.034749226,125302.061291685)
(12658687.7706626,696271.444923547,264449.888996254)
(12303142.090132,652584.709079027,597786.608354362)
(11945630.8087818,575050.010434059,1106925.69373617)
(11226882.2274184,420045.679527642,2098149.48419618)
(8763744.11386115,224585.961861836,5334689.68840592)
(0,0,0)
(0,0,0)
(0,0,0)
(0,0,0)
(0,0,0)
(0,0,0)
(12564108.6747469,1201937.48565551,8022.69297032258)
(12558582.7221086,1199331.28706829,17210.0017952763)
(12544211.0520205,1193940.47555253,29901.9350218578)
(12511861.4110427,1185622.92844679,52067.819274689)
(12439910.0346116,1173546.67159751,100308.599689721)
(12281669.5279197,1154033.71743152,220840.511702719)
(11970461.652343,1109112.29078408,520280.954372595)
(11737244.8047885,969952.751157411,951939.001292726)
(11011694.0224855,743094.91400019,1902716.92373393)
(8624186.10443223,425084.495618968,5110160.49492112)
(0,0,0)
(0,0,0)
(0,0,0)
(0,0,0)
(0,0,0)
(0,0,0)
(11584230.4238895,2220879.20943256,5348.95108708728)
(11580488.4139321,2218386.92746603,11811.4691565269)
(11570881.25118,2212906.08075455,21540.7988972497)
(11549752.4986394,2203303.36890776,39962.9997913351)
(11504708.4186241,2186168.62617743,80811.9824725559)
(11413055.2131196,2151971.05247305,175963.885458301)
(11247803.7688176,2074846.5608575,381147.091429314)
(11015588.8754521,1899199.32979579,725126.855334877)
(10360000.3705459,1588769.54956865,1584821.58834549)
(8199823.8316735,1035913.31914363,4685328.81711737)
(0,0,0)
(0,0,0)
(0,0,0)
(0,0,0)
(0,0,0)
(0,0,0)
(8927654.39805626,5491819.11531218,2748.26169619674)
(8925783.30555097,5489199.27342889,6223.72041593013)
(8921079.29613842,5483152.3326493,11778.6966148522)
(8910934.16802254,5471589.51822436,22703.4222556988)
(8889975.5684063,5449040.32462486,46587.8899012611)
(8848784.72513667,5402519.07723743,98918.2111750172)
(8772496.30955724,5303562.49709393,205608.906492083)
(8626377.3919235,5097788.87930047,414820.71062155)
(8200197.62679094,4682755.16550598,1032220.2138435)
(6667495.20354826,3650179.29188985,3649771.84532304)
(0,0,0)
(0,0,0)
(0,0,0)
(0,0,0)
(0,0,0)
(0,0,0)
(0,0,0)
(0,0,0)
(0,0,0)
(0,0,0)
(0,0,0)
(0,0,0)
(0,0,0)
(0,0,0)
(0,0,0)
(0,0,0)
(0,0,0)
(0,0,0)
(0,0,0)
(0,0,0)
(0,0,0)
(0,0,0)
(0,0,0)
(0,0,0)
(0,0,0)
(0,0,0)
(0,0,0)
(0,0,0)
(0,0,0)
(0,0,0)
(0,0,0)
(0,0,0)
(0,0,0)
(0,0,0)
(0,0,0)
(0,0,0)
(0,0,0)
(0,0,0)
(0,0,0)
(0,0,0)
(0,0,0)
(0,0,0)
(0,0,0)
(0,0,0)
(0,0,0)
(0,0,0)
(0,0,0)
(0,0,0)
(0,0,0)
(0,0,0)
(0,0,0)
(0,0,0)
(0,0,0)
(0,0,0)
(0,0,0)
(0,0,0)
(0,0,0)
(0,0,0)
(0,0,0)
(0,0,0)
(0,0,0)
(0,0,0)
(0,0,0)
(0,0,0)
(0,0,0)
(0,0,0)
(0,0,0)
(0,0,0)
(0,0,0)
(0,0,0)
(0,0,0)
(0,0,0)
(0,0,0)
(0,0,0)
(0,0,0)
(0,0,0)
(0,0,0)
(0,0,0)
(0,0,0)
(0,0,0)
(0,0,0)
(0,0,0)
(0,0,0)
(0,0,0)
(0,0,0)
(0,0,0)
(0,0,0)
(0,0,0)
(0,0,0)
(0,0,0)
(0,0,0)
(0,0,0)
(0,0,0)
(0,0,0)
(0,0,0)
(0,0,0)
(0,0,0)
(0,0,0)
(0,0,0)
(0,0,0)
(0,0,0)
(0,0,0)
(-233977.812629656,34079.9326582674,28635.849032004)
(-243677.288221687,32020.7877088426,60212.6890493537)
(-265610.676109311,27526.3068837652,98008.2633552776)
(-305519.258141256,19790.333861955,145709.546223114)
(-373803.080248072,8033.45272167633,206262.245632835)
(-487734.807300228,-7254.42182580955,276541.839220532)
(-674033.592539208,-21282.8220453677,327920.065863208)
(-968841.583627471,-24174.8046477431,243813.844120279)
(-1391521.40108208,-16624.6897154545,-402553.332831574)
(-1705859.26666592,-7599.65767173992,-3397926.47322762)
(0,0,0)
(0,0,0)
(0,0,0)
(0,0,0)
(0,0,0)
(0,0,0)
(-244301.868625822,71550.3740225383,26536.470689158)
(-253833.537340438,67654.7690744887,55602.1308532712)
(-275529.225795797,59013.6464694273,90137.455858482)
(-315445.435953335,43617.0694930493,133835.592510971)
(-384739.866197313,18751.3710473688,190941.436606086)
(-501727.750895898,-16766.6623432284,262440.921694607)
(-692360.977756646,-53737.2086374114,324948.448871864)
(-984291.813974233,-59936.1206111444,251334.380833176)
(-1399237.3751874,-37201.2487381367,-393631.478306671)
(-1708589.18201415,-15550.1644731387,-3390433.31939852)
(0,0,0)
(0,0,0)
(0,0,0)
(0,0,0)
(0,0,0)
(0,0,0)
(-267223.270920815,115510.45992433,22605.2061973036)
(-276437.811674716,110362.199816654,46822.6083946735)
(-297743.018807368,98709.7938379149,74600.7890972781)
(-338019.099979291,77047.8997538472,108838.162725519)
(-410866.188376278,38968.3450249653,155375.813117447)
(-539860.259920849,-23847.7055083078,225345.948369476)
(-753745.045551406,-105442.671807313,318573.937303126)
(-1037951.99423261,-116777.83750852,273927.154251567)
(-1422732.01033349,-59743.3475855567,-372171.252342599)
(-1716117.214135,-20904.9863503801,-3375075.77909402)
(0,0,0)
(0,0,0)
(0,0,0)
(0,0,0)
(0,0,0)
(0,0,0)
(-308103.416697979,168221.695514262,17448.3780653301)
(-316861.022205208,162800.898228117,35061.8782950914)
(-337587.851442073,150441.787768227,52833.0932604757)
(-378674.686705403,127053.551231153,70718.7188073266)
(-459574.067437785,83400.2952556848,92556.8464139148)
(-623877.841530343,31.3720555352484,143671.290409226)
(-944666.914315215,-147384.240415987,307074.571181774)
(-1213857.81654425,-170389.984885111,330803.209179365)
(-1481711.85223616,-58991.7179204528,-333435.202256523)
(-1732290.50981013,-12833.4501298097,-3354265.80081396)
(0,0,0)
(0,0,0)
(0,0,0)
(0,0,0)
(0,0,0)
(0,0,0)
(-376820.07506555,229300.026339365,12038.966926098)
(-384857.025083212,224662.593068055,22689.2866064774)
(-404411.428004511,214423.622958083,29406.9452614293)
(-445500.936815275,196271.65922269,27062.3208033049)
(-536005.729794432,166078.632415148,9178.51054709944)
(-767779.536907292,119928.757089736,-3825.83423134834)
(-1525389.46037602,67335.1012454725,283980.676805245)
(-1809338.02682907,43546.4061874689,442133.751635992)
(-1597478.53192531,38322.5641487909,-287313.136589944)
(-1758820.23826389,24321.7738808778,-3341443.977261)
(0,0,0)
(0,0,0)
(0,0,0)
(0,0,0)
(0,0,0)
(0,0,0)
(-490138.809733521,291282.596457563,7452.36864509337)
(-497146.00091479,288006.279639953,12535.7221440611)
(-514657.314190495,281233.750052981,11318.7693561765)
(-552888.500968535,270377.051482167,-3067.72393998434)
(-640904.600077506,254050.458184334,-36952.4000106409)
(-872098.637042036,229674.212917787,-56487.955693948)
(-1592894.05995545,195142.255057003,260152.560937617)
(-1853033.28795966,175288.14585944,436894.971779872)
(-1651637.21821625,126608.144230512,-301364.868798082)
(-1785453.30878783,63093.9177996239,-3365800.83539606)
(0,0,0)
(0,0,0)
(0,0,0)
(0,0,0)
(0,0,0)
(0,0,0)
(-675335.419110596,324754.460858751,4264.81843729548)
(-681114.497401388,322922.826468993,5871.95059372709)
(-695833.749458715,319792.655992815,533.506811673283)
(-729161.033349324,316728.630089501,-19310.082225455)
(-809970.528941001,316059.053777681,-61315.7851482683)
(-1036399.56492726,319357.4124893,-91090.1857416236)
(-1788391.36773698,320058.013832505,240348.97674027)
(-2028981.43402559,366799.241354668,388271.587440717)
(-1733563.00796495,204980.832158791,-364834.401715813)
(-1829425.9558135,85097.7245682633,-3428846.67542166)
(0,0,0)
(0,0,0)
(0,0,0)
(0,0,0)
(0,0,0)
(0,0,0)
(-970888.683407509,222081.248026943,2492.03437434603)
(-975255.894227473,221261.625491655,2813.31507601415)
(-986506.01365237,220639.802705973,-2495.302576084)
(-1012653.33286613,223506.054644912,-19936.5198343574)
(-1079543.72622503,238378.351790973,-57980.593622657)
(-1287319.00885764,285534.807327959,-90347.9882958078)
(-2108717.00790817,386594.348759679,287115.800416477)
(-1718925.69821938,248428.335713577,226478.672453804)
(-1798903.06832511,91511.0156272711,-484632.956815691)
(-1897469.85928351,761.019422835674,-3513818.82456627)
(0,0,0)
(0,0,0)
(0,0,0)
(0,0,0)
(0,0,0)
(0,0,0)
(-1394909.8812676,-435587.767519456,1630.78409168243)
(-1397767.30247433,-436223.357144188,2192.94652229134)
(-1404984.17479847,-436821.96488735,341.603482288239)
(-1421040.88380867,-435425.49427895,-5112.00175744407)
(-1457919.24429425,-428440.569886093,-10843.9537736862)
(-1546052.93715146,-412141.934626105,10762.4018395133)
(-1738713.27182513,-400300.345203038,148995.599833073)
(-1801928.85742552,-489874.858102895,69637.9899153025)
(-1967846.71532859,-570969.553288408,-575212.891906338)
(-1999098.63285318,-496416.825590344,-3514291.11897819)
(0,0,0)
(0,0,0)
(0,0,0)
(0,0,0)
(0,0,0)
(0,0,0)
(-1708498.87491048,-3435516.69772208,903.666557639366)
(-1709896.79144241,-3436318.32353835,1500.19333339405)
(-1713346.80980516,-3437661.75894131,1587.5567192212)
(-1720765.86799209,-3439049.93977806,1733.50162105829)
(-1736638.59703261,-3440649.48872633,5378.04928839258)
(-1769837.31204746,-3445960.42923259,22640.0444671426)
(-1831188.47444762,-3468661.09984526,59507.0465024925)
(-1899493.64302292,-3528340.2542986,-11335.0589672984)
(-1999660.69833951,-3517217.71462638,-500407.109110747)
(-1929801.87107997,-3017163.37091614,-3017542.02576854)
(0,0,0)
(0,0,0)
(0,0,0)
(0,0,0)
(0,0,0)
(0,0,0)
(0,0,0)
(0,0,0)
(0,0,0)
(0,0,0)
(0,0,0)
(0,0,0)
(0,0,0)
(0,0,0)
(0,0,0)
(0,0,0)
(0,0,0)
(0,0,0)
(0,0,0)
(0,0,0)
(0,0,0)
(0,0,0)
(0,0,0)
(0,0,0)
(0,0,0)
(0,0,0)
(0,0,0)
(0,0,0)
(0,0,0)
(0,0,0)
(0,0,0)
(0,0,0)
(0,0,0)
(0,0,0)
(0,0,0)
(0,0,0)
(0,0,0)
(0,0,0)
(0,0,0)
(0,0,0)
(0,0,0)
(0,0,0)
(0,0,0)
(0,0,0)
(0,0,0)
(0,0,0)
(0,0,0)
(0,0,0)
(0,0,0)
(0,0,0)
(0,0,0)
(0,0,0)
(0,0,0)
(0,0,0)
(0,0,0)
(0,0,0)
(0,0,0)
(0,0,0)
(0,0,0)
(0,0,0)
(0,0,0)
(0,0,0)
(0,0,0)
(0,0,0)
(0,0,0)
(0,0,0)
(0,0,0)
(0,0,0)
(0,0,0)
(0,0,0)
(0,0,0)
(0,0,0)
(0,0,0)
(0,0,0)
(0,0,0)
(0,0,0)
(0,0,0)
(0,0,0)
(0,0,0)
(0,0,0)
(0,0,0)
(0,0,0)
(0,0,0)
(0,0,0)
(0,0,0)
(0,0,0)
(0,0,0)
(0,0,0)
(0,0,0)
(0,0,0)
(0,0,0)
(0,0,0)
(0,0,0)
(0,0,0)
(0,0,0)
(0,0,0)
(0,0,0)
(0,0,0)
(0,0,0)
(0,0,0)
(0,0,0)
(0,0,0)
(-276783.747776221,23867.9829906507,18937.9521559158)
(-285019.019993763,21974.9655365576,38304.7183914353)
(-303133.654954234,17673.483017103,58154.2142192566)
(-334739.558353678,9873.42424030715,77501.0901913726)
(-385833.380490039,-2920.54158388963,92451.9320172303)
(-464390.568595531,-21265.464038994,90373.1573515237)
(-577238.862589877,-39639.7560407882,33218.1834429808)
(-717134.102797488,-39691.3873540003,-178797.910032998)
(-829027.533121125,-24412.7509855899,-716879.027008325)
(-720425.643234164,-10358.7947648974,-1691953.85567514)
(0,0,0)
(0,0,0)
(0,0,0)
(0,0,0)
(0,0,0)
(0,0,0)
(-286147.79463265,48715.2123894284,16998.6966080453)
(-293913.813081753,45141.611857123,33912.3260287979)
(-311028.341664527,36851.47923226,50233.4456823724)
(-340960.285055518,21037.2330318053,64584.4859930534)
(-389693.998204994,-7416.51304543866,74034.5894622785)
(-465936.058893017,-54924.9167756251,71902.3501960336)
(-578026.447004324,-115161.19869376,33089.2620966881)
(-713666.992448796,-113678.642724994,-163548.304057756)
(-823478.628311356,-60784.1333971089,-702935.668522252)
(-717030.765572268,-23122.1771373222,-1681730.7025918)
(0,0,0)
(0,0,0)
(0,0,0)
(0,0,0)
(0,0,0)
(0,0,0)
(-306584.643697996,74688.1594469298,13388.4257196818)
(-313456.29525845,70017.779391403,25530.7417691348)
(-328599.635420526,58926.4191968284,34312.4184177231)
(-355075.493760095,36403.6163336895,36002.4288966397)
(-398903.598510049,-9795.7442183006,26419.070203272)
(-471980.184568616,-107904.121429097,11518.1995044948)
(-595421.189963298,-296377.146933022,34410.2921556443)
(-713725.474571767,-292720.574900326,-110774.295329879)
(-810046.188293292,-118774.076209159,-665470.174558031)
(-708761.104013771,-37108.46986812,-1658839.99194851)
(0,0,0)
(0,0,0)
(0,0,0)
(0,0,0)
(0,0,0)
(0,0,0)
(-341741.166438898,99598.6130310981,8727.29615676021)
(-347376.094021538,94859.7667333219,14400.3806311775)
(-359620.316084215,83620.4541451729,11738.8103249788)
(-380496.343005762,60197.8056831351,-10233.7227241039)
(-414805.94562813,6964.22349861182,-71761.8122506708)
(-482621.901465149,-143832.397769016,-177089.475975955)
(-727995.939987828,-728049.232617089,37911.6353807307)
(-765888.246408383,-765834.150144506,63055.6404890194)
(-778780.318253334,-174763.112493054,-583886.857209901)
(-692038.830430828,-39390.7252420149,-1621856.2812154)
(0,0,0)
(0,0,0)
(0,0,0)
(0,0,0)
(0,0,0)
(0,0,0)
(-397368.353704548,116123.43524781,4023.45642228217)
(-401556.480990946,112422.614635009,3160.06442833336)
(-410126.984492819,104194.250953537,-11698.1758917174)
(-422434.590856122,88913.5906393201,-63480.3068070522)
(-431135.597799658,61249.1155848215,-222635.330888038)
(-388496.944267828,15714.419998989,-761464.741295505)
(8.46410201054478e-05,2.36724387229242e-05,-5.53078471540484e-05)