/*--------------------------------*- C++ -*----------------------------------*\
| =========                 |                                                 |
| \\      /  F ield         | foam-extend: Open Source CFD                    |
|  \\    /   O peration     | Version:     4.0                                |
|   \\  /    A nd           | Web:         http://www.foam-extend.org         |
|    \\/     M anipulation  |                                                 |
\*---------------------------------------------------------------------------*/
FoamFile
{
    version 2.0;
    format ascii;
    class volVectorField;
    location "Data/3636";
    object      E;
}
// * * * * * * * * * * * * * * * * * * * * * * * * * * * * * * * * * * * * * //

dimensions      [0 1 -1 0 0 0 0];

internalField   nonuniform List<vector>
4096
(
(0,0,0)
(0,0,0)
(0,0,0)
(0,0,0)
(0,0,0)
(0,0,0)
(0,0,0)
(0,0,0)
(0,0,0)
(0,0,0)
(0,0,0)
(0,0,0)
(0,0,0)
(0,0,0)
(0,0,0)
(0,0,0)
(0,0,0)
(0,0,0)
(0,0,0)
(0,0,0)
(0,0,0)
(0,0,0)
(0,0,0)
(0,0,0)
(0,0,0)
(0,0,0)
(0,0,0)
(0,0,0)
(0,0,0)
(0,0,0)
(0,0,0)
(0,0,0)
(0,0,0)
(0,0,0)
(0,0,0)
(0,0,0)
(0,0,0)
(0,0,0)
(0,0,0)
(0,0,0)
(0,0,0)
(0,0,0)
(0,0,0)
(0,0,0)
(0,0,0)
(0,0,0)
(0,0,0)
(0,0,0)
(0,0,0)
(0,0,0)
(0,0,0)
(0,0,0)
(0,0,0)
(0,0,0)
(0,0,0)
(0,0,0)
(0,0,0)
(0,0,0)
(0,0,0)
(0,0,0)
(0,0,0)
(0,0,0)
(0,0,0)
(0,0,0)
(0,0,0)
(0,0,0)
(0,0,0)
(0,0,0)
(0,0,0)
(0,0,0)
(0,0,0)
(0,0,0)
(0,0,0)
(0,0,0)
(0,0,0)
(0,0,0)
(0,0,0)
(0,0,0)
(0,0,0)
(0,0,0)
(0,0,0)
(0,0,0)
(0,0,0)
(0,0,0)
(0,0,0)
(0,0,0)
(0,0,0)
(0,0,0)
(0,0,0)
(0,0,0)
(0,0,0)
(0,0,0)
(0,0,0)
(0,0,0)
(0,0,0)
(0,0,0)
(0,0,0)
(0,0,0)
(0,0,0)
(0,0,0)
(0,0,0)
(0,0,0)
(0,0,0)
(0,0,0)
(0,0,0)
(0,0,0)
(0,0,0)
(0,0,0)
(0,0,0)
(0,0,0)
(0,0,0)
(0,0,0)
(0,0,0)
(0,0,0)
(0,0,0)
(0,0,0)
(0,0,0)
(0,0,0)
(0,0,0)
(0,0,0)
(0,0,0)
(0,0,0)
(0,0,0)
(0,0,0)
(0,0,0)
(0,0,0)
(0,0,0)
(0,0,0)
(0,0,0)
(0,0,0)
(0,0,0)
(0,0,0)
(0,0,0)
(0,0,0)
(0,0,0)
(0,0,0)
(0,0,0)
(0,0,0)
(0,0,0)
(0,0,0)
(0,0,0)
(0,0,0)
(0,0,0)
(0,0,0)
(0,0,0)
(0,0,0)
(0,0,0)
(0,0,0)
(0,0,0)
(0,0,0)
(0,0,0)
(0,0,0)
(0,0,0)
(0,0,0)
(0,0,0)
(0,0,0)
(0,0,0)
(0,0,0)
(0,0,0)
(0,0,0)
(0,0,0)
(0,0,0)
(0,0,0)
(0,0,0)
(0,0,0)
(0,0,0)
(0,0,0)
(0,0,0)
(0,0,0)
(0,0,0)
(0,0,0)
(0,0,0)
(0,0,0)
(0,0,0)
(0,0,0)
(0,0,0)
(0,0,0)
(0,0,0)
(0,0,0)
(0,0,0)
(0,0,0)
(0,0,0)
(0,0,0)
(0,0,0)
(0,0,0)
(0,0,0)
(0,0,0)
(0,0,0)
(0,0,0)
(0,0,0)
(0,0,0)
(0,0,0)
(0,0,0)
(0,0,0)
(0,0,0)
(0,0,0)
(0,0,0)
(0,0,0)
(0,0,0)
(0,0,0)
(0,0,0)
(0,0,0)
(0,0,0)
(0,0,0)
(0,0,0)
(0,0,0)
(0,0,0)
(0,0,0)
(0,0,0)
(0,0,0)
(0,0,0)
(0,0,0)
(0,0,0)
(0,0,0)
(0,0,0)
(0,0,0)
(0,0,0)
(0,0,0)
(0,0,0)
(0,0,0)
(0,0,0)
(0,0,0)
(0,0,0)
(0,0,0)
(0,0,0)
(0,0,0)
(0,0,0)
(0,0,0)
(0,0,0)
(0,0,0)
(0,0,0)
(0,0,0)
(0,0,0)
(0,0,0)
(0,0,0)
(0,0,0)
(0,0,0)
(0,0,0)
(0,0,0)
(0,0,0)
(0,0,0)
(0,0,0)
(0,0,0)
(0,0,0)
(0,0,0)
(0,0,0)
(0,0,0)
(0,0,0)
(0,0,0)
(0,0,0)
(0,0,0)
(0,0,0)
(0,0,0)
(0,0,0)
(0,0,0)
(0,0,0)
(0,0,0)
(0,0,0)
(0,0,0)
(0,0,0)
(0,0,0)
(0,0,0)
(0,0,0)
(0,0,0)
(0,0,0)
(0,0,0)
(0,0,0)
(0,0,0)
(0,0,0)
(0,0,0)
(0,0,0)
(0,0,0)
(0,0,0)
(0,0,0)
(0,0,0)
(0,0,0)
(0,0,0)
(0,0,0)
(0,0,0)
(0,0,0)
(0,0,0)
(0,0,0)
(0,0,0)
(0,0,0)
(0,0,0)
(0,0,0)
(0,0,0)
(0,0,0)
(0,0,0)
(0,0,0)
(0,0,0)
(0,0,0)
(0,0,0)
(0,0,0)
(0,0,0)
(0,0,0)
(0,0,0)
(0,0,0)
(0,0,0)
(0,0,0)
(0,0,0)
(0,0,0)
(0,0,0)
(0,0,0)
(0,0,0)
(0,0,0)
(0,0,0)
(0,0,0)
(0,0,0)
(0,0,0)
(0,0,0)
(0,0,0)
(0,0,0)
(0,0,0)
(0,0,0)
(0,0,0)
(0,0,0)
(0,0,0)
(0,0,0)
(0,0,0)
(0,0,0)
(0,0,0)
(0,0,0)
(0,0,0)
(0,0,0)
(0,0,0)
(0,0,0)
(0,0,0)
(0,0,0)
(0,0,0)
(0,0,0)
(0,0,0)
(0,0,0)
(0,0,0)
(0,0,0)
(0,0,0)
(0,0,0)
(0,0,0)
(0,0,0)
(0,0,0)
(0,0,0)
(0,0,0)
(0,0,0)
(0,0,0)
(0,0,0)
(0,0,0)
(0,0,0)
(0,0,0)
(0,0,0)
(0,0,0)
(0,0,0)
(0,0,0)
(0,0,0)
(0,0,0)
(0,0,0)
(0,0,0)
(0,0,0)
(0,0,0)
(0,0,0)
(0,0,0)
(0,0,0)
(0,0,0)
(0,0,0)
(0,0,0)
(0,0,0)
(0,0,0)
(0,0,0)
(0,0,0)
(0,0,0)
(0,0,0)
(0,0,0)
(0,0,0)
(0,0,0)
(0,0,0)
(0,0,0)
(0,0,0)
(0,0,0)
(0,0,0)
(0,0,0)
(0,0,0)
(0,0,0)
(0,0,0)
(0,0,0)
(0,0,0)
(0,0,0)
(0,0,0)
(0,0,0)
(0,0,0)
(0,0,0)
(0,0,0)
(0,0,0)
(0,0,0)
(0,0,0)
(0,0,0)
(0,0,0)
(0,0,0)
(0,0,0)
(0,0,0)
(0,0,0)
(0,0,0)
(0,0,0)
(0,0,0)
(0,0,0)
(0,0,0)
(0,0,0)
(0,0,0)
(0,0,0)
(0,0,0)
(0,0,0)
(0,0,0)
(0,0,0)
(0,0,0)
(0,0,0)
(0,0,0)
(0,0,0)
(0,0,0)
(0,0,0)
(0,0,0)
(0,0,0)
(0,0,0)
(0,0,0)
(0,0,0)
(0,0,0)
(0,0,0)
(0,0,0)
(0,0,0)
(0,0,0)
(0,0,0)
(0,0,0)
(0,0,0)
(0,0,0)
(0,0,0)
(0,0,0)
(0,0,0)
(0,0,0)
(0,0,0)
(0,0,0)
(0,0,0)
(0,0,0)
(0,0,0)
(0,0,0)
(0,0,0)
(0,0,0)
(0,0,0)
(0,0,0)
(0,0,0)
(0,0,0)
(0,0,0)
(0,0,0)
(0,0,0)
(0,0,0)
(0,0,0)
(0,0,0)
(0,0,0)
(0,0,0)
(0,0,0)
(0,0,0)
(0,0,0)
(0,0,0)
(0,0,0)
(0,0,0)
(0,0,0)
(0,0,0)
(0,0,0)
(0,0,0)
(0,0,0)
(0,0,0)
(0,0,0)
(0,0,0)
(0,0,0)
(0,0,0)
(0,0,0)
(0,0,0)
(0,0,0)
(0,0,0)
(0,0,0)
(0,0,0)
(0,0,0)
(0,0,0)
(0,0,0)
(0,0,0)
(0,0,0)
(0,0,0)
(0,0,0)
(0,0,0)
(0,0,0)
(0,0,0)
(0,0,0)
(0,0,0)
(0,0,0)
(0,0,0)
(0,0,0)
(0,0,0)
(0,0,0)
(0,0,0)
(0,0,0)
(0,0,0)
(0,0,0)
(0,0,0)
(0,0,0)
(0,0,0)
(0,0,0)
(0,0,0)
(0,0,0)
(0,0,0)
(0,0,0)
(0,0,0)
(0,0,0)
(0,0,0)
(0,0,0)
(0,0,0)
(0,0,0)
(0,0,0)
(0,0,0)
(0,0,0)
(0,0,0)
(0,0,0)
(0,0,0)
(0,0,0)
(0,0,0)
(0,0,0)
(0,0,0)
(0,0,0)
(0,0,0)
(0,0,0)
(0,0,0)
(0,0,0)
(0,0,0)
(0,0,0)
(0,0,0)
(0,0,0)
(0,0,0)
(0,0,0)
(0,0,0)
(0,0,0)
(0,0,0)
(0,0,0)
(0,0,0)
(0,0,0)
(0,0,0)
(0,0,0)
(0,0,0)
(0,0,0)
(0,0,0)
(0,0,0)
(0,0,0)
(0,0,0)
(0,0,0)
(0,0,0)
(0,0,0)
(0,0,0)
(0,0,0)
(0,0,0)
(0,0,0)
(0,0,0)
(0,0,0)
(0,0,0)
(0,0,0)
(0,0,0)
(0,0,0)
(0,0,0)
(0,0,0)
(0,0,0)
(0,0,0)
(0,0,0)
(0,0,0)
(0,0,0)
(0,0,0)
(0,0,0)
(0,0,0)
(0,0,0)
(0,0,0)
(0,0,0)
(0,0,0)
(0,0,0)
(0,0,0)
(0,0,0)
(0,0,0)
(0,0,0)
(0,0,0)
(0,0,0)
(0,0,0)
(0,0,0)
(0,0,0)
(0,0,0)
(0,0,0)
(0,0,0)
(0,0,0)
(0,0,0)
(0,0,0)
(0,0,0)
(0,0,0)
(0,0,0)
(0,0,0)
(0,0,0)
(0,0,0)
(0,0,0)
(0,0,0)
(0,0,0)
(0,0,0)
(0,0,0)
(0,0,0)
(0,0,0)
(0,0,0)
(0,0,0)
(0,0,0)
(0,0,0)
(0,0,0)
(0,0,0)
(0,0,0)
(0,0,0)
(0,0,0)
(0,0,0)
(0,0,0)
(0,0,0)
(0,0,0)
(0,0,0)
(0,0,0)
(0,0,0)
(0,0,0)
(0,0,0)
(0,0,0)
(0,0,0)
(0,0,0)
(0,0,0)
(0,0,0)
(0,0,0)
(0,0,0)
(0,0,0)
(0,0,0)
(0,0,0)
(0,0,0)
(0,0,0)
(0,0,0)
(0,0,0)
(0,0,0)
(0,0,0)
(0,0,0)
(0,0,0)
(0,0,0)
(0,0,0)
(0,0,0)
(0,0,0)
(0,0,0)
(0,0,0)
(0,0,0)
(0,0,0)
(0,0,0)
(0,0,0)
(0,0,0)
(0,0,0)
(0,0,0)
(0,0,0)
(0,0,0)
(0,0,0)
(0,0,0)
(0,0,0)
(0,0,0)
(0,0,0)
(0,0,0)
(0,0,0)
(0,0,0)
(0,0,0)
(0,0,0)
(0,0,0)
(0,0,0)
(0,0,0)
(0,0,0)
(0,0,0)
(0,0,0)
(0,0,0)
(0,0,0)
(0,0,0)
(0,0,0)
(0,0,0)
(0,0,0)
(0,0,0)
(0,0,0)
(0,0,0)
(0,0,0)
(0,0,0)
(0,0,0)
(0,0,0)
(0,0,0)
(0,0,0)
(0,0,0)
(0,0,0)
(0,0,0)
(0,0,0)
(0,0,0)
(0,0,0)
(0,0,0)
(0,0,0)
(0,0,0)
(0,0,0)
(0,0,0)
(0,0,0)
(0,0,0)
(0,0,0)
(0,0,0)
(0,0,0)
(0,0,0)
(0,0,0)
(0,0,0)
(0,0,0)
(0,0,0)
(0,0,0)
(0,0,0)
(0,0,0)
(0,0,0)
(0,0,0)
(0,0,0)
(0,0,0)
(0,0,0)
(0,0,0)
(0,0,0)
(0,0,0)
(0,0,0)
(0,0,0)
(0,0,0)
(0,0,0)
(0,0,0)
(0,0,0)
(0,0,0)
(0,0,0)
(0,0,0)
(0,0,0)
(0,0,0)
(0,0,0)
(0,0,0)
(0,0,0)
(0,0,0)
(0,0,0)
(0,0,0)
(0,0,0)
(0,0,0)
(0,0,0)
(0,0,0)
(0,0,0)
(0,0,0)
(0,0,0)
(0,0,0)
(0,0,0)
(0,0,0)
(0,0,0)
(0,0,0)
(0,0,0)
(0,0,0)
(0,0,0)
(0,0,0)
(0,0,0)
(0,0,0)
(0,0,0)
(0,0,0)
(0,0,0)
(0,0,0)
(0,0,0)
(0,0,0)
(0,0,0)
(0,0,0)
(0,0,0)
(0,0,0)
(0,0,0)
(0,0,0)
(0,0,0)
(0,0,0)
(0,0,0)
(0,0,0)
(0,0,0)
(0,0,0)
(0,0,0)
(0,0,0)
(0,0,0)
(0,0,0)
(0,0,0)
(0,0,0)
(0,0,0)
(0,0,0)
(0,0,0)
(0,0,0)
(0,0,0)
(0,0,0)
(0,0,0)
(0,0,0)
(0,0,0)
(0,0,0)
(0,0,0)
(0,0,0)
(0,0,0)
(0,0,0)
(0,0,0)
(0,0,0)
(0,0,0)
(0,0,0)
(0,0,0)
(0,0,0)
(0,0,0)
(0,0,0)
(0,0,0)
(0,0,0)
(0,0,0)
(0,0,0)
(0,0,0)
(0,0,0)
(0,0,0)
(0,0,0)
(0,0,0)
(0,0,0)
(0,0,0)
(0,0,0)
(0,0,0)
(0,0,0)
(0,0,0)
(0,0,0)
(0,0,0)
(0,0,0)
(0,0,0)
(0,0,0)
(0,0,0)
(-220876.081156812,117483.137263426,103392.943893386)
(-233573.707543803,112610.209569978,224356.441867209)
(-263016.217636623,102491.982250028,384880.6772538)
(-318664.39096224,86657.3944734084,616887.673742644)
(-419023.909997095,65262.5011313172,970649.082608419)
(-599127.754466569,40647.0824251944,1529129.7546498)
(-925221.654203297,18240.5865675281,2436110.82228559)
(-1514584.81282212,4477.69046057621,3946217.94464715)
(-2497998.90341708,-85.9079335888668,6444302.75599778)
(-3480425.70975084,-426.730265840373,9925155.19601452)
(0,0,0)
(0,0,0)
(0,0,0)
(0,0,0)
(0,0,0)
(0,0,0)
(-233531.802648245,252383.879306468,98631.0606052018)
(-246373.742492409,243250.011291774,214365.001375815)
(-276307.306040087,224042.542508278,369121.74715765)
(-333273.068579685,193435.482833608,595616.727377134)
(-436424.165284414,151123.362790874,946180.03100199)
(-620860.493283929,100799.401979624,1506888.20473148)
(-950551.857017995,53181.9069079522,2422498.74140904)
(-1537678.74325863,22984.4799009944,3941670.6952272)
(-2513396.28274254,11107.263108885,6443873.80692733)
(-3487611.2247111,5633.45177895017,9925424.84959354)
(0,0,0)
(0,0,0)
(0,0,0)
(0,0,0)
(0,0,0)
(0,0,0)
(-262608.449778401,425430.322272491,89562.0068123777)
(-275656.48160201,413211.372633483,195257.127072682)
(-306541.2186743,387209.670577572,338631.217677695)
(-366362.373027687,344961.322759898,553467.750779092)
(-476104.603409755,284694.386560807,896001.330418902)
(-671986.325535077,209416.103633426,1459370.95430018)
(-1013024.4503124,133186.506995687,2392390.80452486)
(-1595207.00759168,80789.2435330723,3929793.04848441)
(-2550462.06643206,53126.8231624336,6438235.55486295)
(-3504412.94525501,28778.9864611859,9919502.96543577)
(0,0,0)
(0,0,0)
(0,0,0)
(0,0,0)
(0,0,0)
(0,0,0)
(-316911.725607881,665035.341689552,77306.7061908203)
(-330186.043204663,651405.957890211,169298.164138756)
(-362256.069278862,622251.032188622,296512.871806561)
(-426175.695845879,574275.555746162,493374.334666166)
(-546756.604376791,503969.86141634,820855.464187439)
(-764600.502749326,411611.713172217,1383260.35739797)
(-1132726.21357495,309019.424585478,2340153.65338311)
(-1706535.48359723,225223.897101321,3902254.48341208)
(-2618374.0288373,159940.133084008,6413815.20232773)
(-3534050.59145556,86058.7852196653,9890585.99502503)
(0,0,0)
(0,0,0)
(0,0,0)
(0,0,0)
(0,0,0)
(0,0,0)
(-414250.805443232,1015605.2183585,63680.9287742793)
(-427490.309568777,1002351.13845057,140226.057782696)
(-460183.772982894,974001.356510712,248659.5064435)
(-527541.269664769,927241.876840009,423234.455014425)
(-659325.414773813,857942.000375372,728587.7308292)
(-904360.333903273,763779.311182239,1280780.46672244)
(-1315064.44499904,648360.249255244,2256504.08705172)
(-1876090.9783857,520725.285014643,3837093.67752412)
(-2717103.05092599,374251.146284827,6339885.7152494)
(-3576887.02844797,198367.702848529,9804463.8260685)
(0,0,0)
(0,0,0)
(0,0,0)
(0,0,0)
(0,0,0)
(0,0,0)
(-589932.724509051,1555113.07736654,50424.8655010163)
(-602506.484010408,1543362.40658151,111920.08138048)
(-634132.907844218,1518092.24552204,201962.100213374)
(-700821.101633132,1476000.38912522,354024.68956129)
(-833981.373126361,1411493.12904128,634454.934021764)
(-1083658.48557092,1316506.83893516,1165385.89183977)
(-1495614.61621257,1180480.09402896,2128880.66327862)
(-2031215.1130946,990189.324731375,3690631.73665652)
(-2824059.44357031,725017.449617321,6163924.87689436)
(-3630795.58461443,387050.910184874,9606037.2541724)
(0,0,0)
(0,0,0)
(0,0,0)
(0,0,0)
(0,0,0)
(0,0,0)
(-912390.008914673,2428924.06226297,38579.0240182432)
(-923541.256854997,2418815.88799749,86666.7994572788)
(-951931.051914796,2396786.12485591,159903.972038208)
(-1012823.34480678,2359186.35624324,289541.34972696)
(-1136504.95221576,2298062.09470693,539477.336277065)
(-1371088.76654243,2197705.15345118,1029367.78830348)
(-1757699.08938512,2028963.03081897,1938583.9408986)
(-2244737.65192542,1748121.00209423,3425389.91546115)
(-2983399.59488311,1307990.98933678,5825815.9706248)
(-3718693.22448444,712701.553188408,9218858.55210578)
(0,0,0)
(0,0,0)
(0,0,0)
(0,0,0)
(0,0,0)
(0,0,0)
(-1502051.33017714,3902689.01781129,28286.3746288031)
(-1510971.95738071,3893471.71452394,64602.5054830644)
(-1533840.96679701,3873001.89170252,122227.705433468)
(-1583376.23217203,3836426.54019103,228363.753657683)
(-1685043.1803727,3772430.59538562,439038.433351683)
(-1880035.76503356,3656266.32972264,860513.022113762)
(-2203781.96800705,3435592.31938616,1657665.70155358)
(-2598080.20893467,3018733.86781054,2985133.04477198)
(-3272656.35439951,2335483.11809198,5230297.27041628)
(-3886755.71558079,1323844.99001316,8505909.54917227)
(0,0,0)
(0,0,0)
(0,0,0)
(0,0,0)
(0,0,0)
(0,0,0)
(-2489416.72365659,6373167.01544262,18938.7260252647)
(-2495518.53002903,6363884.18160848,44044.7889697401)
(-2511066.38348812,6342601.96733846,85511.0968218724)
(-2544390.91830899,6302058.29073674,164270.264585144)
(-2611552.02865594,6225560.74563328,322692.142993444)
(-2737719.55072268,6077099.51232299,639578.5111158)
(-2949642.40752694,5784271.49109028,1240541.74693863)
(-3264576.50606668,5222210.20003407,2301641.92078181)
(-3806199.99116007,4224921.67602465,4218403.35400909)
(-4179920.84175373,2540309.27486687,7181859.91090912)
(0,0,0)
(0,0,0)
(0,0,0)
(0,0,0)
(0,0,0)
(0,0,0)
(-3476470.41030068,9840006.50933104,9630.91641224394)
(-3479543.13023351,9830355.93557855,22702.2926756488)
(-3487283.06077614,9807715.05931686,44872.2614733973)
(-3503643.35971837,9762909.02363302,87664.8882955304)
(-3536156.67808862,9675356.36633453,174025.945682931)
(-3596922.68781571,9501602.16398256,346445.981839004)
(-3702986.59084137,9155601.67017933,678102.393591304)
(-3881724.70722374,8478025.95722941,1304011.34361967)
(-4178940.59722958,7174388.01040647,2533485.60646734)
(-4208610.2612559,4641107.98185072,4641297.16073944)
(0,0,0)
(0,0,0)
(0,0,0)
(0,0,0)
(0,0,0)
(0,0,0)
(0,0,0)
(0,0,0)
(0,0,0)
(0,0,0)
(0,0,0)
(0,0,0)
(0,0,0)
(0,0,0)
(0,0,0)
(0,0,0)
(0,0,0)
(0,0,0)
(0,0,0)
(0,0,0)
(0,0,0)
(0,0,0)
(0,0,0)
(0,0,0)
(0,0,0)
(0,0,0)
(0,0,0)
(0,0,0)
(0,0,0)
(0,0,0)
(0,0,0)
(0,0,0)
(0,0,0)
(0,0,0)
(0,0,0)
(0,0,0)
(0,0,0)
(0,0,0)
(0,0,0)
(0,0,0)
(0,0,0)
(0,0,0)
(0,0,0)
(0,0,0)
(0,0,0)
(0,0,0)
(0,0,0)
(0,0,0)
(0,0,0)
(0,0,0)
(0,0,0)
(0,0,0)
(0,0,0)
(0,0,0)
(0,0,0)
(0,0,0)
(0,0,0)
(0,0,0)
(0,0,0)
(0,0,0)
(0,0,0)
(0,0,0)
(0,0,0)
(0,0,0)
(0,0,0)
(0,0,0)
(0,0,0)
(0,0,0)
(0,0,0)
(0,0,0)
(0,0,0)
(0,0,0)
(0,0,0)
(0,0,0)
(0,0,0)
(0,0,0)
(0,0,0)
(0,0,0)
(0,0,0)
(0,0,0)
(0,0,0)
(0,0,0)
(0,0,0)
(0,0,0)
(0,0,0)
(0,0,0)
(0,0,0)
(0,0,0)
(0,0,0)
(0,0,0)
(0,0,0)
(0,0,0)
(0,0,0)
(0,0,0)
(0,0,0)
(0,0,0)
(0,0,0)
(0,0,0)
(0,0,0)
(0,0,0)
(0,0,0)
(0,0,0)
(32639739.2547202,104666.15639165,90658.0791414228)
(32618414.908444,99698.516134075,194910.518429777)
(32569440.1950173,89133.6005537918,329260.07663205)
(32477974.9609419,72004.6950346359,516555.601103266)
(32315126.723433,47846.9678688609,790497.57121441)
(32025472.9751809,18906.9690582774,1202929.44391864)
(31494100.808225,-7080.06626818765,1846626.61916848)
(30443970.1554466,-18579.8368909376,2962591.05920075)
(28074488.7091669,-15447.4157710812,5461490.43379793)
(21639589.1347629,-7609.04213343522,13405024.2028279)
(0,0,0)
(0,0,0)
(0,0,0)
(0,0,0)
(0,0,0)
(0,0,0)
(32618108.8442914,223210.622405892,85754.4584562095)
(32596730.3422702,213856.686408908,184431.774828865)
(32547287.4203687,193717.165353112,312193.055030889)
(32454081.9943675,160285.27936702,492496.979161455)
(32286762.1837888,111408.161604011,761689.007763217)
(31988961.2145226,49643.0644649277,1177070.77596016)
(31449442.4946109,-9305.59898695479,1835241.52846026)
(30403685.1545371,-34521.4212820507,2965758.78646566)
(28049457.1967948,-25902.2232795554,5469299.68584665)
(21628640.1141881,-11128.5338770726,13412507.4101009)
(0,0,0)
(0,0,0)
(0,0,0)
(0,0,0)
(0,0,0)
(0,0,0)
(32568939.020036,371121.04502216,76481.6789793157)
(32547537.4021474,358681.108807824,164402.944241042)
(32497138.3652802,331494.205053132,278885.891996672)
(32399836.4469756,285134.49658577,443777.426184857)
(32220901.4354726,214023.585861028,700095.534455617)
(31898666.2382659,116791.992347703,1118233.61418209)
(31328245.3225699,13502.3675741834,1810095.44614877)
(30292442.4327044,-30512.1443142049,2974376.30029497)
(27984748.4725624,-14749.70666057,5483952.81609142)
(21601791.5748142,-826.380391395894,13423385.7139466)
(0,0,0)
(0,0,0)
(0,0,0)
(0,0,0)
(0,0,0)
(0,0,0)
(32478412.454338,567707.853560968,64028.5829253838)
(32457039.9229013,554140.87732086,137282.419716441)
(32405438.8946848,524367.346883094,232653.885332811)
(32301791.6429952,472954.089826929,372806.524660632)
(32101542.6083039,391455.726773846,603014.742477317)
(31724139.3617648,271910.537108143,1015095.90461285)
(31058831.8704203,126746.353890477,1766233.40571141)
(30039145.0204596,55746.0573333125,2990234.27141724)
(27853960.3942097,61276.9460026159,5497812.76711702)
(21551542.7379307,43247.3099972739,13424085.3187523)
(0,0,0)
(0,0,0)
(0,0,0)
(0,0,0)
(0,0,0)
(0,0,0)
(32319001.016532,839935.572148554,50460.0308472673)
(32298116.199639,827341.457803081,107592.512567216)
(32246288.1849203,800074.953205307,181352.519752069)
(32137246.03209,754008.949392413,291449.929841821)
(31912586.1129709,683342.118655943,483591.581625198)
(31452466.6945178,584527.566574015,870087.095148397)
(30574452.841187,467858.287900729,1695397.44636221)
(29569434.8027145,365659.283453688,2995898.01055178)
(27648902.4627306,267346.165249514,5479762.84905823)
(21476787.0134874,144490.06987236,13380785.6186578)
(0,0,0)
(0,0,0)
(0,0,0)
(0,0,0)
(0,0,0)
(0,0,0)
(32035470.6699881,1232619.0067242,37852.7423371606)
(32015999.6325814,1222296.14015318,80331.5148053262)
(31966625.399342,1200289.56876796,135298.163466555)
(31859587.9974617,1163991.95086114,220845.634313265)
(31632348.7268859,1108983.28140613,384813.94296086)
(31159077.158822,1029095.58179966,753449.854752378)
(30269971.6423042,918432.69646813,1593228.75907844)
(29309264.1407245,776710.158980116,2897638.20114296)
(27474315.789861,565680.529977968,5356868.17439341)
(21391118.5110885,299128.88158608,13236254.8383868)
(0,0,0)
(0,0,0)
(0,0,0)
(0,0,0)
(0,0,0)
(0,0,0)
(31509591.1022434,1839141.08732514,27436.3796509925)
(31492612.7311438,1831238.05022515,58280.0529903012)
(31448862.9313825,1814740.99941393,98974.2104572311)
(31351746.9753516,1788517.45904108,165817.953528962)
(31139898.2134512,1749459.46282101,304878.177857262)
(30687377.3658877,1688709.94008082,642737.258555965)
(29825104.8600888,1582824.03897003,1451481.53799015)
(28958089.664365,1394730.29776528,2686573.65432469)
(27215905.9204798,1018670.17148255,5090218.06886713)
(21245034.5730934,544562.412753759,12936996.3115318)
(0,0,0)
(0,0,0)
(0,0,0)
(0,0,0)
(0,0,0)
(0,0,0)
(30458525.9415101,2915126.87341163,19376.5136363541)
(30445138.2459224,2908721.81951454,41722.1124538585)
(30410301.8497471,2895580.33084389,72679.5358898847)
(30331856.7092934,2875202.36096568,126701.263909895)
(30157310.5221183,2845731.77716154,244014.818488442)
(29773502.3370703,2798407.57346824,536718.654407367)
(29018878.3836673,2689544.24105627,1263277.6720569)
(28453414.056454,2352062.84972403,2310390.42611943)
(26694622.5922747,1801797.68517313,4615923.53716474)
(20906924.4295985,1030573.19745749,12392172.1786918)
(0,0,0)
(0,0,0)
(0,0,0)
(0,0,0)
(0,0,0)
(0,0,0)
(28082927.5143428,5385850.78846494,12871.418357489)
(28073906.8538404,5379601.41240853,28506.0130041412)
(28050628.1902297,5366131.19778351,52200.1437567879)
(27999323.1319778,5342511.16692332,97116.8589223316)
(27890106.1341177,5300645.70069337,196484.344026909)
(27667900.3782279,5217597.90854276,427613.65141202)
(27267287.4759448,5030629.43297596,925538.147430806)
(26704276.6036845,4604777.82750024,1759909.63131354)
(25115019.9881026,3851946.25740507,3844480.65122907)
(19878279.6301794,2511447.25219954,11361345.6959639)
(0,0,0)
(0,0,0)
(0,0,0)
(0,0,0)
(0,0,0)
(0,0,0)
(21642652.0706056,13316068.5718185,6599.30715016863)
(21638168.7783368,13309445.2738002,14983.1085980612)
(21626739.7594479,13294518.5601746,28512.4973929985)
(21602106.2637677,13266062.3690914,55151.2431491679)
(21551339.3472588,13211000.6435276,113239.846377629)
(21451491.9477317,13097993.3865618,240369.304221401)
(21266576.1274483,12858055.4075072,499320.18281058)
(20912321.9001027,12359251.6158976,1006739.35849711)
(19879109.8593548,11352876.6497918,2503698.08093617)
(16163466.4085248,8849392.9703535,8849615.26441164)
(0,0,0)
(0,0,0)
(0,0,0)
(0,0,0)
(0,0,0)
(0,0,0)
(0,0,0)
(0,0,0)
(0,0,0)
(0,0,0)
(0,0,0)
(0,0,0)
(0,0,0)
(0,0,0)
(0,0,0)
(0,0,0)
(0,0,0)
(0,0,0)
(0,0,0)
(0,0,0)
(0,0,0)
(0,0,0)
(0,0,0)
(0,0,0)
(0,0,0)
(0,0,0)
(0,0,0)
(0,0,0)
(0,0,0)
(0,0,0)
(0,0,0)
(0,0,0)
(0,0,0)
(0,0,0)
(0,0,0)
(0,0,0)
(0,0,0)
(0,0,0)
(0,0,0)
(0,0,0)
(0,0,0)
(0,0,0)
(0,0,0)
(0,0,0)
(0,0,0)
(0,0,0)
(0,0,0)
(0,0,0)
(0,0,0)
(0,0,0)
(0,0,0)
(0,0,0)
(0,0,0)
(0,0,0)
(0,0,0)
(0,0,0)
(0,0,0)
(0,0,0)
(0,0,0)
(0,0,0)
(0,0,0)
(0,0,0)
(0,0,0)
(0,0,0)
(0,0,0)
(0,0,0)
(0,0,0)
(0,0,0)
(0,0,0)
(0,0,0)
(0,0,0)
(0,0,0)
(0,0,0)
(0,0,0)
(0,0,0)
(0,0,0)
(0,0,0)
(0,0,0)
(0,0,0)
(0,0,0)
(0,0,0)
(0,0,0)
(0,0,0)
(0,0,0)
(0,0,0)
(0,0,0)
(0,0,0)
(0,0,0)
(0,0,0)
(0,0,0)
(0,0,0)
(0,0,0)
(0,0,0)
(0,0,0)
(0,0,0)
(0,0,0)
(0,0,0)
(0,0,0)
(0,0,0)
(0,0,0)
(0,0,0)
(0,0,0)
(-568485.323546457,82882.5446523399,69402.462204232)
(-592027.341954837,77908.4818034211,145996.659389415)
(-645195.74454489,66900.1764664043,237792.851075216)
(-741893.408868387,48049.2458523723,353672.403623131)
(-907368.777124329,19479.8510466602,500748.48172371)
(-1183478.33454913,-17586.7271356059,671346.947179358)
(-1635008.25795509,-51709.6918515659,796226.133801026)
(-2349577.34874007,-58845.5890879259,592679.655665571)
(-3374163.6006619,-40476.3406258774,-974131.265289815)
(-4136087.87894695,-18542.3676473683,-8235851.45534262)
(0,0,0)
(0,0,0)
(0,0,0)
(0,0,0)
(0,0,0)
(0,0,0)
(-593273.498556879,173900.315519945,64425.0005705761)
(-616427.689286246,164494.815453213,135057.12706713)
(-669079.655247531,143388.993758875,218995.813980759)
(-765873.71320692,105913.642123887,325147.553873533)
(-933858.65561604,45513.5395563042,463795.133358622)
(-1217463.93816449,-40646.7394235258,637340.726923502)
(-1679581.58461967,-130483.534904474,789199.077796777)
(-2387252.09773642,-145751.613959365,611102.783531692)
(-3393053.81796745,-90580.4320444299,-952221.681697341)
(-4142756.53060653,-37935.1121664242,-8217371.86379357)
(0,0,0)
(0,0,0)
(0,0,0)
(0,0,0)
(0,0,0)
(0,0,0)
(-648716.022456261,280557.324306713,55058.4622955095)
(-671051.778524295,268161.402676631,114041.484333732)
(-722747.847035305,239770.061258324,181607.057739634)
(-820488.647390111,187080.545471051,264825.67734797)
(-997171.722036977,94673.6339133471,377799.169090363)
(-1310011.66314102,-57744.2827841085,547635.04244764)
(-1828665.33465689,-255901.384049136,774023.977408969)
(-2517751.02424527,-283782.905553397,666309.154542563)
(-3450330.30682736,-145486.553213906,-899645.516308098)
(-4161122.42095569,-51021.2890825482,-8179584.91503218)
(0,0,0)
(0,0,0)
(0,0,0)
(0,0,0)
(0,0,0)
(0,0,0)
(-747894.770234418,408295.69766842,42629.2798006315)
(-769045.825549636,395244.178443319,85692.6810748231)
(-819266.48015199,365228.965452562,128999.580307376)
(-918994.243066072,308421.089330509,172505.351099131)
(-1115338.63945861,202549.351432978,225571.309931824)
(-1513914.97296181,266.227147835239,349675.563316416)
(-2292015.5012643,-357620.353519312,746302.333061061)
(-2945056.6938767,-413913.638476733,804695.208910538)
(-3593881.37377774,-143689.126641407,-805200.021084466)
(-4200540.53886268,-31456.2416609321,-8128621.36312286)
(0,0,0)
(0,0,0)
(0,0,0)
(0,0,0)
(0,0,0)
(0,0,0)
(-914530.419783251,556328.260341872,29559.3022317125)
(-933938.189569741,545161.694444349,55756.6040294745)
(-981334.186686987,520378.613056171,72289.7566228866)
(-1081064.07441367,476344.988456575,66736.3925904822)
(-1300672.61676645,403147.596436781,23457.3059138533)
(-1862928.2210144,291179.045416291,-8000.16823253585)
(-3700750.24512818,163421.577808778,690221.415344402)
(-4390830.08233989,105559.078434877,1075074.01207708)
(-3875560.21727582,92835.0547327541,-692927.060700621)
(-4265213.13507946,58864.6360098569,-8097187.36121454)
(0,0,0)
(0,0,0)
(0,0,0)
(0,0,0)
(0,0,0)
(0,0,0)
(-1189142.11295101,706628.298213003,18373.1736580201)
(-1206165.54539637,698800.975078763,30959.4995913116)
(-1248639.6615275,682435.232149748,28228.3699571257)
(-1341383.28441523,656055.596112842,-6450.52723247543)
(-1554914.32154806,616476.757428413,-88456.2112001827)
(-2115793.95303662,557349.31488312,-135694.94021846)
(-3864237.11545679,473550.757605871,632445.066335192)
(-4496677.52971476,425552.526808948,1062453.71699025)
(-4006720.55638199,307258.289062977,-726872.74250723)
(-4329766.40981805,153020.597086373,-8156083.35408724)
(0,0,0)
(0,0,0)
(0,0,0)
(0,0,0)
(0,0,0)
(0,0,0)
(-1638102.03163277,787923.802495549,10458.0581836088)
(-1652148.30544223,783562.510344199,14517.9880941285)
(-1687865.89813873,775959.574501508,1782.90385338146)
(-1768672.95142957,768411.627549512,-46092.7722121561)
(-1964720.24844617,766714.750367777,-147651.874664277)
(-2513970.72033384,774684.396745862,-219578.441715466)
(-4337689.63972136,776449.847810858,584377.396479702)
(-4922002.67474875,889938.114659748,944144.576332596)
(-4204754.17904942,497272.127391591,-881148.733876725)
(-4436166.72133689,206351.348592542,-8309217.76236276)
(0,0,0)
(0,0,0)
(0,0,0)
(0,0,0)
(0,0,0)
(0,0,0)
(-2354733.76467874,539253.354861279,5990.5824130152)
(-2365313.5278721,537191.372182026,6873.92295968836)
(-2392577.02749418,535594.045839857,-5821.24254747773)
(-2455949.68383,542339.947295794,-47882.7405804158)
(-2618180.48379796,578212.579032112,-139829.134738549)
(-3122059.64502107,692462.337174583,-217984.664486081)
(-5113910.26733802,937617.005985954,697697.256934029)
(-4168844.48434196,602609.238036148,551345.102943536)
(-4362401.59759695,221930.584005499,-1172228.73520872)
(-4600794.75274671,1756.10275482139,-8515853.87843582)
(0,0,0)
(0,0,0)
(0,0,0)
(0,0,0)
(0,0,0)
(0,0,0)
(-3382690.94072611,-1054938.4192326,3870.65775261386)
(-3389548.47063511,-1056669.87616335,5247.65916345325)
(-3407016.3069169,-1058317.00145524,863.632195057493)
(-3445993.33623077,-1055274.07646262,-12145.4472479391)
(-3535327.04204116,-1038663.76571862,-25775.4977484117)
(-3748935.50669429,-999347.959999836,26931.112937976)
(-4215926.84015686,-970606.772585372,362429.636200796)
(-4369347.62527785,-1187726.20155873,170449.73334789)
(-4771478.34583697,-1384432.64009056,-1392628.28002658)
(-4846942.19173936,-1203669.02507851,-8517920.90168451)
(0,0,0)
(0,0,0)
(0,0,0)
(0,0,0)
(0,0,0)
(0,0,0)
(-4142703.19754624,-8327665.09191414,2142.36942332072)
(-4146020.09405262,-8329857.86644528,3579.66068463158)
(-4154377.3609534,-8333412.02843355,3852.2366542674)
(-4172392.46395664,-8337213.20323111,4350.519736866)
(-4210776.69776496,-8341487.89151925,13351.1191511604)
(-4291222.84286014,-8354630.36846424,55408.7467971872)
(-4439909.32667193,-8409640.30672532,144988.163647271)
(-4605532.38572808,-8554225.09916941,-26598.2243215617)
(-4848369.21322525,-8527309.52131797,-1212181.84192426)
(-4678868.00127527,-7314866.46891254,-7314589.55970034)
(0,0,0)
(0,0,0)
(0,0,0)
(0,0,0)
(0,0,0)
(0,0,0)
(0,0,0)
(0,0,0)
(0,0,0)
(0,0,0)
(0,0,0)
(0,0,0)
(0,0,0)
(0,0,0)
(0,0,0)
(0,0,0)
(0,0,0)
(0,0,0)
(0,0,0)
(0,0,0)
(0,0,0)
(0,0,0)
(0,0,0)
(0,0,0)
(0,0,0)
(0,0,0)
(0,0,0)
(0,0,0)
(0,0,0)
(0,0,0)
(0,0,0)
(0,0,0)
(0,0,0)
(0,0,0)
(0,0,0)
(0,0,0)
(0,0,0)
(0,0,0)
(0,0,0)
(0,0,0)
(0,0,0)
(0,0,0)
(0,0,0)
(0,0,0)
(0,0,0)
(0,0,0)
(0,0,0)
(0,0,0)
(0,0,0)
(0,0,0)
(0,0,0)
(0,0,0)
(0,0,0)
(0,0,0)
(0,0,0)
(0,0,0)
(0,0,0)
(0,0,0)
(0,0,0)
(0,0,0)
(0,0,0)
(0,0,0)
(0,0,0)
(0,0,0)
(0,0,0)
(0,0,0)
(0,0,0)
(0,0,0)
(0,0,0)
(0,0,0)
(0,0,0)
(0,0,0)
(0,0,0)
(0,0,0)
(0,0,0)
(0,0,0)
(0,0,0)
(0,0,0)
(0,0,0)
(0,0,0)
(0,0,0)
(0,0,0)
(0,0,0)
(0,0,0)
(0,0,0)
(0,0,0)
(0,0,0)
(0,0,0)
(0,0,0)
(0,0,0)
(0,0,0)
(0,0,0)
(0,0,0)
(0,0,0)
(0,0,0)
(0,0,0)
(0,0,0)
(0,0,0)
(0,0,0)
(0,0,0)
(0,0,0)
(0,0,0)
(-672398.111575627,57992.1071399395,45920.6808892303)
(-692391.467898552,53422.8528177213,92861.954015225)
(-736354.816406774,42973.2234768486,141047.802400263)
(-813005.561360852,24037.1035060699,188122.851386658)
(-936737.837540245,-7042.79831020323,224534.71011278)
(-1126980.37068409,-51588.8605910325,219625.606838775)
(-1400410.53203424,-96271.6137590257,81299.4946769518)
(-1739410.53129495,-96486.8274313629,-432380.495336792)
(-2010512.83569312,-59346.3591391473,-1736684.90116639)
(-1747005.92344885,-25200.574445518,-4100566.28221893)
(0,0,0)
(0,0,0)
(0,0,0)
(0,0,0)
(0,0,0)
(0,0,0)
(-694943.071614917,118323.371929196,41338.3082687792)
(-713842.236314201,109699.682356667,82476.0257577925)
(-755392.828279367,89570.5078176951,122191.914448785)
(-827954.161592121,51204.5062930655,157104.960046984)
(-946022.761275558,-17850.9311450325,180077.198541325)
(-1130796.92850224,-133196.778028588,175018.106316633)
(-1402456.21139692,-279538.814809929,81159.9341447763)
(-1731176.70882316,-276219.718465486,-395182.563734359)
(-1997186.98320928,-147831.031344778,-1702564.72628688)
(-1738805.62815547,-56291.0281946064,-4075425.17498895)
(0,0,0)
(0,0,0)
(0,0,0)
(0,0,0)
(0,0,0)
(0,0,0)
(-744415.679133334,181296.74969026,32726.2789160119)
(-761117.790679366,170082.040141064,62409.9332866846)
(-797844.811611031,143186.876862267,83890.5288178354)
(-862053.539216405,88561.7996397172,88098.127297475)
(-968303.143702325,-23478.516106917,64857.1339247062)
(-1145500.93461763,-261624.768617313,28774.395990022)
(-1444805.28901572,-719204.563565279,84580.0991041983)
(-1731654.4559939,-711035.93539961,-266700.252213066)
(-1964844.0135699,-288992.912008258,-1611024.66480704)
(-1718808.68792998,-90416.2685657208,-4019213.15746167)
(0,0,0)
(0,0,0)
(0,0,0)
(0,0,0)
(0,0,0)
(0,0,0)
(-829675.918816364,241613.941833695,21463.9564385196)
(-843324.99161318,230300.115466419,35525.0471767161)
(-872955.528650845,203099.746372554,29301.2261652859)
(-923594.401946019,146331.862688044,-23868.6780030919)
(-1006861.74237888,17257.4840282284,-173081.57521797)
(-1171310.00859987,-348711.607539735,-428599.700657501)
(-1766434.16484669,-1766338.45565691,92952.8550165249)
(-1859002.22922809,-1859628.36457467,155490.819542953)
(-1889724.00006008,-425270.698253151,-1412388.76792982)
(-1678496.14308785,-96061.6380613623,-3928787.7942091)
(0,0,0)
(0,0,0)
(0,0,0)
(0,0,0)
(0,0,0)
(0,0,0)
(-964616.579350106,281570.103671245,10129.9977293059)
(-974684.290178988,272824.879803984,8351.33400099117)
(-995416.269064386,252986.090391645,-27452.9276406921)
(-1025257.23186862,215975.835763325,-152903.743261017)
(-1046374.49265793,148919.944388001,-538864.327729319)
(-942855.671063256,38334.1875728808,-1845982.67279308)
(2.57503066845986e-06,1.97146863986099e-07,-2.47459701659037e-06)