/*--------------------------------*- C++ -*----------------------------------*\
| =========                 |                                                 |
| \\      /  F ield         | foam-extend: Open Source CFD                    |
|  \\    /   O peration     | Version:     4.0                                |
|   \\  /    A nd           | Web:         http://www.foam-extend.org         |
|    \\/     M anipulation  |                                                 |
\*---------------------------------------------------------------------------*/
FoamFile
{
    version 2.0;
    format ascii;
    class volVectorField;
    location "1825";
    object      H;
}
// * * * * * * * * * * * * * * * * * * * * * * * * * * * * * * * * * * * * * //

dimensions      [0 1 -1 0 0 0 0];

internalField   nonuniform List<vector>
4096
(
(0,0,0)
(0,0,0)
(0,0,0)
(0,0,0)
(0,0,0)
(0,0,0)
(0,0,0)
(0,0,0)
(0,0,0)
(0,0,0)
(0,0,0)
(0,0,0)
(0,0,0)
(0,0,0)
(0,0,0)
(0,0,0)
(0,0,0)
(0,0,0)
(0,0,0)
(0,0,0)
(0,0,0)
(0,0,0)
(0,0,0)
(0,0,0)
(0,0,0)
(0,0,0)
(0,0,0)
(0,0,0)
(0,0,0)
(0,0,0)
(0,0,0)
(0,0,0)
(0,0,0)
(0,0,0)
(0,0,0)
(0,0,0)
(0,0,0)
(0,0,0)
(0,0,0)
(0,0,0)
(0,0,0)
(0,0,0)
(0,0,0)
(0,0,0)
(0,0,0)
(0,0,0)
(0,0,0)
(0,0,0)
(0,0,0)
(0,0,0)
(0,0,0)
(0,0,0)
(0,0,0)
(0,0,0)
(0,0,0)
(0,0,0)
(0,0,0)
(0,0,0)
(0,0,0)
(0,0,0)
(0,0,0)
(0,0,0)
(0,0,0)
(0,0,0)
(0,0,0)
(0,0,0)
(0,0,0)
(0,0,0)
(0,0,0)
(0,0,0)
(0,0,0)
(0,0,0)
(0,0,0)
(0,0,0)
(0,0,0)
(0,0,0)
(0,0,0)
(0,0,0)
(0,0,0)
(0,0,0)
(0,0,0)
(0,0,0)
(0,0,0)
(0,0,0)
(0,0,0)
(0,0,0)
(0,0,0)
(0,0,0)
(0,0,0)
(0,0,0)
(0,0,0)
(0,0,0)
(0,0,0)
(0,0,0)
(0,0,0)
(0,0,0)
(0,0,0)
(0,0,0)
(0,0,0)
(0,0,0)
(0,0,0)
(0,0,0)
(0,0,0)
(0,0,0)
(0,0,0)
(0,0,0)
(0,0,0)
(0,0,0)
(0,0,0)
(0,0,0)
(0,0,0)
(0,0,0)
(0,0,0)
(0,0,0)
(0,0,0)
(0,0,0)
(0,0,0)
(0,0,0)
(0,0,0)
(0,0,0)
(0,0,0)
(0,0,0)
(0,0,0)
(0,0,0)
(0,0,0)
(0,0,0)
(0,0,0)
(0,0,0)
(0,0,0)
(0,0,0)
(0,0,0)
(0,0,0)
(0,0,0)
(0,0,0)
(0,0,0)
(0,0,0)
(0,0,0)
(0,0,0)
(0,0,0)
(0,0,0)
(0,0,0)
(0,0,0)
(0,0,0)
(0,0,0)
(0,0,0)
(0,0,0)
(0,0,0)
(0,0,0)
(0,0,0)
(0,0,0)
(0,0,0)
(0,0,0)
(0,0,0)
(0,0,0)
(0,0,0)
(0,0,0)
(0,0,0)
(0,0,0)
(0,0,0)
(0,0,0)
(0,0,0)
(0,0,0)
(0,0,0)
(0,0,0)
(0,0,0)
(0,0,0)
(0,0,0)
(0,0,0)
(0,0,0)
(0,0,0)
(0,0,0)
(0,0,0)
(0,0,0)
(0,0,0)
(0,0,0)
(0,0,0)
(0,0,0)
(0,0,0)
(0,0,0)
(0,0,0)
(0,0,0)
(0,0,0)
(0,0,0)
(0,0,0)
(0,0,0)
(0,0,0)
(0,0,0)
(0,0,0)
(0,0,0)
(0,0,0)
(0,0,0)
(0,0,0)
(0,0,0)
(0,0,0)
(0,0,0)
(0,0,0)
(0,0,0)
(0,0,0)
(0,0,0)
(0,0,0)
(0,0,0)
(0,0,0)
(0,0,0)
(0,0,0)
(0,0,0)
(0,0,0)
(0,0,0)
(0,0,0)
(0,0,0)
(0,0,0)
(0,0,0)
(0,0,0)
(0,0,0)
(0,0,0)
(0,0,0)
(0,0,0)
(0,0,0)
(0,0,0)
(0,0,0)
(0,0,0)
(0,0,0)
(0,0,0)
(0,0,0)
(0,0,0)
(0,0,0)
(0,0,0)
(0,0,0)
(0,0,0)
(0,0,0)
(0,0,0)
(0,0,0)
(0,0,0)
(0,0,0)
(0,0,0)
(0,0,0)
(0,0,0)
(0,0,0)
(0,0,0)
(0,0,0)
(0,0,0)
(0,0,0)
(0,0,0)
(0,0,0)
(0,0,0)
(0,0,0)
(0,0,0)
(0,0,0)
(0,0,0)
(0,0,0)
(0,0,0)
(0,0,0)
(0,0,0)
(0,0,0)
(0,0,0)
(0,0,0)
(0,0,0)
(0,0,0)
(0,0,0)
(0,0,0)
(0,0,0)
(0,0,0)
(0,0,0)
(0,0,0)
(0,0,0)
(0,0,0)
(0,0,0)
(0,0,0)
(0,0,0)
(0,0,0)
(0,0,0)
(0,0,0)
(0,0,0)
(0,0,0)
(0,0,0)
(0,0,0)
(0,0,0)
(0,0,0)
(0,0,0)
(0,0,0)
(0,0,0)
(0,0,0)
(0,0,0)
(0,0,0)
(0,0,0)
(0,0,0)
(0,0,0)
(0,0,0)
(0,0,0)
(0,0,0)
(0,0,0)
(0,0,0)
(0,0,0)
(0,0,0)
(0,0,0)
(0,0,0)
(0,0,0)
(0,0,0)
(0,0,0)
(0,0,0)
(0,0,0)
(0,0,0)
(0,0,0)
(0,0,0)
(0,0,0)
(0,0,0)
(0,0,0)
(0,0,0)
(0,0,0)
(0,0,0)
(0,0,0)
(0,0,0)
(0,0,0)
(0,0,0)
(0,0,0)
(0,0,0)
(0,0,0)
(0,0,0)
(0,0,0)
(0,0,0)
(0,0,0)
(0,0,0)
(0,0,0)
(0,0,0)
(0,0,0)
(0,0,0)
(0,0,0)
(0,0,0)
(0,0,0)
(0,0,0)
(0,0,0)
(0,0,0)
(0,0,0)
(0,0,0)
(0,0,0)
(0,0,0)
(0,0,0)
(0,0,0)
(0,0,0)
(0,0,0)
(0,0,0)
(0,0,0)
(0,0,0)
(0,0,0)
(0,0,0)
(0,0,0)
(0,0,0)
(0,0,0)
(0,0,0)
(0,0,0)
(0,0,0)
(0,0,0)
(0,0,0)
(0,0,0)
(0,0,0)
(0,0,0)
(0,0,0)
(0,0,0)
(0,0,0)
(0,0,0)
(0,0,0)
(0,0,0)
(0,0,0)
(0,0,0)
(0,0,0)
(0,0,0)
(0,0,0)
(0,0,0)
(0,0,0)
(0,0,0)
(0,0,0)
(0,0,0)
(0,0,0)
(0,0,0)
(0,0,0)
(0,0,0)
(0,0,0)
(0,0,0)
(0,0,0)
(0,0,0)
(0,0,0)
(0,0,0)
(0,0,0)
(0,0,0)
(0,0,0)
(0,0,0)
(0,0,0)
(0,0,0)
(0,0,0)
(0,0,0)
(0,0,0)
(0,0,0)
(0,0,0)
(0,0,0)
(0,0,0)
(0,0,0)
(0,0,0)
(0,0,0)
(0,0,0)
(0,0,0)
(0,0,0)
(0,0,0)
(0,0,0)
(0,0,0)
(0,0,0)
(0,0,0)
(0,0,0)
(0,0,0)
(0,0,0)
(0,0,0)
(0,0,0)
(0,0,0)
(0,0,0)
(0,0,0)
(0,0,0)
(0,0,0)
(0,0,0)
(0,0,0)
(0,0,0)
(0,0,0)
(0,0,0)
(0,0,0)
(0,0,0)
(0,0,0)
(0,0,0)
(0,0,0)
(0,0,0)
(0,0,0)
(0,0,0)
(0,0,0)
(0,0,0)
(0,0,0)
(0,0,0)
(0,0,0)
(0,0,0)
(0,0,0)
(0,0,0)
(0,0,0)
(0,0,0)
(0,0,0)
(0,0,0)
(0,0,0)
(0,0,0)
(0,0,0)
(0,0,0)
(0,0,0)
(0,0,0)
(0,0,0)
(0,0,0)
(0,0,0)
(0,0,0)
(0,0,0)
(0,0,0)
(0,0,0)
(0,0,0)
(0,0,0)
(0,0,0)
(0,0,0)
(0,0,0)
(0,0,0)
(0,0,0)
(0,0,0)
(0,0,0)
(0,0,0)
(0,0,0)
(0,0,0)
(0,0,0)
(0,0,0)
(0,0,0)
(0,0,0)
(0,0,0)
(0,0,0)
(0,0,0)
(0,0,0)
(0,0,0)
(0,0,0)
(0,0,0)
(0,0,0)
(0,0,0)
(0,0,0)
(0,0,0)
(0,0,0)
(0,0,0)
(0,0,0)
(0,0,0)
(0,0,0)
(0,0,0)
(0,0,0)
(0,0,0)
(0,0,0)
(0,0,0)
(0,0,0)
(0,0,0)
(0,0,0)
(0,0,0)
(0,0,0)
(0,0,0)
(0,0,0)
(0,0,0)
(0,0,0)
(0,0,0)
(0,0,0)
(0,0,0)
(0,0,0)
(0,0,0)
(0,0,0)
(0,0,0)
(0,0,0)
(0,0,0)
(0,0,0)
(0,0,0)
(0,0,0)
(0,0,0)
(0,0,0)
(0,0,0)
(0,0,0)
(0,0,0)
(0,0,0)
(0,0,0)
(0,0,0)
(0,0,0)
(0,0,0)
(0,0,0)
(0,0,0)
(0,0,0)
(0,0,0)
(0,0,0)
(0,0,0)
(0,0,0)
(0,0,0)
(0,0,0)
(0,0,0)
(0,0,0)
(0,0,0)
(0,0,0)
(0,0,0)
(0,0,0)
(0,0,0)
(0,0,0)
(0,0,0)
(0,0,0)
(0,0,0)
(0,0,0)
(0,0,0)
(0,0,0)
(0,0,0)
(0,0,0)
(0,0,0)
(0,0,0)
(0,0,0)
(0,0,0)
(0,0,0)
(0,0,0)
(0,0,0)
(0,0,0)
(0,0,0)
(0,0,0)
(0,0,0)
(0,0,0)
(0,0,0)
(0,0,0)
(0,0,0)
(0,0,0)
(0,0,0)
(0,0,0)
(0,0,0)
(0,0,0)
(0,0,0)
(0,0,0)
(0,0,0)
(0,0,0)
(0,0,0)
(0,0,0)
(0,0,0)
(0,0,0)
(0,0,0)
(0,0,0)
(0,0,0)
(0,0,0)
(0,0,0)
(0,0,0)
(0,0,0)
(0,0,0)
(0,0,0)
(0,0,0)
(0,0,0)
(0,0,0)
(0,0,0)
(0,0,0)
(0,0,0)
(0,0,0)
(0,0,0)
(0,0,0)
(0,0,0)
(0,0,0)
(0,0,0)
(0,0,0)
(0,0,0)
(0,0,0)
(0,0,0)
(0,0,0)
(0,0,0)
(0,0,0)
(0,0,0)
(0,0,0)
(0,0,0)
(0,0,0)
(0,0,0)
(0,0,0)
(0,0,0)
(0,0,0)
(0,0,0)
(0,0,0)
(0,0,0)
(0,0,0)
(0,0,0)
(0,0,0)
(0,0,0)
(0,0,0)
(0,0,0)
(0,0,0)
(0,0,0)
(0,0,0)
(0,0,0)
(0,0,0)
(0,0,0)
(0,0,0)
(0,0,0)
(0,0,0)
(0,0,0)
(0,0,0)
(0,0,0)
(0,0,0)
(0,0,0)
(0,0,0)
(0,0,0)
(0,0,0)
(0,0,0)
(0,0,0)
(0,0,0)
(0,0,0)
(0,0,0)
(0,0,0)
(0,0,0)
(0,0,0)
(0,0,0)
(0,0,0)
(0,0,0)
(0,0,0)
(0,0,0)
(0,0,0)
(0,0,0)
(0,0,0)
(0,0,0)
(0,0,0)
(0,0,0)
(0,0,0)
(0,0,0)
(0,0,0)
(0,0,0)
(0,0,0)
(0,0,0)
(0,0,0)
(0,0,0)
(0,0,0)
(0,0,0)
(0,0,0)
(0,0,0)
(0,0,0)
(0,0,0)
(0,0,0)
(0,0,0)
(0,0,0)
(0,0,0)
(0,0,0)
(0,0,0)
(0,0,0)
(0,0,0)
(0,0,0)
(0,0,0)
(0,0,0)
(0,0,0)
(0,0,0)
(0,0,0)
(0,0,0)
(0,0,0)
(0,0,0)
(0,0,0)
(0,0,0)
(0,0,0)
(0,0,0)
(0,0,0)
(0,0,0)
(0,0,0)
(0,0,0)
(0,0,0)
(0,0,0)
(0,0,0)
(0,0,0)
(0,0,0)
(0,0,0)
(0,0,0)
(0,0,0)
(0,0,0)
(0,0,0)
(0,0,0)
(0,0,0)
(0,0,0)
(0,0,0)
(0,0,0)
(0,0,0)
(0,0,0)
(0,0,0)
(0,0,0)
(0,0,0)
(0,0,0)
(0,0,0)
(0,0,0)
(0,0,0)
(0,0,0)
(0,0,0)
(0,0,0)
(0,0,0)
(0,0,0)
(0,0,0)
(0,0,0)
(0,0,0)
(0,0,0)
(0,0,0)
(0,0,0)
(0,0,0)
(0,0,0)
(0,0,0)
(0,0,0)
(0,0,0)
(0,0,0)
(0,0,0)
(0,0,0)
(0,0,0)
(0,0,0)
(0,0,0)
(0,0,0)
(0,0,0)
(0,0,0)
(0,0,0)
(0,0,0)
(0,0,0)
(0,0,0)
(0,0,0)
(0,0,0)
(0,0,0)
(0,0,0)
(0,0,0)
(0,0,0)
(0,0,0)
(0,0,0)
(0,0,0)
(0,0,0)
(0,0,0)
(0,0,0)
(0,0,0)
(0,0,0)
(0,0,0)
(0,0,0)
(0,0,0)
(0,0,0)
(0,0,0)
(0,0,0)
(0,0,0)
(0,0,0)
(0,0,0)
(0,0,0)
(0,0,0)
(0,0,0)
(0,0,0)
(0,0,0)
(0,0,0)
(0,0,0)
(0,0,0)
(0,0,0)
(0,0,0)
(0,0,0)
(0,0,0)
(0,0,0)
(0,0,0)
(0,0,0)
(0,0,0)
(0,0,0)
(0,0,0)
(0,0,0)
(0,0,0)
(0,0,0)
(0,0,0)
(0,0,0)
(0,0,0)
(0,0,0)
(0,0,0)
(0,0,0)
(0,0,0)
(0,0,0)
(0,0,0)
(0,0,0)
(0,0,0)
(0,0,0)
(0,0,0)
(0,0,0)
(0,0,0)
(0,0,0)
(0,0,0)
(0,0,0)
(0,0,0)
(0,0,0)
(0,0,0)
(0,0,0)
(0,0,0)
(0,0,0)
(0,0,0)
(0,0,0)
(0,0,0)
(0,0,0)
(3.03644414218228e-14,-1.48052123174852e-11,1.56930821710232e-11)
(6.36628251394548e-13,-3.0908351206567e-11,1.48243857502618e-11)
(1.93298585668762e-12,-5.22395640578028e-11,1.35434621999404e-11)
(3.66072261096916e-12,-8.14279098260753e-11,1.16224733598516e-11)
(4.62690603190193e-12,-1.239130007776e-10,9.07245848082187e-12)
(5.69474611692465e-12,-1.91192905367513e-10,6.89963661642639e-12)
(6.07078792766153e-12,-3.0188803544022e-10,5.27642448781334e-12)
(6.24472986779871e-12,-4.85893993006579e-10,3.34502134638059e-12)
(6.16999094091556e-12,-7.93602827028335e-10,1.89894810869302e-12)
(5.64206204479181e-12,-1.22218938374423e-09,8.57715157252698e-13)
(0,0,0)
(0,0,0)
(0,0,0)
(0,0,0)
(0,0,0)
(0,0,0)
(-7.19052943988022e-14,-1.41594935039747e-11,3.30539913322043e-11)
(8.76333741587671e-13,-2.96151835656519e-11,3.17044569129562e-11)
(3.15525493302245e-12,-5.02478848162903e-11,2.9391997189563e-11)
(6.01083130631377e-12,-7.87128830728962e-11,2.56523914722399e-11)
(8.28600627613976e-12,-1.2134678685502e-10,2.0746439452066e-11)
(9.1091942849022e-12,-1.89176841291286e-10,1.56504154850944e-11)
(9.54084309641623e-12,-3.00167277514282e-10,1.07625981650488e-11)
(1.09769272099243e-11,-4.85214280802864e-10,6.67111004627588e-12)
(1.19256392259272e-11,-7.931988626633e-10,4.02321530661389e-12)
(1.14067367317694e-11,-1.22184308645875e-09,2.03540535761522e-12)
(0,0,0)
(0,0,0)
(0,0,0)
(0,0,0)
(0,0,0)
(0,0,0)
(3.55839168884669e-13,-1.30286109790094e-11,5.36459373294719e-11)
(1.27077102829726e-12,-2.71910805694775e-11,5.20494403335733e-11)
(3.17956276900584e-12,-4.61388087673704e-11,4.87975447605709e-11)
(5.79941773866072e-12,-7.29972183293881e-11,4.34523472166017e-11)
(8.83007196480205e-12,-1.14942839418484e-10,3.65259068406473e-11)
(9.52990963737234e-12,-1.83346654011037e-10,2.9099409069223e-11)
(1.09395259176289e-11,-2.96257339268253e-10,2.14429011339172e-11)
(1.38618871141216e-11,-4.83390678687442e-10,1.52351912310369e-11)
(1.54667179311513e-11,-7.91984147953385e-10,1.03900532463492e-11)
(1.49430534809543e-11,-1.22071988432697e-09,5.57124207425942e-12)
(0,0,0)
(0,0,0)
(0,0,0)
(0,0,0)
(0,0,0)
(0,0,0)
(-1.81560695473124e-13,-1.14183394278761e-11,8.21794478992636e-11)
(2.83727923744738e-13,-2.35399627674409e-11,8.0035746023737e-11)
(2.19845132392717e-12,-4.01152027911021e-11,7.61691531771149e-11)
(4.70443615809262e-12,-6.48671165831988e-11,7.03844454801001e-11)
(8.31131246020357e-12,-1.05522006513262e-10,6.28150503132766e-11)
(1.03120175645149e-11,-1.73981049094928e-10,5.3989391731965e-11)
(1.3364190391162e-11,-2.89623923928688e-10,4.40343778566787e-11)
(1.74142593831307e-11,-4.79684274513651e-10,3.39979336839443e-11)
(2.03200807107206e-11,-7.88957435738694e-10,2.38408106875107e-11)
(2.11766501910284e-11,-1.21748461605178e-09,1.26980524556755e-11)
(0,0,0)
(0,0,0)
(0,0,0)
(0,0,0)
(0,0,0)
(0,0,0)
(-3.86149692809773e-13,-9.22583106593538e-12,1.23939726020741e-10)
(-1.51808908006573e-13,-1.93491531550107e-11,1.22292824216553e-10)
(1.72121957886883e-12,-3.33701868204758e-11,1.18880893718422e-10)
(4.4423474393048e-12,-5.52993824808284e-11,1.13426887892446e-10)
(8.95975018552363e-12,-9.33979101906424e-11,1.06102965638473e-10)
(1.36477382507327e-11,-1.6058373837827e-10,9.71629009116816e-11)
(1.9724177285796e-11,-2.78286114809068e-10,8.6376403485148e-11)
(2.40384334347359e-11,-4.71671795152746e-10,6.98585870019526e-11)
(2.76016361311925e-11,-7.80506586500011e-10,4.94703647352131e-11)
(2.94997044198337e-11,-1.20781389971856e-09,2.59609141230726e-11)
(0,0,0)
(0,0,0)
(0,0,0)
(0,0,0)
(0,0,0)
(0,0,0)
(-1.03018923509028e-12,-7.31769941174546e-12,1.89215583226734e-10)
(-6.81156332163848e-13,-1.541451460195e-11,1.87666613028394e-10)
(1.62027608387286e-12,-2.6690734795344e-11,1.84895647308994e-10)
(5.38688240073044e-12,-4.5396104931415e-11,1.80734565021657e-10)
(1.07516560442869e-11,-7.99343316803156e-11,1.7467393969105e-10)
(1.74869527654982e-11,-1.45077578671766e-10,1.65686778559514e-10)
(2.50256874363433e-11,-2.63894115669164e-10,1.51459096555784e-10)
(3.01204900093722e-11,-4.5596526754272e-10,1.27099968565865e-10)
(3.44904294518519e-11,-7.60815647715125e-10,9.21914210960607e-11)
(3.64822401075841e-11,-1.18499790234281e-09,4.89007546123892e-11)
(0,0,0)
(0,0,0)
(0,0,0)
(0,0,0)
(0,0,0)
(0,0,0)
(-1.26105562656749e-12,-5.66272130834198e-12,2.95715689932262e-10)
(1.13734622025769e-13,-1.20145492501842e-11,2.94423756474919e-10)
(2.86864229042563e-12,-2.11348749852581e-11,2.9249853762659e-10)
(7.4084346721918e-12,-3.67586201851144e-11,2.8951256980763e-10)
(1.44280778080283e-11,-6.7024375294966e-11,2.84442653755725e-10)
(2.25600746221673e-11,-1.27417381584133e-10,2.74642347887702e-10)
(2.95157578312713e-11,-2.41030152468501e-10,2.53988797404863e-10)
(3.59227751982357e-11,-4.24938617323753e-10,2.19278078602488e-10)
(4.08436748641765e-11,-7.20586087278992e-10,1.63613191292951e-10)
(4.26886080922246e-11,-1.13818975634601e-09,8.89802249354282e-11)
(0,0,0)
(0,0,0)
(0,0,0)
(0,0,0)
(0,0,0)
(0,0,0)
(1.98024850288667e-13,-4.39231911746048e-12,4.77137916934995e-10)
(2.14055022570126e-12,-9.05890687285815e-12,4.7607009717524e-10)
(5.49203386337355e-12,-1.64556147644373e-11,4.74483022960517e-10)
(1.01324912844495e-11,-2.98202617734725e-11,4.71749393284949e-10)
(1.73057035669828e-11,-5.61208663383099e-11,4.65946711981969e-10)
(2.58208476553473e-11,-1.09244614583059e-10,4.53361601733849e-10)
(3.34497802400925e-11,-2.0734608575386e-10,4.2609524219117e-10)
(4.10589622015873e-11,-3.71069365117003e-10,3.74663576060906e-10)
(4.51037068392494e-11,-6.47390672095744e-10,2.89686647556086e-10)
(4.61905397605801e-11,-1.05035537818927e-09,1.64025859962294e-10)
(0,0,0)
(0,0,0)
(0,0,0)
(0,0,0)
(0,0,0)
(0,0,0)
(1.02964972700108e-12,-3.10355861907936e-12,7.82472250532806e-10)
(3.31680342914966e-12,-6.21571057108515e-12,7.81201686745659e-10)
(7.05155110517346e-12,-1.16612739880358e-11,7.79206717794746e-10)
(1.04881910851444e-11,-2.17751291477525e-11,7.75563617071767e-10)
(1.68766430652973e-11,-4.1652998854705e-11,7.6758986775421e-10)
(2.59313043557009e-11,-8.16759400092895e-11,7.50436119326348e-10)
(3.49549245105483e-11,-1.55546014769602e-10,7.14660970509284e-10)
(4.35455349111788e-11,-2.86132772438801e-10,6.45576407866742e-10)
(4.76727410312254e-11,-5.22201579221036e-10,5.22306610564665e-10)
(4.89308733680213e-11,-8.8718218797713e-10,3.1387448535693e-10)
(0,0,0)
(0,0,0)
(0,0,0)
(0,0,0)
(0,0,0)
(0,0,0)
(1.85834482877342e-12,-1.76761324932116e-12,1.21025874901779e-09)
(4.00623966417484e-12,-3.35196840626686e-12,1.20866585808065e-09)
(7.58461842086032e-12,-6.24238680912498e-12,1.20603592432943e-09)
(1.09984845352219e-11,-1.18316943523702e-11,1.20136452513437e-09)
(1.69517406320552e-11,-2.26512931502775e-11,1.19157484389968e-09)
(2.59402409277206e-11,-4.42008120403789e-11,1.17084420894299e-09)
(3.56800687537458e-11,-8.51594384620399e-11,1.1290124599312e-09)
(4.39898446628355e-11,-1.62023319934088e-10,1.04596257674697e-09)
(4.78788863126263e-11,-3.13386683356461e-10,8.85328275625579e-10)
(4.92727603560619e-11,-5.73220244180826e-10,5.72808109265985e-10)
(0,0,0)
(0,0,0)
(0,0,0)
(0,0,0)
(0,0,0)
(0,0,0)
(0,0,0)
(0,0,0)
(0,0,0)
(0,0,0)
(0,0,0)
(0,0,0)
(0,0,0)
(0,0,0)
(0,0,0)
(0,0,0)
(0,0,0)
(0,0,0)
(0,0,0)
(0,0,0)
(0,0,0)
(0,0,0)
(0,0,0)
(0,0,0)
(0,0,0)
(0,0,0)
(0,0,0)
(0,0,0)
(0,0,0)
(0,0,0)
(0,0,0)
(0,0,0)
(0,0,0)
(0,0,0)
(0,0,0)
(0,0,0)
(0,0,0)
(0,0,0)
(0,0,0)
(0,0,0)
(0,0,0)
(0,0,0)
(0,0,0)
(0,0,0)
(0,0,0)
(0,0,0)
(0,0,0)
(0,0,0)
(0,0,0)
(0,0,0)
(0,0,0)
(0,0,0)
(0,0,0)
(0,0,0)
(0,0,0)
(0,0,0)
(0,0,0)
(0,0,0)
(0,0,0)
(0,0,0)
(0,0,0)
(0,0,0)
(0,0,0)
(0,0,0)
(0,0,0)
(0,0,0)
(0,0,0)
(0,0,0)
(0,0,0)
(0,0,0)
(0,0,0)
(0,0,0)
(0,0,0)
(0,0,0)
(0,0,0)
(0,0,0)
(0,0,0)
(0,0,0)
(0,0,0)
(0,0,0)
(0,0,0)
(0,0,0)
(0,0,0)
(0,0,0)
(0,0,0)
(0,0,0)
(0,0,0)
(0,0,0)
(0,0,0)
(0,0,0)
(0,0,0)
(0,0,0)
(0,0,0)
(0,0,0)
(0,0,0)
(0,0,0)
(0,0,0)
(0,0,0)
(0,0,0)
(0,0,0)
(0,0,0)
(0,0,0)
(2.53342048669256e-13,-2.72849584006957e-11,2.84104507141323e-11)
(6.24384160798885e-13,-5.73206810413164e-11,2.71197303443295e-11)
(1.8622954552403e-12,-9.61171998619971e-11,2.4636321865566e-11)
(3.49571073681933e-12,-1.48530588465608e-10,2.07839131007312e-11)
(4.23351397367623e-12,-2.24281167216801e-10,1.54372051460215e-11)
(5.30189416933143e-12,-3.42049664235378e-10,9.98792414505693e-12)
(6.28143314322568e-12,-5.31023713199423e-10,5.46501177039658e-12)
(7.01109090157458e-12,-8.50522356400027e-10,2.34229332234521e-12)
(6.80725952702482e-12,-1.46479941298712e-09,1.21584027623723e-12)
(6.15347991612815e-12,-2.87084880821818e-09,7.80396181023166e-13)
(0,0,0)
(0,0,0)
(0,0,0)
(0,0,0)
(0,0,0)
(0,0,0)
(1.46746599885012e-13,-2.56503407320235e-11,5.96606408716844e-11)
(7.64690468809471e-13,-5.44113397315113e-11,5.74286037342124e-11)
(2.78578460143606e-12,-9.18249070072976e-11,5.25794379556459e-11)
(5.20111858297548e-12,-1.42591172468315e-10,4.49086543665886e-11)
(6.97808280657148e-12,-2.18565643515544e-10,3.48460770019693e-11)
(8.16682432468505e-12,-3.37638719007809e-10,2.32916129993013e-11)
(9.72239296906291e-12,-5.2849500540201e-10,1.19872645021751e-11)
(1.18012198343755e-11,-8.50380566911015e-10,5.34797994577243e-12)
(1.26987344654043e-11,-1.46529343263503e-09,3.26111858554164e-12)
(1.23189399578688e-11,-2.87124714615596e-09,2.1208421351533e-12)
(0,0,0)
(0,0,0)
(0,0,0)
(0,0,0)
(0,0,0)
(0,0,0)
(3.4206461365117e-13,-2.29845397262582e-11,9.84046208928525e-11)
(8.7154879926746e-13,-4.89500742342722e-11,9.53511797076189e-11)
(2.50115433672301e-12,-8.32390861864221e-11,8.85545062693484e-11)
(4.59575636842888e-12,-1.31060224233209e-10,7.77882208409355e-11)
(6.83573683095044e-12,-2.0546637009805e-10,6.33054568134682e-11)
(7.82081265656786e-12,-3.25414399343137e-10,4.53944231486855e-11)
(1.05138204809536e-11,-5.22015226171123e-10,2.69474884292275e-11)
(1.50006209249089e-11,-8.49751641571492e-10,1.71378656168676e-11)
(1.72588168882774e-11,-1.46590249245828e-09,1.22755510407282e-11)
(1.72790272798298e-11,-2.87132356053769e-09,7.06847696290891e-12)
(0,0,0)
(0,0,0)
(0,0,0)
(0,0,0)
(0,0,0)
(0,0,0)
(-2.30367181888162e-13,-1.9600068224247e-11,1.50063279588858e-10)
(-4.04888420655964e-14,-4.14223804687183e-11,1.4616880531938e-10)
(1.23814305030771e-12,-7.12442270442978e-11,1.38852799843046e-10)
(2.70609722255095e-12,-1.14547061131615e-10,1.27208615634515e-10)
(5.01287471888941e-12,-1.84550773025397e-10,1.10704961941217e-10)
(6.86972072315357e-12,-3.03714883678109e-10,8.93150249749366e-11)
(1.20628254442557e-11,-5.09654697536263e-10,6.57314014046971e-11)
(1.95589030187364e-11,-8.47719356700789e-10,4.99489905131936e-11)
(2.30119897043225e-11,-1.46475544682875e-09,3.60382501886345e-11)
(2.42039863142641e-11,-2.86841181142802e-09,1.95056130502663e-11)
(0,0,0)
(0,0,0)
(0,0,0)
(0,0,0)
(0,0,0)
(0,0,0)
(-6.47379542811432e-13,-1.56882086237973e-11,2.24558389518057e-10)
(-6.74516962938673e-13,-3.3433016739924e-11,2.2139308314348e-10)
(4.95773379712906e-13,-5.79603968775686e-11,2.14779410759198e-10)
(1.86299214385951e-12,-9.48602084289461e-11,2.03972028544351e-10)
(4.43623640199728e-12,-1.57050068626447e-10,1.89044955048795e-10)
(8.92807597075013e-12,-2.70583204334027e-10,1.71668742287087e-10)
(2.18499946291024e-11,-4.82933432472822e-10,1.56497593171413e-10)
(2.87201280916317e-11,-8.38438771345148e-10,1.22609483778582e-10)
(3.14201479584064e-11,-1.45450848850709e-09,8.56802398296227e-11)
(3.264462116678e-11,-2.85426564639563e-09,4.46169400876212e-11)
(0,0,0)
(0,0,0)
(0,0,0)
(0,0,0)
(0,0,0)
(0,0,0)
(-1.13619714015278e-12,-1.21215187725281e-11,3.37970936295893e-10)
(-1.31015596453188e-12,-2.5853283558105e-11,3.35306969309623e-10)
(2.25498561119731e-13,-4.48596330039357e-11,3.29848488446139e-10)
(2.81002298504496e-12,-7.4808857066649e-11,3.21720483233579e-10)
(6.82886079048574e-12,-1.28846953489778e-10,3.10621083080914e-10)
(1.40544376815639e-11,-2.38176307549427e-10,2.95754154031335e-10)
(2.65208522256454e-11,-4.61157039479837e-10,2.75634975324023e-10)
(3.40023872602153e-11,-8.14526548786223e-10,2.302568114007e-10)
(3.75515354992684e-11,-1.42233044215282e-09,1.65140546169388e-10)
(3.85748487233587e-11,-2.81556428461457e-09,8.67245068420831e-11)
(0,0,0)
(0,0,0)
(0,0,0)
(0,0,0)
(0,0,0)
(0,0,0)
(-1.23952436010664e-12,-8.98483677305495e-12,5.1801813726805e-10)
(-9.1668890696994e-13,-1.93496170502251e-11,5.16114569373719e-10)
(1.17534988856609e-12,-3.38662547588931e-11,5.12760399392219e-10)
(5.53999231244964e-12,-5.75483764356519e-11,5.08070465722002e-10)
(1.33248747194173e-11,-1.02476600158171e-10,5.01652476807414e-10)
(2.50408581039566e-11,-2.00974315687092e-10,4.89137615275067e-10)
(3.05424099190537e-11,-4.21365363785146e-10,4.51965146112444e-10)
(3.77184103008617e-11,-7.59815858649091e-10,3.96272529936481e-10)
(4.22812260381441e-11,-1.3515145075785e-09,2.92291259604902e-10)
(4.38344548714652e-11,-2.73415072768684e-09,1.57287442922754e-10)
(0,0,0)
(0,0,0)
(0,0,0)
(0,0,0)
(0,0,0)
(0,0,0)
(-2.29158883373674e-14,-6.49984595512531e-12,8.30378022710699e-10)
(8.8442813865167e-13,-1.42656753691966e-11,8.2906726504553e-10)
(3.43132276254326e-12,-2.58128774756093e-11,8.26790179058958e-10)
(7.89003996170972e-12,-4.62178105119904e-11,8.23370493028949e-10)
(1.54229463314705e-11,-8.73702027469027e-11,8.16797589771147e-10)
(2.55185326242853e-11,-1.78936054039943e-10,8.01224252333402e-10)
(3.30813753861223e-11,-3.6531255933162e-10,7.59442365373866e-10)
(4.10992980280302e-11,-6.59033324324825e-10,6.67352574719874e-10)
(4.55754015584897e-11,-1.21976115921326e-09,5.13717528270591e-10)
(4.70432095100813e-11,-2.57979488819786e-09,2.91886767716032e-10)
(0,0,0)
(0,0,0)
(0,0,0)
(0,0,0)
(0,0,0)
(0,0,0)
(9.64268144389857e-13,-4.39423909485732e-12,1.43920805094626e-09)
(2.44803021524439e-12,-1.00279114255708e-11,1.4381326764157e-09)
(5.27576464924398e-12,-1.88571386790544e-11,1.43549916687382e-09)
(8.51850560732296e-12,-3.4736921783912e-11,1.43042942766391e-09)
(1.50286857887457e-11,-6.7197478992327e-11,1.41917854931952e-09)
(2.42313252038319e-11,-1.37339793198936e-10,1.39369571207896e-09)
(3.36529108455311e-11,-2.71781478846804e-10,1.33495520861132e-09)
(4.2705879708537e-11,-5.05221754280677e-10,1.21346532070036e-09)
(4.72899703743576e-11,-9.98482303176654e-10,9.97242125210721e-10)
(4.88434149288058e-11,-2.28884179859356e-09,6.23299506269928e-10)
(0,0,0)
(0,0,0)
(0,0,0)
(0,0,0)
(0,0,0)
(0,0,0)
(1.68362251659645e-12,-2.43772553845284e-12,2.84202171971067e-09)
(3.28420500912453e-12,-5.4132890823317e-12,2.84056976133199e-09)
(6.01363080679335e-12,-1.02137189746746e-11,2.8370223793396e-09)
(8.95647141754362e-12,-1.92199471385054e-11,2.8302076093577e-09)
(1.50310824384582e-11,-3.71890095498661e-11,2.81517005778792e-09)
(2.35711778991171e-11,-7.49036676543337e-11,2.78241498497053e-09)
(3.35705134759252e-11,-1.47454216360346e-10,2.71148057908885e-09)
(4.26008258501844e-11,-2.86795408851539e-10,2.56684697545142e-09)
(4.70123693157611e-11,-6.2296347715726e-10,2.28257881518821e-09)
(4.8860625441313e-11,-1.66427892246658e-09,1.66187107547957e-09)
(0,0,0)
(0,0,0)
(0,0,0)
(0,0,0)
(0,0,0)
(0,0,0)
(0,0,0)
(0,0,0)
(0,0,0)
(0,0,0)
(0,0,0)
(0,0,0)
(0,0,0)
(0,0,0)
(0,0,0)
(0,0,0)
(0,0,0)
(0,0,0)
(0,0,0)
(0,0,0)
(0,0,0)
(0,0,0)
(0,0,0)
(0,0,0)
(0,0,0)
(0,0,0)
(0,0,0)
(0,0,0)
(0,0,0)
(0,0,0)
(0,0,0)
(0,0,0)
(0,0,0)
(0,0,0)
(0,0,0)
(0,0,0)
(0,0,0)
(0,0,0)
(0,0,0)
(0,0,0)
(0,0,0)
(0,0,0)
(0,0,0)
(0,0,0)
(0,0,0)
(0,0,0)
(0,0,0)
(0,0,0)
(0,0,0)
(0,0,0)
(0,0,0)
(0,0,0)
(0,0,0)
(0,0,0)
(0,0,0)
(0,0,0)
(0,0,0)
(0,0,0)
(0,0,0)
(0,0,0)
(0,0,0)
(0,0,0)
(0,0,0)
(0,0,0)
(0,0,0)
(0,0,0)
(0,0,0)
(0,0,0)
(0,0,0)
(0,0,0)
(0,0,0)
(0,0,0)
(0,0,0)
(0,0,0)
(0,0,0)
(0,0,0)
(0,0,0)
(0,0,0)
(0,0,0)
(0,0,0)
(0,0,0)
(0,0,0)
(0,0,0)
(0,0,0)
(0,0,0)
(0,0,0)
(0,0,0)
(0,0,0)
(0,0,0)
(0,0,0)
(0,0,0)
(0,0,0)
(0,0,0)
(0,0,0)
(0,0,0)
(0,0,0)
(0,0,0)
(0,0,0)
(0,0,0)
(0,0,0)
(0,0,0)
(0,0,0)
(-9.05552502696678e-14,-3.62545753097899e-11,3.78658167783994e-11)
(1.98451329547678e-13,-7.63468251142958e-11,3.56630265652645e-11)
(1.42241136606055e-12,-1.27526474418236e-10,3.17731040432797e-11)
(2.90300269436607e-12,-1.94665241103932e-10,2.56967094609779e-11)
(3.96727127307324e-12,-2.87911239478595e-10,1.69866871792161e-11)
(5.41386131665799e-12,-4.25198864344381e-10,7.11867038981814e-12)
(6.87544379341747e-12,-6.2753570083788e-10,-1.11401366457107e-12)
(7.99575445863778e-12,-9.20630073345395e-10,-4.20289105370556e-12)
(7.73672327024296e-12,-1.34083840929117e-09,-3.14842360701488e-12)
(7.33221403479773e-12,-1.85276600063478e-09,-1.22872785545208e-12)
(0,0,0)
(0,0,0)
(0,0,0)
(0,0,0)
(0,0,0)
(0,0,0)
(-2.87017268597848e-13,-3.42940904384519e-11,8.00257254589302e-11)
(1.52590749497309e-13,-7.27991767404967e-11,7.60338537958833e-11)
(1.87074736854281e-12,-1.21428640107611e-10,6.81041083809787e-11)
(3.7327477134037e-12,-1.85569891948291e-10,5.5946246675205e-11)
(5.43327339161883e-12,-2.78133181374668e-10,3.89555406535856e-11)
(7.24685315723323e-12,-4.17607430888163e-10,1.76220139763785e-11)
(9.8818982934698e-12,-6.25719255706703e-10,-3.30650288396035e-12)
(1.32591558563716e-11,-9.23296454570206e-10,-9.42793239863408e-12)
(1.44480707389854e-11,-1.34432413336228e-09,-6.04285675482611e-12)
(1.45161964748987e-11,-1.85579473204256e-09,-2.01938259757694e-12)
(0,0,0)
(0,0,0)
(0,0,0)
(0,0,0)
(0,0,0)
(0,0,0)
(1.10342948576131e-14,-3.04768443188195e-11,1.31236763767682e-10)
(1.40528473017873e-13,-6.51134295635629e-11,1.26178720218389e-10)
(1.27258062357576e-12,-1.09001708680158e-10,1.15412820645232e-10)
(2.56535729375977e-12,-1.68107574487336e-10,9.83422976139949e-11)
(3.83117342302253e-12,-2.56836112037308e-10,7.30983954351196e-11)
(4.56823171093335e-12,-3.97719155746892e-10,3.72348816193807e-11)
(7.96291465943244e-12,-6.21705962352682e-10,-3.07017006691413e-12)
(1.78306506294377e-11,-9.30879496795632e-10,-8.17607348373828e-12)
(2.13188453374395e-11,-1.35214323252807e-09,-1.67294367317365e-12)
(2.14357551324167e-11,-1.86136913984274e-09,1.47566757198337e-12)
(0,0,0)
(0,0,0)
(0,0,0)
(0,0,0)
(0,0,0)
(0,0,0)
(-2.47752513564467e-13,-2.50083755076823e-11,1.9722834848383e-10)
(-7.13847093341956e-13,-5.37770904279541e-11,1.91850508561102e-10)
(-4.01502908497806e-13,-9.10329394756077e-11,1.80546283315796e-10)
(-4.77101787533889e-13,-1.41829467544591e-10,1.61375440859335e-10)
(-1.097892713001e-12,-2.19983331214685e-10,1.31372853271501e-10)
(-2.67833505131642e-12,-3.56523315541549e-10,8.55386470117362e-11)
(1.12397127248377e-12,-6.11791982621034e-10,2.3502728262874e-11)
(2.41890579881446e-11,-9.45710850761009e-10,2.21769999486913e-11)
(2.92976685212398e-11,-1.36291269025133e-09,2.46027734855994e-11)
(2.95634343315424e-11,-1.86561292105854e-09,1.61404294239687e-11)
(0,0,0)
(0,0,0)
(0,0,0)
(0,0,0)
(0,0,0)
(0,0,0)
(-1.04876301971259e-12,-1.92333748700052e-11,2.87859588216278e-10)
(-1.64057775957421e-12,-4.14409624283312e-11,2.83284583601253e-10)
(-1.79760828031859e-12,-7.00531051981829e-11,2.73189979235896e-10)
(-3.26128572260126e-12,-1.08796211659365e-10,2.56197077955926e-10)
(-6.39066597206965e-12,-1.67794974808613e-10,2.31029888747309e-10)
(-8.3076716991678e-12,-2.78194430058515e-10,2.02629378235933e-10)
(3.39617110281117e-11,-5.38976461227091e-10,2.17448337903703e-10)
(4.17371494816798e-11,-9.60709490978265e-10,1.43681633342393e-10)
(4.03054013477646e-11,-1.36690384846321e-09,9.73724299849463e-11)
(3.85601994728793e-11,-1.85766807166901e-09,5.08631091710144e-11)
(0,0,0)
(0,0,0)
(0,0,0)
(0,0,0)
(0,0,0)
(0,0,0)
(-1.60891215270837e-12,-1.41691370998465e-11,4.17715425349742e-10)
(-2.35534160926147e-12,-2.9826246965813e-11,4.14158591624192e-10)
(-2.63987447165174e-12,-4.95939013955159e-11,4.0661162169104e-10)
(-3.35105749206442e-12,-7.61232107672691e-11,3.953147085464e-10)
(-4.67456349242842e-12,-1.185516214866e-10,3.79706840581454e-10)
(-3.02837547346346e-12,-2.19776250327966e-10,3.61166544021899e-10)
(3.21073404548345e-11,-5.44441784767259e-10,3.6645643285633e-10)
(4.44079623536262e-11,-9.48632463903524e-10,2.93000606663722e-10)
(4.5151640252899e-11,-1.3365368372428e-09,2.03339801318686e-10)
(4.38857986367991e-11,-1.81569157058435e-09,1.04558219153798e-10)
(0,0,0)
(0,0,0)
(0,0,0)
(0,0,0)
(0,0,0)
(0,0,0)
(-1.82094728318262e-12,-1.01133202641936e-11,6.06874696059906e-10)
(-2.64646060719822e-12,-2.0469635542597e-11,6.04716900007911e-10)
(-2.18809372419336e-12,-3.33006120149907e-11,6.0089589444394e-10)
(6.27415303375943e-13,-4.92482965248586e-11,5.97399716484867e-10)
(1.07333388408072e-11,-7.20164983883194e-11,5.98539630356567e-10)
(4.0175065619182e-11,-1.35070122096054e-10,6.07369474952953e-10)
(3.01822216415098e-11,-4.99391421199669e-10,5.34093418678967e-10)
(4.09171463077887e-11,-8.86355726221286e-10,5.13397577744197e-10)
(4.55316943554793e-11,-1.25118308320068e-09,3.55986489478442e-10)
(4.67660583057018e-11,-1.71831188750515e-09,1.82713538207054e-10)
(0,0,0)
(0,0,0)
(0,0,0)
(0,0,0)
(0,0,0)
(0,0,0)
(-8.17765083014165e-13,-7.19696705112798e-12,8.87979997124079e-10)
(-1.07624981828914e-12,-1.44194520494217e-11,8.86754097595673e-10)
(-1.04730004833786e-13,-2.42088285989849e-11,8.85119788322922e-10)
(2.98205449284545e-12,-3.96636809847681e-11,8.84241708831968e-10)
(1.08235600137768e-11,-7.25346366565283e-11,8.86480201426157e-10)
(2.57041587431649e-11,-1.69735366330221e-10,8.92415421005638e-10)
(3.16400855551177e-11,-4.53064292707962e-10,8.73410988826779e-10)
(4.09227744320566e-11,-7.32740247573457e-10,7.4464333611774e-10)
(4.61273060769337e-11,-1.08190152398256e-09,5.42656125216894e-10)
(4.79768876224022e-11,-1.53781901423152e-09,2.92322742699108e-10)
(0,0,0)
(0,0,0)
(0,0,0)
(0,0,0)
(0,0,0)
(0,0,0)
(8.31291185630636e-14,-4.86802901300047e-12,1.29937109212965e-09)
(4.66917413718477e-13,-1.04587243921495e-11,1.29852704987593e-09)
(1.70208415542655e-12,-1.84600121488673e-11,1.2964416875228e-09)
(4.25240930637123e-12,-3.26919913848159e-11,1.29279608114113e-09)
(1.05030535872412e-11,-6.55210074828338e-11,1.28623961966413e-09)
(2.05357031265141e-11,-1.47581871578814e-10,1.26957268296756e-09)
(3.08155362699076e-11,-3.19334311137802e-10,1.21514884381909e-09)
(4.0502729767942e-11,-5.29922936628404e-10,1.06853649139002e-09)
(4.57137632965437e-11,-8.31082082727109e-10,8.27875264843171e-10)
(4.75800450716176e-11,-1.24432002827565e-09,4.75572073344963e-10)
(0,0,0)
(0,0,0)
(0,0,0)
(0,0,0)
(0,0,0)
(0,0,0)
(6.97855356207418e-13,-2.70930078476647e-12,1.80684330714017e-09)
(1.41829791896694e-12,-5.95592164598562e-12,1.80563563740707e-09)
(2.61468181443245e-12,-1.05603493662871e-11,1.80242873933235e-09)
(4.77407584840667e-12,-1.93216753709122e-11,1.79620832616114e-09)
(1.05971457063696e-11,-3.90966875398131e-11,1.78268431714798e-09)
(1.96019161260124e-11,-8.35935904388669e-11,1.75113247922429e-09)
(3.07499007533118e-11,-1.66759519764934e-10,1.67531397585179e-09)
(4.00735772607174e-11,-2.85289632846568e-10,1.51472065173881e-09)