/*--------------------------------*- C++ -*----------------------------------*\
| =========                 |                                                 |
| \\      /  F ield         | foam-extend: Open Source CFD                    |
|  \\    /   O peration     | Version:     4.0                                |
|   \\  /    A nd           | Web:         http://www.foam-extend.org         |
|    \\/     M anipulation  |                                                 |
\*---------------------------------------------------------------------------*/
FoamFile
{
    version 2.0;
    format ascii;
    class volVectorField;
    location "3852";
    object      H;
}
// * * * * * * * * * * * * * * * * * * * * * * * * * * * * * * * * * * * * * //

dimensions      [0 1 -1 0 0 0 0];

internalField   nonuniform List<vector>
4096
(
(0,0,0)
(0,0,0)
(0,0,0)
(0,0,0)
(0,0,0)
(0,0,0)
(0,0,0)
(0,0,0)
(0,0,0)
(0,0,0)
(0,0,0)
(0,0,0)
(0,0,0)
(0,0,0)
(0,0,0)
(0,0,0)
(0,0,0)
(0,0,0)
(0,0,0)
(0,0,0)
(0,0,0)
(0,0,0)
(0,0,0)
(0,0,0)
(0,0,0)
(0,0,0)
(0,0,0)
(0,0,0)
(0,0,0)
(0,0,0)
(0,0,0)
(0,0,0)
(0,0,0)
(0,0,0)
(0,0,0)
(0,0,0)
(0,0,0)
(0,0,0)
(0,0,0)
(0,0,0)
(0,0,0)
(0,0,0)
(0,0,0)
(0,0,0)
(0,0,0)
(0,0,0)
(0,0,0)
(0,0,0)
(0,0,0)
(0,0,0)
(0,0,0)
(0,0,0)
(0,0,0)
(0,0,0)
(0,0,0)
(0,0,0)
(0,0,0)
(0,0,0)
(0,0,0)
(0,0,0)
(0,0,0)
(0,0,0)
(0,0,0)
(0,0,0)
(0,0,0)
(0,0,0)
(0,0,0)
(0,0,0)
(0,0,0)
(0,0,0)
(0,0,0)
(0,0,0)
(0,0,0)
(0,0,0)
(0,0,0)
(0,0,0)
(0,0,0)
(0,0,0)
(0,0,0)
(0,0,0)
(0,0,0)
(0,0,0)
(0,0,0)
(0,0,0)
(0,0,0)
(0,0,0)
(0,0,0)
(0,0,0)
(0,0,0)
(0,0,0)
(0,0,0)
(0,0,0)
(0,0,0)
(0,0,0)
(0,0,0)
(0,0,0)
(0,0,0)
(0,0,0)
(0,0,0)
(0,0,0)
(0,0,0)
(0,0,0)
(0,0,0)
(0,0,0)
(0,0,0)
(0,0,0)
(0,0,0)
(0,0,0)
(0,0,0)
(0,0,0)
(0,0,0)
(0,0,0)
(0,0,0)
(0,0,0)
(0,0,0)
(0,0,0)
(0,0,0)
(0,0,0)
(0,0,0)
(0,0,0)
(0,0,0)
(0,0,0)
(0,0,0)
(0,0,0)
(0,0,0)
(0,0,0)
(0,0,0)
(0,0,0)
(0,0,0)
(0,0,0)
(0,0,0)
(0,0,0)
(0,0,0)
(0,0,0)
(0,0,0)
(0,0,0)
(0,0,0)
(0,0,0)
(0,0,0)
(0,0,0)
(0,0,0)
(0,0,0)
(0,0,0)
(0,0,0)
(0,0,0)
(0,0,0)
(0,0,0)
(0,0,0)
(0,0,0)
(0,0,0)
(0,0,0)
(0,0,0)
(0,0,0)
(0,0,0)
(0,0,0)
(0,0,0)
(0,0,0)
(0,0,0)
(0,0,0)
(0,0,0)
(0,0,0)
(0,0,0)
(0,0,0)
(0,0,0)
(0,0,0)
(0,0,0)
(0,0,0)
(0,0,0)
(0,0,0)
(0,0,0)
(0,0,0)
(0,0,0)
(0,0,0)
(0,0,0)
(0,0,0)
(0,0,0)
(0,0,0)
(0,0,0)
(0,0,0)
(0,0,0)
(0,0,0)
(0,0,0)
(0,0,0)
(0,0,0)
(0,0,0)
(0,0,0)
(0,0,0)
(0,0,0)
(0,0,0)
(0,0,0)
(0,0,0)
(0,0,0)
(0,0,0)
(0,0,0)
(0,0,0)
(0,0,0)
(0,0,0)
(0,0,0)
(0,0,0)
(0,0,0)
(0,0,0)
(0,0,0)
(0,0,0)
(0,0,0)
(0,0,0)
(0,0,0)
(0,0,0)
(0,0,0)
(0,0,0)
(0,0,0)
(0,0,0)
(0,0,0)
(0,0,0)
(0,0,0)
(0,0,0)
(0,0,0)
(0,0,0)
(0,0,0)
(0,0,0)
(0,0,0)
(0,0,0)
(0,0,0)
(0,0,0)
(0,0,0)
(0,0,0)
(0,0,0)
(0,0,0)
(0,0,0)
(0,0,0)
(0,0,0)
(0,0,0)
(0,0,0)
(0,0,0)
(0,0,0)
(0,0,0)
(0,0,0)
(0,0,0)
(0,0,0)
(0,0,0)
(0,0,0)
(0,0,0)
(0,0,0)
(0,0,0)
(0,0,0)
(0,0,0)
(0,0,0)
(0,0,0)
(0,0,0)
(0,0,0)
(0,0,0)
(0,0,0)
(0,0,0)
(0,0,0)
(0,0,0)
(0,0,0)
(0,0,0)
(0,0,0)
(0,0,0)
(0,0,0)
(0,0,0)
(0,0,0)
(0,0,0)
(0,0,0)
(0,0,0)
(0,0,0)
(0,0,0)
(0,0,0)
(0,0,0)
(0,0,0)
(0,0,0)
(0,0,0)
(0,0,0)
(0,0,0)
(0,0,0)
(0,0,0)
(0,0,0)
(0,0,0)
(0,0,0)
(0,0,0)
(0,0,0)
(0,0,0)
(0,0,0)
(0,0,0)
(0,0,0)
(0,0,0)
(0,0,0)
(0,0,0)
(0,0,0)
(0,0,0)
(0,0,0)
(0,0,0)
(0,0,0)
(0,0,0)
(0,0,0)
(0,0,0)
(0,0,0)
(0,0,0)
(0,0,0)
(0,0,0)
(0,0,0)
(0,0,0)
(0,0,0)
(0,0,0)
(0,0,0)
(0,0,0)
(0,0,0)
(0,0,0)
(0,0,0)
(0,0,0)
(0,0,0)
(0,0,0)
(0,0,0)
(0,0,0)
(0,0,0)
(0,0,0)
(0,0,0)
(0,0,0)
(0,0,0)
(0,0,0)
(0,0,0)
(0,0,0)
(0,0,0)
(0,0,0)
(0,0,0)
(0,0,0)
(0,0,0)
(0,0,0)
(0,0,0)
(0,0,0)
(0,0,0)
(0,0,0)
(0,0,0)
(0,0,0)
(0,0,0)
(0,0,0)
(0,0,0)
(0,0,0)
(0,0,0)
(0,0,0)
(0,0,0)
(0,0,0)
(0,0,0)
(0,0,0)
(0,0,0)
(0,0,0)
(0,0,0)
(0,0,0)
(0,0,0)
(0,0,0)
(0,0,0)
(0,0,0)
(0,0,0)
(0,0,0)
(0,0,0)
(0,0,0)
(0,0,0)
(0,0,0)
(0,0,0)
(0,0,0)
(0,0,0)
(0,0,0)
(0,0,0)
(0,0,0)
(0,0,0)
(0,0,0)
(0,0,0)
(0,0,0)
(0,0,0)
(0,0,0)
(0,0,0)
(0,0,0)
(0,0,0)
(0,0,0)
(0,0,0)
(0,0,0)
(0,0,0)
(0,0,0)
(0,0,0)
(0,0,0)
(0,0,0)
(0,0,0)
(0,0,0)
(0,0,0)
(0,0,0)
(0,0,0)
(0,0,0)
(0,0,0)
(0,0,0)
(0,0,0)
(0,0,0)
(0,0,0)
(0,0,0)
(0,0,0)
(0,0,0)
(0,0,0)
(0,0,0)
(0,0,0)
(0,0,0)
(0,0,0)
(0,0,0)
(0,0,0)
(0,0,0)
(0,0,0)
(0,0,0)
(0,0,0)
(0,0,0)
(0,0,0)
(0,0,0)
(0,0,0)
(0,0,0)
(0,0,0)
(0,0,0)
(0,0,0)
(0,0,0)
(0,0,0)
(0,0,0)
(0,0,0)
(0,0,0)
(0,0,0)
(0,0,0)
(0,0,0)
(0,0,0)
(0,0,0)
(0,0,0)
(0,0,0)
(0,0,0)
(0,0,0)
(0,0,0)
(0,0,0)
(0,0,0)
(0,0,0)
(0,0,0)
(0,0,0)
(0,0,0)
(0,0,0)
(0,0,0)
(0,0,0)
(0,0,0)
(0,0,0)
(0,0,0)
(0,0,0)
(0,0,0)
(0,0,0)
(0,0,0)
(0,0,0)
(0,0,0)
(0,0,0)
(0,0,0)
(0,0,0)
(0,0,0)
(0,0,0)
(0,0,0)
(0,0,0)
(0,0,0)
(0,0,0)
(0,0,0)
(0,0,0)
(0,0,0)
(0,0,0)
(0,0,0)
(0,0,0)
(0,0,0)
(0,0,0)
(0,0,0)
(0,0,0)
(0,0,0)
(0,0,0)
(0,0,0)
(0,0,0)
(0,0,0)
(0,0,0)
(0,0,0)
(0,0,0)
(0,0,0)
(0,0,0)
(0,0,0)
(0,0,0)
(0,0,0)
(0,0,0)
(0,0,0)
(0,0,0)
(0,0,0)
(0,0,0)
(0,0,0)
(0,0,0)
(0,0,0)
(0,0,0)
(0,0,0)
(0,0,0)
(0,0,0)
(0,0,0)
(0,0,0)
(0,0,0)
(0,0,0)
(0,0,0)
(0,0,0)
(0,0,0)
(0,0,0)
(0,0,0)
(0,0,0)
(0,0,0)
(0,0,0)
(0,0,0)
(0,0,0)
(0,0,0)
(0,0,0)
(0,0,0)
(0,0,0)
(0,0,0)
(0,0,0)
(0,0,0)
(0,0,0)
(0,0,0)
(0,0,0)
(0,0,0)
(0,0,0)
(0,0,0)
(0,0,0)
(0,0,0)
(0,0,0)
(0,0,0)
(0,0,0)
(0,0,0)
(0,0,0)
(0,0,0)
(0,0,0)
(0,0,0)
(0,0,0)
(0,0,0)
(0,0,0)
(0,0,0)
(0,0,0)
(0,0,0)
(0,0,0)
(0,0,0)
(0,0,0)
(0,0,0)
(0,0,0)
(0,0,0)
(0,0,0)
(0,0,0)
(0,0,0)
(0,0,0)
(0,0,0)
(0,0,0)
(0,0,0)
(0,0,0)
(0,0,0)
(0,0,0)
(0,0,0)
(0,0,0)
(0,0,0)
(0,0,0)
(0,0,0)
(0,0,0)
(0,0,0)
(0,0,0)
(0,0,0)
(0,0,0)
(0,0,0)
(0,0,0)
(0,0,0)
(0,0,0)
(0,0,0)
(0,0,0)
(0,0,0)
(0,0,0)
(0,0,0)
(0,0,0)
(0,0,0)
(0,0,0)
(0,0,0)
(0,0,0)
(0,0,0)
(0,0,0)
(0,0,0)
(0,0,0)
(0,0,0)
(0,0,0)
(0,0,0)
(0,0,0)
(0,0,0)
(0,0,0)
(0,0,0)
(0,0,0)
(0,0,0)
(0,0,0)
(0,0,0)
(0,0,0)
(0,0,0)
(0,0,0)
(0,0,0)
(0,0,0)
(0,0,0)
(0,0,0)
(0,0,0)
(0,0,0)
(0,0,0)
(0,0,0)
(0,0,0)
(0,0,0)
(0,0,0)
(0,0,0)
(0,0,0)
(0,0,0)
(0,0,0)
(0,0,0)
(0,0,0)
(0,0,0)
(0,0,0)
(0,0,0)
(0,0,0)
(0,0,0)
(0,0,0)
(0,0,0)
(0,0,0)
(0,0,0)
(0,0,0)
(0,0,0)
(0,0,0)
(0,0,0)
(0,0,0)
(0,0,0)
(0,0,0)
(0,0,0)
(0,0,0)
(0,0,0)
(0,0,0)
(0,0,0)
(0,0,0)
(0,0,0)
(0,0,0)
(0,0,0)
(0,0,0)
(0,0,0)
(0,0,0)
(0,0,0)
(0,0,0)
(0,0,0)
(0,0,0)
(0,0,0)
(0,0,0)
(0,0,0)
(0,0,0)
(0,0,0)
(0,0,0)
(0,0,0)
(0,0,0)
(0,0,0)
(0,0,0)
(0,0,0)
(0,0,0)
(0,0,0)
(0,0,0)
(0,0,0)
(0,0,0)
(0,0,0)
(0,0,0)
(0,0,0)
(0,0,0)
(0,0,0)
(0,0,0)
(0,0,0)
(0,0,0)
(0,0,0)
(0,0,0)
(0,0,0)
(0,0,0)
(0,0,0)
(0,0,0)
(0,0,0)
(0,0,0)
(0,0,0)
(0,0,0)
(0,0,0)
(0,0,0)
(0,0,0)
(0,0,0)
(0,0,0)
(0,0,0)
(0,0,0)
(0,0,0)
(0,0,0)
(0,0,0)
(0,0,0)
(0,0,0)
(0,0,0)
(0,0,0)
(0,0,0)
(0,0,0)
(0,0,0)
(0,0,0)
(0,0,0)
(0,0,0)
(0,0,0)
(0,0,0)
(0,0,0)
(0,0,0)
(0,0,0)
(0,0,0)
(0,0,0)
(0,0,0)
(0,0,0)
(0,0,0)
(0,0,0)
(0,0,0)
(0,0,0)
(0,0,0)
(0,0,0)
(0,0,0)
(0,0,0)
(0,0,0)
(0,0,0)
(0,0,0)
(0,0,0)
(0,0,0)
(0,0,0)
(0,0,0)
(0,0,0)
(0,0,0)
(0,0,0)
(0,0,0)
(0,0,0)
(0,0,0)
(0,0,0)
(0,0,0)
(0,0,0)
(0,0,0)
(0,0,0)
(0,0,0)
(0,0,0)
(0,0,0)
(0,0,0)
(0,0,0)
(0,0,0)
(0,0,0)
(0,0,0)
(0,0,0)
(0,0,0)
(0,0,0)
(0,0,0)
(0,0,0)
(0,0,0)
(0,0,0)
(0,0,0)
(0,0,0)
(0,0,0)
(0,0,0)
(0,0,0)
(0,0,0)
(0,0,0)
(0,0,0)
(0,0,0)
(0,0,0)
(0,0,0)
(0,0,0)
(0,0,0)
(0,0,0)
(0,0,0)
(0,0,0)
(0,0,0)
(0,0,0)
(0,0,0)
(0,0,0)
(0,0,0)
(0,0,0)
(0,0,0)
(0,0,0)
(0,0,0)
(0,0,0)
(0,0,0)
(0,0,0)
(0,0,0)
(0,0,0)
(0,0,0)
(0,0,0)
(0,0,0)
(0,0,0)
(0,0,0)
(0,0,0)
(0,0,0)
(0,0,0)
(0,0,0)
(0,0,0)
(0,0,0)
(0,0,0)
(0,0,0)
(0,0,0)
(0,0,0)
(0,0,0)
(0,0,0)
(0,0,0)
(0,0,0)
(0,0,0)
(0,0,0)
(0,0,0)
(0,0,0)
(0,0,0)
(0,0,0)
(0,0,0)
(0,0,0)
(0,0,0)
(0,0,0)
(0,0,0)
(0,0,0)
(0,0,0)
(0,0,0)
(0,0,0)
(0,0,0)
(0,0,0)
(0,0,0)
(0,0,0)
(0,0,0)
(0,0,0)
(0,0,0)
(0,0,0)
(0,0,0)
(0,0,0)
(0,0,0)
(1.87396276396987e-12,-1.28331678835818e-11,1.47601451747603e-11)
(3.53493383436158e-12,-2.83125668161015e-11,1.42332560562116e-11)
(3.11946809700498e-12,-4.85309032672753e-11,1.32415503093224e-11)
(2.07503151958737e-12,-7.67545341369855e-11,1.15177797497575e-11)
(1.62142999179524e-12,-1.19484508899789e-10,9.04244001633391e-12)
(1.77090354978463e-13,-1.85750552361322e-10,6.0538255283363e-12)
(-7.74779671584111e-13,-2.93126756054316e-10,3.52379233529421e-12)
(-1.25539959901349e-12,-4.72233941535065e-10,1.53257369130944e-12)
(-5.66924720546051e-13,-7.69487420560169e-10,6.93194265601266e-13)
(5.62242373222401e-13,-1.1842974710801e-09,4.40207872244396e-13)
(0,0,0)
(0,0,0)
(0,0,0)
(0,0,0)
(0,0,0)
(0,0,0)
(3.34242639387221e-12,-1.21975252226975e-11,3.0609438198468e-11)
(5.13261889992574e-12,-2.70067978918121e-11,2.97724926633246e-11)
(4.52853821992988e-12,-4.6850193903898e-11,2.8058450346854e-11)
(3.32444616674094e-12,-7.44927246231669e-11,2.48915861819746e-11)
(2.46710215887644e-12,-1.16656271900132e-10,1.99302957097971e-11)
(1.60131981382796e-13,-1.83278734749165e-10,1.38662850828272e-11)
(-5.70697288503566e-13,-2.91208814990424e-10,8.05036751024469e-12)
(-7.7934593591055e-13,-4.71725756598826e-10,4.06852877435052e-12)
(-3.04791791994625e-13,-7.69812188111805e-10,2.52710484312209e-12)
(7.98829393149939e-13,-1.18449857107311e-09,1.68003546265199e-12)
(0,0,0)
(0,0,0)
(0,0,0)
(0,0,0)
(0,0,0)
(0,0,0)
(3.79050000180264e-12,-1.09291132673028e-11,5.04640774086693e-11)
(5.88828645481063e-12,-2.47545915182714e-11,4.91300707733313e-11)
(5.52491429495278e-12,-4.3163333039943e-11,4.67122575379312e-11)
(3.7148263036434e-12,-6.93056344449563e-11,4.24840797235223e-11)
(1.43211161083544e-12,-1.10668452654398e-10,3.55948124328331e-11)
(-9.18091347539577e-13,-1.77923418108865e-10,2.66936139729999e-11)
(-8.63101229253822e-13,-2.87720438394453e-10,1.77193620221987e-11)
(-5.5809653790977e-13,-4.70669848650949e-10,1.16057743061401e-11)
(8.77826719694279e-13,-7.69722070379098e-10,7.86327325092774e-12)
(2.27964938154223e-12,-1.18420934843175e-09,4.71238207739999e-12)
(0,0,0)
(0,0,0)
(0,0,0)
(0,0,0)
(0,0,0)
(0,0,0)
(3.3872697703471e-12,-9.07921728340222e-12,7.80799456497044e-11)
(5.61621663633205e-12,-2.18466157703852e-11,7.66592550737117e-11)
(5.56964364078572e-12,-3.84470496387124e-11,7.37013577317713e-11)
(3.9130693707258e-12,-6.23094004872289e-11,6.88315987768639e-11)
(6.02458197029236e-13,-1.0198864866906e-10,6.12893109737217e-11)
(-1.74112559755508e-12,-1.69441637259286e-10,5.05125182092084e-11)
(-4.48521047890463e-13,-2.82147955899068e-10,3.87520138046611e-11)
(1.46435063237988e-12,-4.68053611060519e-10,2.89113159707242e-11)
(4.028345485573e-12,-7.67767795352975e-10,2.01217629344117e-11)
(5.53103377616374e-12,-1.18130759127895e-09,1.07510991493672e-11)
(0,0,0)
(0,0,0)
(0,0,0)
(0,0,0)
(0,0,0)
(0,0,0)
(3.04910556552037e-12,-7.57444802861647e-12,1.19414275165649e-10)
(4.78765600761004e-12,-1.84483336431372e-11,1.18137270696246e-10)
(4.7632597100122e-12,-3.2799769281181e-11,1.15004889381507e-10)
(3.34830704815017e-12,-5.39107627869262e-11,1.10155531423354e-10)
(4.26854254199848e-13,-9.04875117477728e-11,1.02976740741045e-10)
(-1.21899730405603e-12,-1.56668759194558e-10,9.27868227388628e-11)
(9.9832278617664e-13,-2.7166673958883e-10,8.05494428555642e-11)
(3.5193373546273e-12,-4.6058981161214e-10,6.42435076913271e-11)
(6.07900454700963e-12,-7.60174713023135e-10,4.53456694584056e-11)
(7.0965409308612e-12,-1.1727646988013e-09,2.36377822900281e-11)
(0,0,0)
(0,0,0)
(0,0,0)
(0,0,0)
(0,0,0)
(0,0,0)
(2.86141636796356e-12,-6.2547047792539e-12,1.8330428558524e-10)
(4.48569382520437e-12,-1.46635133075911e-11,1.82897111421539e-10)
(4.00437055181337e-12,-2.66071230295907e-11,1.80585347301947e-10)
(1.83244727471743e-12,-4.46967918933946e-11,1.7655448944235e-10)
(-1.01189736830461e-12,-7.77981645052191e-11,1.70046385492824e-10)
(-2.0177056165704e-12,-1.42027974080586e-10,1.59604723519056e-10)
(-8.45820868045047e-14,-2.57985310566806e-10,1.43732593463923e-10)
(3.53578340840086e-12,-4.45105737269538e-10,1.19720814868279e-10)
(6.58839715944659e-12,-7.41288578947145e-10,8.68798008131949e-11)
(8.14921810242497e-12,-1.15160702620787e-09,4.59782436709222e-11)
(0,0,0)
(0,0,0)
(0,0,0)
(0,0,0)
(0,0,0)
(0,0,0)
(2.35185251641565e-12,-4.81578687747462e-12,2.88899056742263e-10)
(3.74569160241489e-12,-1.07353853008315e-11,2.88720234074997e-10)
(2.7021001579591e-12,-2.0490126961232e-11,2.87095771639038e-10)
(9.6990943667355e-13,-3.6015185554042e-11,2.83861700713541e-10)
(-9.93040739759895e-13,-6.54071281269885e-11,2.77989281775126e-10)
(-2.1621444936444e-12,-1.24686269247376e-10,2.66460040820055e-10)
(-1.97700424572336e-12,-2.35994761342914e-10,2.44213268694119e-10)
(1.00630291432204e-12,-4.14872687504861e-10,2.09989447837979e-10)
(4.02402609651002e-12,-7.02144180237772e-10,1.56603504207905e-10)
(5.48821439772709e-12,-1.10659860633211e-09,8.49915424941819e-11)
(0,0,0)
(0,0,0)
(0,0,0)
(0,0,0)
(0,0,0)
(0,0,0)
(2.05456420800636e-12,-3.43032157920371e-12,4.65461415321518e-10)
(2.96265928803657e-12,-7.43127578605229e-12,4.6520026598498e-10)
(1.04356723859443e-12,-1.54452416577603e-11,4.64160666776811e-10)
(-1.35004281655338e-12,-2.86114314688179e-11,4.61009540348556e-10)
(-3.90003987783061e-12,-5.39822945366562e-11,4.54623078273511e-10)
(-5.70113076860951e-12,-1.05870289172826e-10,4.40980419054129e-10)
(-5.50622953369042e-12,-2.02726495912207e-10,4.12927199638378e-10)
(-3.30598158742609e-12,-3.62022911168236e-10,3.62262008149435e-10)
(-1.52058748917475e-12,-6.30210532268132e-10,2.80038415585078e-10)
(-1.0973903421334e-12,-1.02058637956901e-09,1.58559055115059e-10)
(0,0,0)
(0,0,0)
(0,0,0)
(0,0,0)
(0,0,0)
(0,0,0)
(8.91550140287536e-13,-2.14178715931153e-12,7.59953060836654e-10)
(2.0127529910774e-12,-4.81008103721e-12,7.59287186399198e-10)
(-4.67813809004327e-13,-1.0724263989106e-11,7.58281085879985e-10)
(-4.59857709335325e-12,-2.07139212024797e-11,7.54778621651237e-10)
(-8.7948657801954e-12,-3.96837801192314e-11,7.46672182755969e-10)
(-1.09807014146202e-11,-7.87341337006843e-11,7.29121752664313e-10)
(-9.41152051707495e-12,-1.51852865929376e-10,6.93259739171449e-10)
(-6.3701553061574e-12,-2.79027582896376e-10,6.25266512125245e-10)
(-5.67365355782474e-12,-5.0753986478467e-10,5.05469073301473e-10)
(-5.8890833674778e-12,-8.60379656123162e-10,3.0354124407282e-10)
(0,0,0)
(0,0,0)
(0,0,0)
(0,0,0)
(0,0,0)
(0,0,0)
(-4.3391436166366e-13,-7.956542233675e-13,1.17295653386029e-09)
(6.09262551497068e-13,-2.38742608778847e-12,1.17239676247668e-09)
(-1.89975380672154e-12,-5.71238789397666e-12,1.170769202991e-09)
(-6.45311161762188e-12,-1.13818144146695e-11,1.16653616581926e-09)
(-1.13548489294049e-11,-2.15074120397827e-11,1.15659655913709e-09)
(-1.38211048840442e-11,-4.26069990784971e-11,1.13574473418427e-09)
(-1.16000207342823e-11,-8.29913722120555e-11,1.09369708741217e-09)
(-7.70722300298696e-12,-1.57873447062794e-10,1.01171472160396e-09)
(-6.7004888236464e-12,-3.04195687650329e-10,8.55389498645358e-10)
(-7.27909157811521e-12,-5.55200182141665e-10,5.52923970526502e-10)
(0,0,0)
(0,0,0)
(0,0,0)
(0,0,0)
(0,0,0)
(0,0,0)
(0,0,0)
(0,0,0)
(0,0,0)
(0,0,0)
(0,0,0)
(0,0,0)
(0,0,0)
(0,0,0)
(0,0,0)
(0,0,0)
(0,0,0)
(0,0,0)
(0,0,0)
(0,0,0)
(0,0,0)
(0,0,0)
(0,0,0)
(0,0,0)
(0,0,0)
(0,0,0)
(0,0,0)
(0,0,0)
(0,0,0)
(0,0,0)
(0,0,0)
(0,0,0)
(0,0,0)
(0,0,0)
(0,0,0)
(0,0,0)
(0,0,0)
(0,0,0)
(0,0,0)
(0,0,0)
(0,0,0)
(0,0,0)
(0,0,0)
(0,0,0)
(0,0,0)
(0,0,0)
(0,0,0)
(0,0,0)
(0,0,0)
(0,0,0)
(0,0,0)
(0,0,0)
(0,0,0)
(0,0,0)
(0,0,0)
(0,0,0)
(0,0,0)
(0,0,0)
(0,0,0)
(0,0,0)
(0,0,0)
(0,0,0)
(0,0,0)
(0,0,0)
(0,0,0)
(0,0,0)
(0,0,0)
(0,0,0)
(0,0,0)
(0,0,0)
(0,0,0)
(0,0,0)
(0,0,0)
(0,0,0)
(0,0,0)
(0,0,0)
(0,0,0)
(0,0,0)
(0,0,0)
(0,0,0)
(0,0,0)
(0,0,0)
(0,0,0)
(0,0,0)
(0,0,0)
(0,0,0)
(0,0,0)
(0,0,0)
(0,0,0)
(0,0,0)
(0,0,0)
(0,0,0)
(0,0,0)
(0,0,0)
(0,0,0)
(0,0,0)
(0,0,0)
(0,0,0)
(0,0,0)
(0,0,0)
(0,0,0)
(0,0,0)
(1.76520922163101e-12,-2.34344886596865e-11,2.76291997067299e-11)
(3.22087065695626e-12,-5.20427912920959e-11,2.65237016055834e-11)
(3.16252929317539e-12,-8.96288363202238e-11,2.48320284853221e-11)
(2.28856173917997e-12,-1.4117347181253e-10,2.12729270436103e-11)
(1.78180748008453e-12,-2.16524347205641e-10,1.58850884592525e-11)
(2.35305935944358e-13,-3.31156165391286e-10,9.74476216819566e-12)
(-7.01502091363777e-13,-5.1393827606921e-10,4.32392723288501e-12)
(-9.24205109666728e-13,-8.25846763189644e-10,1.04572586999803e-12)
(1.08292238751747e-14,-1.42004286102055e-09,-3.64095346690605e-13)
(1.2035502382179e-12,-2.78056134001774e-09,-3.55020017875625e-13)
(0,0,0)
(0,0,0)
(0,0,0)
(0,0,0)
(0,0,0)
(0,0,0)
(2.9109599736213e-12,-2.25161148552157e-11,5.79620299249672e-11)
(4.59445484286944e-12,-5.01054534468538e-11,5.59011085367957e-11)
(4.00854152083554e-12,-8.62492181828533e-11,5.20793764734698e-11)
(3.09864646073018e-12,-1.3649043122812e-10,4.51476733537644e-11)
(2.54329354012261e-12,-2.11165298569419e-10,3.44742522080549e-11)
(6.2073291365102e-13,-3.26706226734697e-10,2.17698111109653e-11)
(-7.72351487177374e-14,-5.11784979396783e-10,9.7885725464779e-12)
(-2.93829952084723e-13,-8.26004408336681e-10,3.49217259108393e-12)
(4.52159856144337e-13,-1.42137496907948e-09,1.3290107438919e-12)
(2.18964221433553e-12,-2.78164491017678e-09,6.70812589570947e-13)
(0,0,0)
(0,0,0)
(0,0,0)
(0,0,0)
(0,0,0)
(0,0,0)
(3.27461065324046e-12,-2.06971760114264e-11,9.39598000291755e-11)
(5.39812394232707e-12,-4.63457833887052e-11,9.16399601789015e-11)
(5.03680870816651e-12,-7.94604414568433e-11,8.63271217926112e-11)
(3.60785963659606e-12,-1.26545393321255e-10,7.69052860975787e-11)
(1.65350608526174e-12,-1.99380820824374e-10,6.17914105463001e-11)
(-4.25620246331805e-13,-3.16082315329282e-10,4.21170401603813e-11)
(-3.21996008477038e-13,-5.07082255558647e-10,2.23587053217738e-11)
(5.68166926692779e-13,-8.2680728312591e-10,1.30590018043278e-11)
(2.07444286703733e-12,-1.42385290386463e-09,8.89031324175743e-12)
(4.09027430555266e-12,-2.78361613432689e-09,5.23985787621492e-12)
(0,0,0)
(0,0,0)
(0,0,0)
(0,0,0)
(0,0,0)
(0,0,0)
(3.30319109155488e-12,-1.81419131207884e-11,1.42965204962864e-10)
(5.17583185102391e-12,-4.07975375511182e-11,1.4071893109769e-10)
(4.79212223814866e-12,-6.96177562276459e-11,1.34761439363088e-10)
(3.05671947356408e-12,-1.1154208561313e-10,1.24455264811106e-10)
(-1.21885959727311e-13,-1.79976225612124e-10,1.07741924782206e-10)
(-2.75349925773048e-12,-2.96239069357533e-10,8.35121892789322e-11)
(-1.08903952421751e-12,-4.96885505940275e-10,5.70622678935085e-11)
(2.79010422033245e-12,-8.26584829399638e-10,4.21870632141496e-11)
(5.8059269415812e-12,-1.42492459079987e-09,3.05236371610777e-11)
(7.73924044945121e-12,-2.78268618944085e-09,1.65765308620083e-11)
(0,0,0)
(0,0,0)
(0,0,0)
(0,0,0)
(0,0,0)
(0,0,0)
(3.00636678555952e-12,-1.49964985656512e-11,2.15932285158064e-10)
(4.13521698680052e-12,-3.33783272603796e-11,2.13945553825005e-10)
(3.41997141657103e-12,-5.73008534411729e-11,2.08103352232703e-10)
(1.31312683693007e-12,-9.27075022329382e-11,1.98362009867399e-10)
(-2.07257498617135e-12,-1.52912373046416e-10,1.83633892373197e-10)
(-3.62240253480403e-12,-2.64051549586323e-10,1.63491308471137e-10)
(3.62282892848229e-12,-4.72178432394729e-10,1.44308802073824e-10)
(6.93310124513643e-12,-8.18924557624833e-10,1.11969302416476e-10)
(8.90075763898106e-12,-1.41663763055029e-09,7.81733371956118e-11)
(9.57665062727943e-12,-2.77098432523249e-09,4.05723938488113e-11)
(0,0,0)
(0,0,0)
(0,0,0)
(0,0,0)
(0,0,0)
(0,0,0)
(1.82967262988729e-12,-1.16149277665031e-11,3.27536984962445e-10)
(2.86932993803182e-12,-2.54774317423744e-11,3.26346685478532e-10)
(1.91823234304304e-12,-4.44577283768747e-11,3.21824545910319e-10)
(-3.41055115106115e-13,-7.33267682626199e-11,3.14079040143993e-10)
(-2.96127177275392e-12,-1.25338664566504e-10,3.0222520045066e-10)
(-3.48728039464914e-12,-2.32589294523683e-10,2.84409747940535e-10)
(1.93664728487714e-12,-4.50907321915091e-10,2.59758775097036e-10)
(6.14374769870549e-12,-7.95420579548913e-10,2.15809403828093e-10)
(8.3455555923351e-12,-1.38596813942481e-09,1.549849552782e-10)
(9.11904189794048e-12,-2.73517437109757e-09,8.13462264653047e-11)
(0,0,0)
(0,0,0)
(0,0,0)
(0,0,0)
(0,0,0)
(0,0,0)
(1.14520988540879e-12,-8.73372415519786e-12,5.06285842129806e-10)
(2.06604452359732e-12,-1.85096077272497e-11,5.05549474031716e-10)
(8.91285779990891e-13,-3.28627459289278e-11,5.02656378588752e-10)
(-5.61425710143107e-13,-5.57940012913353e-11,4.97494068457699e-10)
(-8.88633374977841e-13,-9.96129693263662e-11,4.8945246957374e-10)
(1.26864755772844e-12,-1.96405331081444e-10,4.73846326700341e-10)
(-1.02144882028202e-12,-4.12536895540532e-10,4.32737642373664e-10)
(1.54247020754087e-12,-7.41843963216837e-10,3.78656671459297e-10)
(3.70233984098273e-12,-1.31667197759739e-09,2.79916728553587e-10)
(4.46753012968052e-12,-2.65609551488747e-09,1.50652915669806e-10)
(0,0,0)
(0,0,0)
(0,0,0)
(0,0,0)
(0,0,0)
(0,0,0)
(1.02717912465305e-12,-6.29937487114728e-12,8.12447134128156e-10)
(1.381063747365e-12,-1.31138949093756e-11,8.1165137573709e-10)
(-5.2628400180002e-13,-2.4354472492171e-11,8.09778630863606e-10)
(-2.86109100784825e-12,-4.38916505768104e-11,8.05338943895568e-10)
(-4.55589507589916e-12,-8.44363212463191e-11,7.97330698451226e-10)
(-4.78406682492125e-12,-1.74351727361963e-10,7.79691977005994e-10)
(-5.71466802751219e-12,-3.57808470095721e-10,7.35806844445381e-10)
(-4.07771729517179e-12,-6.43496775885364e-10,6.45624673985224e-10)
(-2.71189450254564e-12,-1.18732696347875e-09,4.97424643645448e-10)
(-2.74505867388929e-12,-2.50435317138348e-09,2.82866206111567e-10)
(0,0,0)
(0,0,0)
(0,0,0)
(0,0,0)
(0,0,0)
(0,0,0)
(2.11291641799647e-13,-3.76377285230276e-12,1.40234229920095e-09)
(5.9619856086907e-13,-8.26089572010298e-12,1.40106917505739e-09)
(-1.97722567537993e-12,-1.67148512741727e-11,1.39918280387622e-09)
(-5.82424498589007e-12,-3.2349842575639e-11,1.39384303141794e-09)
(-9.42080376797846e-12,-6.46603153434023e-11,1.38183258559741e-09)
(-1.12458225439822e-11,-1.33514417043983e-10,1.35508839682545e-09)
(-1.02797871881626e-11,-2.65906123856594e-10,1.29597386919478e-09)
(-7.72685231595216e-12,-4.93312462816208e-10,1.17694350978273e-09)
(-7.0900014635663e-12,-9.70501499347971e-10,9.66696974958478e-10)
(-7.52731327616758e-12,-2.21859829120016e-09,6.04084689402403e-10)
(0,0,0)
(0,0,0)
(0,0,0)
(0,0,0)
(0,0,0)
(0,0,0)
(-6.69797201414177e-13,-1.58522808742654e-12,2.76045057540923e-09)
(-1.50604050614827e-13,-4.02580230753215e-12,2.75877368627225e-09)
(-3.37910452896147e-12,-8.79733258154822e-12,2.75605628089924e-09)
(-7.89531935011829e-12,-1.7980780381057e-11,2.74953542580021e-09)
(-1.20104360163834e-11,-3.5921392210203e-11,2.73362077394136e-09)
(-1.43804571904434e-11,-7.32042327153415e-11,2.69933613983675e-09)
(-1.26090271381682e-11,-1.44545652594922e-10,2.62810721658788e-09)
(-9.25544710714501e-12,-2.80232865809116e-10,2.48640508734435e-09)
(-8.43064835512202e-12,-6.04971967767406e-10,2.20969943293924e-09)
(-9.55530319315237e-12,-1.61152390447416e-09,1.60831304775946e-09)
(0,0,0)
(0,0,0)
(0,0,0)
(0,0,0)
(0,0,0)
(0,0,0)
(0,0,0)
(0,0,0)
(0,0,0)
(0,0,0)
(0,0,0)
(0,0,0)
(0,0,0)
(0,0,0)
(0,0,0)
(0,0,0)
(0,0,0)
(0,0,0)
(0,0,0)
(0,0,0)
(0,0,0)
(0,0,0)
(0,0,0)
(0,0,0)
(0,0,0)
(0,0,0)
(0,0,0)
(0,0,0)
(0,0,0)
(0,0,0)
(0,0,0)
(0,0,0)
(0,0,0)
(0,0,0)
(0,0,0)
(0,0,0)
(0,0,0)
(0,0,0)
(0,0,0)
(0,0,0)
(0,0,0)
(0,0,0)
(0,0,0)
(0,0,0)
(0,0,0)
(0,0,0)
(0,0,0)
(0,0,0)
(0,0,0)
(0,0,0)
(0,0,0)
(0,0,0)
(0,0,0)
(0,0,0)
(0,0,0)
(0,0,0)
(0,0,0)
(0,0,0)
(0,0,0)
(0,0,0)
(0,0,0)
(0,0,0)
(0,0,0)
(0,0,0)
(0,0,0)
(0,0,0)
(0,0,0)
(0,0,0)
(0,0,0)
(0,0,0)
(0,0,0)
(0,0,0)
(0,0,0)
(0,0,0)
(0,0,0)
(0,0,0)
(0,0,0)
(0,0,0)
(0,0,0)
(0,0,0)
(0,0,0)
(0,0,0)
(0,0,0)
(0,0,0)
(0,0,0)
(0,0,0)
(0,0,0)
(0,0,0)
(0,0,0)
(0,0,0)
(0,0,0)
(0,0,0)
(0,0,0)
(0,0,0)
(0,0,0)
(0,0,0)
(0,0,0)
(0,0,0)
(0,0,0)
(0,0,0)
(0,0,0)
(0,0,0)
(1.95233351778095e-12,-3.33515606605321e-11,3.73233078802429e-11)
(2.97520593220903e-12,-7.13204338707432e-11,3.56015023183771e-11)
(3.3420125984133e-12,-1.20676124739738e-10,3.2799249514801e-11)
(2.9933597392089e-12,-1.87536076665046e-10,2.76085669892834e-11)
(2.56308513426403e-12,-2.80319602501982e-10,1.96344562712237e-11)
(1.20620221506684e-12,-4.14888204477405e-10,9.73285260827914e-12)
(4.23402598431536e-13,-6.10871273785388e-10,2.87977190065271e-13)
(6.43261253796291e-13,-8.96503887677129e-10,-3.96517150451806e-12)
(1.33386195467105e-12,-1.30256339313508e-09,-4.14911417857991e-12)
(1.93210037841897e-12,-1.79792811324951e-09,-2.30261295318006e-12)
(0,0,0)
(0,0,0)
(0,0,0)
(0,0,0)
(0,0,0)
(0,0,0)
(3.15294251787507e-12,-3.15989106501167e-11,7.81633545251205e-11)
(4.65651684704977e-12,-6.82376691963072e-11,7.48312229402628e-11)
(4.15146791399279e-12,-1.15390813448464e-10,6.87260080264789e-11)
(3.82702969993813e-12,-1.8000262347589e-10,5.80293654866193e-11)
(3.46325689249478e-12,-2.71758760679081e-10,4.1305538839621e-11)
(1.97806007219992e-12,-4.07787256889163e-10,1.95105083760361e-11)
(1.51644096796501e-12,-6.09428692691704e-10,-2.28839448363529e-12)
(2.67220668508137e-12,-8.99082578694086e-10,-8.9416523193024e-12)
(3.58829279588658e-12,-1.30654579822772e-09,-6.93778949889744e-12)
(4.83167895466301e-12,-1.80163581680049e-09,-3.20440441083372e-12)
(0,0,0)
(0,0,0)
(0,0,0)
(0,0,0)
(0,0,0)
(0,0,0)
(3.03918761085586e-12,-2.84437390556911e-11,1.2665248325176e-10)
(5.16271649201727e-12,-6.20807685272783e-11,1.22883058215581e-10)
(4.61595917431975e-12,-1.04860772018297e-10,1.14416041914878e-10)
(3.71842747976984e-12,-1.64062204659324e-10,9.90364448012799e-11)
(1.92328125867263e-12,-2.51980418568648e-10,7.35722279795994e-11)
(-5.10531379766677e-13,-3.89721692569986e-10,3.65871827692474e-11)
(-1.21904210907145e-12,-6.07194671703256e-10,-5.05254227357234e-12)
(4.51440176303609e-12,-9.07520419623357e-10,-1.05853137155626e-11)
(6.79658516831037e-12,-1.315981461463e-09,-4.24713461430024e-12)
(8.40018729566335e-12,-1.80916344053943e-09,-1.77404900350615e-13)
(0,0,0)
(0,0,0)
(0,0,0)
(0,0,0)
(0,0,0)
(0,0,0)
(2.40405040043333e-12,-2.46616722026153e-11,1.90188567369738e-10)
(3.71411329593306e-12,-5.31828011727286e-11,1.86381468357961e-10)
(2.78139400350129e-12,-8.89710090813682e-11,1.76693335287727e-10)
(9.35476120887288e-13,-1.38863463759952e-10,1.59353351430922e-10)
(-2.9560030232094e-12,-2.16695055621555e-10,1.29882504285273e-10)
(-8.49109764173979e-12,-3.50733033953685e-10,8.1387595574549e-11)
(-1.0920908390009e-11,-5.99867897483545e-10,1.51324918906934e-11)
(6.79325849831505e-12,-9.2452475154741e-10,1.44699126607346e-11)
(1.14660729918693e-11,-1.32950351339147e-09,1.89000062029119e-11)
(1.26139071015784e-11,-1.81606673081766e-09,1.30095584411779e-11)
(0,0,0)
(0,0,0)
(0,0,0)
(0,0,0)
(0,0,0)
(0,0,0)
(1.61152731989698e-12,-2.00575276418809e-11,2.80391315518032e-10)
(2.07652306164426e-12,-4.20951439370129e-11,2.77085677672873e-10)
(3.18188715867289e-13,-6.97474508917342e-11,2.67822629252867e-10)
(-3.33948963905488e-12,-1.07299790822452e-10,2.51632083945199e-10)
(-9.50369956216375e-12,-1.65668042473662e-10,2.2675629245557e-10)
(-1.59021512008938e-11,-2.7439293189296e-10,1.93856051180447e-10)
(1.46912181046308e-11,-5.32577503883178e-10,1.94994749535094e-10)
(1.72250883895326e-11,-9.42393275145414e-10,1.28125138805932e-10)
(1.58322098621648e-11,-1.33609335318058e-09,8.74579581400079e-11)
(1.43390903406283e-11,-1.81089092941283e-09,4.57597948270444e-11)
(0,0,0)
(0,0,0)
(0,0,0)
(0,0,0)
(0,0,0)
(0,0,0)
(1.38768502207744e-13,-1.53385471687592e-11,4.09890891374256e-10)
(4.23645490960762e-13,-3.08715040810689e-11,4.07544957733543e-10)
(-1.93124433882716e-12,-5.02163104226318e-11,4.00712460190728e-10)
(-6.01998239235655e-12,-7.59133912445555e-11,3.88930892975918e-10)
(-1.08715145028533e-11,-1.17358783258311e-10,3.72064779080093e-10)
(-1.50202709938398e-11,-2.16754406840043e-10,3.4840487634751e-10)
(7.51559218041798e-12,-5.35263647807393e-10,3.39076600182562e-10)
(1.3391579914831e-11,-9.29717023528054e-10,2.71676142159544e-10)
(1.26881225795726e-11,-1.30683476141908e-09,1.90286742093158e-10)
(1.1386412152571e-11,-1.77142120272408e-09,9.83047514038952e-11)
(0,0,0)
(0,0,0)
(0,0,0)
(0,0,0)
(0,0,0)
(0,0,0)
(-5.52771298917979e-13,-1.13082880374276e-11,5.98376960870849e-10)
(-4.36572853620723e-13,-2.14850101053422e-11,5.96694145324516e-10)
(-2.45467752522281e-12,-3.38055814084824e-11,5.92904677881345e-10)
(-4.42217754114086e-12,-4.92693584769941e-11,5.88147094587444e-10)
(-4.5913858079467e-13,-7.17558824062674e-11,5.86951947287442e-10)
(2.03237281646863e-11,-1.34196718900744e-10,5.90052799762365e-10)
(-1.66890335106011e-12,-4.91997022287338e-10,5.04605725935889e-10)
(1.93522578134774e-12,-8.67673468759165e-10,4.87907863322426e-10)
(3.62113860690169e-12,-1.22210035973281e-09,3.40937110105883e-10)
(3.37810229495506e-12,-1.67539741734432e-09,1.75809490537509e-10)
(0,0,0)
(0,0,0)
(0,0,0)
(0,0,0)
(0,0,0)
(0,0,0)
(-7.12664501812146e-13,-7.67414350746372e-12,8.76652788062865e-10)
(-1.59919056856656e-12,-1.45235013537576e-11,8.74868442151433e-10)
(-3.72621825188135e-12,-2.38469290031935e-11,8.72314503250518e-10)
(-6.39465356472954e-12,-3.91936968844567e-11,8.69840159496644e-10)
(-6.69317953330098e-12,-7.21702857918763e-11,8.70225670048195e-10)
(-1.73624458209622e-12,-1.68035856478109e-10,8.71964627585244e-10)
(-7.43484380678509e-12,-4.47041954871035e-10,8.45850157244141e-10)
(-6.06200002561537e-12,-7.16967802422896e-10,7.20082100671104e-10)
(-4.97892109976606e-12,-1.0553451038367e-09,5.26088221023615e-10)
(-5.63373274449205e-12,-1.49728975706929e-09,2.84274304658162e-10)
(0,0,0)
(0,0,0)
(0,0,0)
(0,0,0)
(0,0,0)
(0,0,0)
(-6.94128979993139e-13,-4.19524051055779e-12,1.27724905500907e-09)
(-1.75252367112991e-12,-8.73652903014223e-12,1.27581675407023e-09)
(-4.55497190896971e-12,-1.652015680877e-11,1.27362092967314e-09)
(-8.18286135994386e-12,-3.17292922687759e-11,1.26903953097786e-09)
(-1.14155381286522e-11,-6.51140198510287e-11,1.26087102745365e-09)
(-1.24414792418465e-11,-1.45545941962978e-10,1.24137413764925e-09)
(-1.26098990375299e-11,-3.1383741751035e-10,1.18406003079218e-09)
(-1.05599145008239e-11,-5.18159117080139e-10,1.03910585447511e-09)
(-1.00072474865899e-11,-8.09553370819698e-10,8.04697085652999e-10)
(-1.05170106000837e-11,-1.20920495625621e-09,4.62599852478896e-10)
(0,0,0)
(0,0,0)
(0,0,0)
(0,0,0)
(0,0,0)
(0,0,0)
(-5.78136153007291e-13,-1.95719669446879e-12,1.76995740296931e-09)
(-1.4590009852896e-12,-4.25544990169217e-12,1.76823711990321e-09)
(-5.65558201145646e-12,-8.67918693449618e-12,1.76563938320793e-09)
(-9.96144787267942e-12,-1.83878449170334e-11,1.75899782112275e-09)
(-1.36471941208988e-11,-3.87126108269121e-11,1.7437201580799e-09)
(-1.63557666581262e-11,-8.2583499634878e-11,1.7098224301888e-09)
(-1.54525504882541e-11,-1.638755389504e-10,1.63209624870179e-09)