/*--------------------------------*- C++ -*----------------------------------*\
| =========                 |                                                 |
| \\      /  F ield         | foam-extend: Open Source CFD                    |
|  \\    /   O peration     | Version:     4.0                                |
|   \\  /    A nd           | Web:         http://www.foam-extend.org         |
|    \\/     M anipulation  |                                                 |
\*---------------------------------------------------------------------------*/
FoamFile
{
    version 2.0;
    format ascii;
    class volVectorField;
    location "3814";
    object      H;
}
// * * * * * * * * * * * * * * * * * * * * * * * * * * * * * * * * * * * * * //

dimensions      [0 1 -1 0 0 0 0];

internalField   nonuniform List<vector>
4096
(
(0,0,0)
(0,0,0)
(0,0,0)
(0,0,0)
(0,0,0)
(0,0,0)
(0,0,0)
(0,0,0)
(0,0,0)
(0,0,0)
(0,0,0)
(0,0,0)
(0,0,0)
(0,0,0)
(0,0,0)
(0,0,0)
(0,0,0)
(0,0,0)
(0,0,0)
(0,0,0)
(0,0,0)
(0,0,0)
(0,0,0)
(0,0,0)
(0,0,0)
(0,0,0)
(0,0,0)
(0,0,0)
(0,0,0)
(0,0,0)
(0,0,0)
(0,0,0)
(0,0,0)
(0,0,0)
(0,0,0)
(0,0,0)
(0,0,0)
(0,0,0)
(0,0,0)
(0,0,0)
(0,0,0)
(0,0,0)
(0,0,0)
(0,0,0)
(0,0,0)
(0,0,0)
(0,0,0)
(0,0,0)
(0,0,0)
(0,0,0)
(0,0,0)
(0,0,0)
(0,0,0)
(0,0,0)
(0,0,0)
(0,0,0)
(0,0,0)
(0,0,0)
(0,0,0)
(0,0,0)
(0,0,0)
(0,0,0)
(0,0,0)
(0,0,0)
(0,0,0)
(0,0,0)
(0,0,0)
(0,0,0)
(0,0,0)
(0,0,0)
(0,0,0)
(0,0,0)
(0,0,0)
(0,0,0)
(0,0,0)
(0,0,0)
(0,0,0)
(0,0,0)
(0,0,0)
(0,0,0)
(0,0,0)
(0,0,0)
(0,0,0)
(0,0,0)
(0,0,0)
(0,0,0)
(0,0,0)
(0,0,0)
(0,0,0)
(0,0,0)
(0,0,0)
(0,0,0)
(0,0,0)
(0,0,0)
(0,0,0)
(0,0,0)
(0,0,0)
(0,0,0)
(0,0,0)
(0,0,0)
(0,0,0)
(0,0,0)
(0,0,0)
(0,0,0)
(0,0,0)
(0,0,0)
(0,0,0)
(0,0,0)
(0,0,0)
(0,0,0)
(0,0,0)
(0,0,0)
(0,0,0)
(0,0,0)
(0,0,0)
(0,0,0)
(0,0,0)
(0,0,0)
(0,0,0)
(0,0,0)
(0,0,0)
(0,0,0)
(0,0,0)
(0,0,0)
(0,0,0)
(0,0,0)
(0,0,0)
(0,0,0)
(0,0,0)
(0,0,0)
(0,0,0)
(0,0,0)
(0,0,0)
(0,0,0)
(0,0,0)
(0,0,0)
(0,0,0)
(0,0,0)
(0,0,0)
(0,0,0)
(0,0,0)
(0,0,0)
(0,0,0)
(0,0,0)
(0,0,0)
(0,0,0)
(0,0,0)
(0,0,0)
(0,0,0)
(0,0,0)
(0,0,0)
(0,0,0)
(0,0,0)
(0,0,0)
(0,0,0)
(0,0,0)
(0,0,0)
(0,0,0)
(0,0,0)
(0,0,0)
(0,0,0)
(0,0,0)
(0,0,0)
(0,0,0)
(0,0,0)
(0,0,0)
(0,0,0)
(0,0,0)
(0,0,0)
(0,0,0)
(0,0,0)
(0,0,0)
(0,0,0)
(0,0,0)
(0,0,0)
(0,0,0)
(0,0,0)
(0,0,0)
(0,0,0)
(0,0,0)
(0,0,0)
(0,0,0)
(0,0,0)
(0,0,0)
(0,0,0)
(0,0,0)
(0,0,0)
(0,0,0)
(0,0,0)
(0,0,0)
(0,0,0)
(0,0,0)
(0,0,0)
(0,0,0)
(0,0,0)
(0,0,0)
(0,0,0)
(0,0,0)
(0,0,0)
(0,0,0)
(0,0,0)
(0,0,0)
(0,0,0)
(0,0,0)
(0,0,0)
(0,0,0)
(0,0,0)
(0,0,0)
(0,0,0)
(0,0,0)
(0,0,0)
(0,0,0)
(0,0,0)
(0,0,0)
(0,0,0)
(0,0,0)
(0,0,0)
(0,0,0)
(0,0,0)
(0,0,0)
(0,0,0)
(0,0,0)
(0,0,0)
(0,0,0)
(0,0,0)
(0,0,0)
(0,0,0)
(0,0,0)
(0,0,0)
(0,0,0)
(0,0,0)
(0,0,0)
(0,0,0)
(0,0,0)
(0,0,0)
(0,0,0)
(0,0,0)
(0,0,0)
(0,0,0)
(0,0,0)
(0,0,0)
(0,0,0)
(0,0,0)
(0,0,0)
(0,0,0)
(0,0,0)
(0,0,0)
(0,0,0)
(0,0,0)
(0,0,0)
(0,0,0)
(0,0,0)
(0,0,0)
(0,0,0)
(0,0,0)
(0,0,0)
(0,0,0)
(0,0,0)
(0,0,0)
(0,0,0)
(0,0,0)
(0,0,0)
(0,0,0)
(0,0,0)
(0,0,0)
(0,0,0)
(0,0,0)
(0,0,0)
(0,0,0)
(0,0,0)
(0,0,0)
(0,0,0)
(0,0,0)
(0,0,0)
(0,0,0)
(0,0,0)
(0,0,0)
(0,0,0)
(0,0,0)
(0,0,0)
(0,0,0)
(0,0,0)
(0,0,0)
(0,0,0)
(0,0,0)
(0,0,0)
(0,0,0)
(0,0,0)
(0,0,0)
(0,0,0)
(0,0,0)
(0,0,0)
(0,0,0)
(0,0,0)
(0,0,0)
(0,0,0)
(0,0,0)
(0,0,0)
(0,0,0)
(0,0,0)
(0,0,0)
(0,0,0)
(0,0,0)
(0,0,0)
(0,0,0)
(0,0,0)
(0,0,0)
(0,0,0)
(0,0,0)
(0,0,0)
(0,0,0)
(0,0,0)
(0,0,0)
(0,0,0)
(0,0,0)
(0,0,0)
(0,0,0)
(0,0,0)
(0,0,0)
(0,0,0)
(0,0,0)
(0,0,0)
(0,0,0)
(0,0,0)
(0,0,0)
(0,0,0)
(0,0,0)
(0,0,0)
(0,0,0)
(0,0,0)
(0,0,0)
(0,0,0)
(0,0,0)
(0,0,0)
(0,0,0)
(0,0,0)
(0,0,0)
(0,0,0)
(0,0,0)
(0,0,0)
(0,0,0)
(0,0,0)
(0,0,0)
(0,0,0)
(0,0,0)
(0,0,0)
(0,0,0)
(0,0,0)
(0,0,0)
(0,0,0)
(0,0,0)
(0,0,0)
(0,0,0)
(0,0,0)
(0,0,0)
(0,0,0)
(0,0,0)
(0,0,0)
(0,0,0)
(0,0,0)
(0,0,0)
(0,0,0)
(0,0,0)
(0,0,0)
(0,0,0)
(0,0,0)
(0,0,0)
(0,0,0)
(0,0,0)
(0,0,0)
(0,0,0)
(0,0,0)
(0,0,0)
(0,0,0)
(0,0,0)
(0,0,0)
(0,0,0)
(0,0,0)
(0,0,0)
(0,0,0)
(0,0,0)
(0,0,0)
(0,0,0)
(0,0,0)
(0,0,0)
(0,0,0)
(0,0,0)
(0,0,0)
(0,0,0)
(0,0,0)
(0,0,0)
(0,0,0)
(0,0,0)
(0,0,0)
(0,0,0)
(0,0,0)
(0,0,0)
(0,0,0)
(0,0,0)
(0,0,0)
(0,0,0)
(0,0,0)
(0,0,0)
(0,0,0)
(0,0,0)
(0,0,0)
(0,0,0)
(0,0,0)
(0,0,0)
(0,0,0)
(0,0,0)
(0,0,0)
(0,0,0)
(0,0,0)
(0,0,0)
(0,0,0)
(0,0,0)
(0,0,0)
(0,0,0)
(0,0,0)
(0,0,0)
(0,0,0)
(0,0,0)
(0,0,0)
(0,0,0)
(0,0,0)
(0,0,0)
(0,0,0)
(0,0,0)
(0,0,0)
(0,0,0)
(0,0,0)
(0,0,0)
(0,0,0)
(0,0,0)
(0,0,0)
(0,0,0)
(0,0,0)
(0,0,0)
(0,0,0)
(0,0,0)
(0,0,0)
(0,0,0)
(0,0,0)
(0,0,0)
(0,0,0)
(0,0,0)
(0,0,0)
(0,0,0)
(0,0,0)
(0,0,0)
(0,0,0)
(0,0,0)
(0,0,0)
(0,0,0)
(0,0,0)
(0,0,0)
(0,0,0)
(0,0,0)
(0,0,0)
(0,0,0)
(0,0,0)
(0,0,0)
(0,0,0)
(0,0,0)
(0,0,0)
(0,0,0)
(0,0,0)
(0,0,0)
(0,0,0)
(0,0,0)
(0,0,0)
(0,0,0)
(0,0,0)
(0,0,0)
(0,0,0)
(0,0,0)
(0,0,0)
(0,0,0)
(0,0,0)
(0,0,0)
(0,0,0)
(0,0,0)
(0,0,0)
(0,0,0)
(0,0,0)
(0,0,0)
(0,0,0)
(0,0,0)
(0,0,0)
(0,0,0)
(0,0,0)
(0,0,0)
(0,0,0)
(0,0,0)
(0,0,0)
(0,0,0)
(0,0,0)
(0,0,0)
(0,0,0)
(0,0,0)
(0,0,0)
(0,0,0)
(0,0,0)
(0,0,0)
(0,0,0)
(0,0,0)
(0,0,0)
(0,0,0)
(0,0,0)
(0,0,0)
(0,0,0)
(0,0,0)
(0,0,0)
(0,0,0)
(0,0,0)
(0,0,0)
(0,0,0)
(0,0,0)
(0,0,0)
(0,0,0)
(0,0,0)
(0,0,0)
(0,0,0)
(0,0,0)
(0,0,0)
(0,0,0)
(0,0,0)
(0,0,0)
(0,0,0)
(0,0,0)
(0,0,0)
(0,0,0)
(0,0,0)
(0,0,0)
(0,0,0)
(0,0,0)
(0,0,0)
(0,0,0)
(0,0,0)
(0,0,0)
(0,0,0)
(0,0,0)
(0,0,0)
(0,0,0)
(0,0,0)
(0,0,0)
(0,0,0)
(0,0,0)
(0,0,0)
(0,0,0)
(0,0,0)
(0,0,0)
(0,0,0)
(0,0,0)
(0,0,0)
(0,0,0)
(0,0,0)
(0,0,0)
(0,0,0)
(0,0,0)
(0,0,0)
(0,0,0)
(0,0,0)
(0,0,0)
(0,0,0)
(0,0,0)
(0,0,0)
(0,0,0)
(0,0,0)
(0,0,0)
(0,0,0)
(0,0,0)
(0,0,0)
(0,0,0)
(0,0,0)
(0,0,0)
(0,0,0)
(0,0,0)
(0,0,0)
(0,0,0)
(0,0,0)
(0,0,0)
(0,0,0)
(0,0,0)
(0,0,0)
(0,0,0)
(0,0,0)
(0,0,0)
(0,0,0)
(0,0,0)
(0,0,0)
(0,0,0)
(0,0,0)
(0,0,0)
(0,0,0)
(0,0,0)
(0,0,0)
(0,0,0)
(0,0,0)
(0,0,0)
(0,0,0)
(0,0,0)
(0,0,0)
(0,0,0)
(0,0,0)
(0,0,0)
(0,0,0)
(0,0,0)
(0,0,0)
(0,0,0)
(0,0,0)
(0,0,0)
(0,0,0)
(0,0,0)
(0,0,0)
(0,0,0)
(0,0,0)
(0,0,0)
(0,0,0)
(0,0,0)
(0,0,0)
(0,0,0)
(0,0,0)
(0,0,0)
(0,0,0)
(0,0,0)
(0,0,0)
(0,0,0)
(0,0,0)
(0,0,0)
(0,0,0)
(0,0,0)
(0,0,0)
(0,0,0)
(0,0,0)
(0,0,0)
(0,0,0)
(0,0,0)
(0,0,0)
(0,0,0)
(0,0,0)
(0,0,0)
(0,0,0)
(0,0,0)
(0,0,0)
(0,0,0)
(0,0,0)
(0,0,0)
(0,0,0)
(0,0,0)
(0,0,0)
(0,0,0)
(0,0,0)
(0,0,0)
(0,0,0)
(0,0,0)
(0,0,0)
(0,0,0)
(0,0,0)
(0,0,0)
(0,0,0)
(0,0,0)
(0,0,0)
(0,0,0)
(0,0,0)
(0,0,0)
(0,0,0)
(0,0,0)
(0,0,0)
(0,0,0)
(0,0,0)
(0,0,0)
(0,0,0)
(0,0,0)
(0,0,0)
(0,0,0)
(0,0,0)
(0,0,0)
(0,0,0)
(0,0,0)
(0,0,0)
(0,0,0)
(0,0,0)
(0,0,0)
(0,0,0)
(0,0,0)
(0,0,0)
(0,0,0)
(0,0,0)
(0,0,0)
(0,0,0)
(0,0,0)
(0,0,0)
(0,0,0)
(0,0,0)
(0,0,0)
(0,0,0)
(0,0,0)
(0,0,0)
(0,0,0)
(0,0,0)
(0,0,0)
(0,0,0)
(0,0,0)
(0,0,0)
(0,0,0)
(0,0,0)
(0,0,0)
(0,0,0)
(0,0,0)
(0,0,0)
(0,0,0)
(0,0,0)
(0,0,0)
(0,0,0)
(0,0,0)
(0,0,0)
(0,0,0)
(0,0,0)
(0,0,0)
(0,0,0)
(0,0,0)
(0,0,0)
(0,0,0)
(0,0,0)
(0,0,0)
(0,0,0)
(0,0,0)
(0,0,0)
(0,0,0)
(0,0,0)
(0,0,0)
(0,0,0)
(0,0,0)
(0,0,0)
(0,0,0)
(0,0,0)
(0,0,0)
(0,0,0)
(0,0,0)
(0,0,0)
(0,0,0)
(0,0,0)
(0,0,0)
(0,0,0)
(0,0,0)
(0,0,0)
(0,0,0)
(0,0,0)
(0,0,0)
(0,0,0)
(0,0,0)
(0,0,0)
(0,0,0)
(0,0,0)
(0,0,0)
(0,0,0)
(0,0,0)
(0,0,0)
(0,0,0)
(0,0,0)
(0,0,0)
(0,0,0)
(0,0,0)
(0,0,0)
(0,0,0)
(0,0,0)
(0,0,0)
(0,0,0)
(0,0,0)
(0,0,0)
(0,0,0)
(0,0,0)
(0,0,0)
(0,0,0)
(0,0,0)
(0,0,0)
(0,0,0)
(0,0,0)
(0,0,0)
(0,0,0)
(0,0,0)
(0,0,0)
(0,0,0)
(0,0,0)
(0,0,0)
(0,0,0)
(0,0,0)
(0,0,0)
(0,0,0)
(0,0,0)
(0,0,0)
(0,0,0)
(0,0,0)
(0,0,0)
(0,0,0)
(0,0,0)
(0,0,0)
(0,0,0)
(0,0,0)
(0,0,0)
(0,0,0)
(0,0,0)
(0,0,0)
(0,0,0)
(0,0,0)
(0,0,0)
(0,0,0)
(0,0,0)
(0,0,0)
(0,0,0)
(0,0,0)
(0,0,0)
(0,0,0)
(0,0,0)
(0,0,0)
(0,0,0)
(0,0,0)
(1.09942275480511e-13,-1.18597466442691e-11,1.3040034071436e-11)
(4.62612786554666e-13,-2.70702155878965e-11,1.29390414046702e-11)
(-7.37774087463766e-13,-4.59508153024953e-11,1.25854145178176e-11)
(-2.30116880121764e-12,-7.10781196750647e-11,1.10257615955844e-11)
(-2.36504767221253e-12,-1.08979795402907e-10,8.3814021556596e-12)
(-9.60645638482617e-13,-1.67828074258416e-10,5.63839467280532e-12)
(8.65511275876133e-14,-2.65262911078228e-10,3.24199743065846e-12)
(9.0310395169719e-13,-4.2880071042983e-10,1.78475577260305e-12)
(2.75805651593821e-12,-6.99421313039658e-10,6.05780817307403e-13)
(3.00886178650522e-12,-1.07703101923129e-09,-3.04200310925954e-15)
(0,0,0)
(0,0,0)
(0,0,0)
(0,0,0)
(0,0,0)
(0,0,0)
(4.13785376574942e-13,-1.1688837763651e-11,2.9763035540775e-11)
(3.29968645307185e-14,-2.63042323101255e-11,2.89114057767108e-11)
(-1.30029572332998e-12,-4.44625536926242e-11,2.68022817685267e-11)
(-3.16780666934119e-12,-6.93794479855222e-11,2.29420716621881e-11)
(-3.26511458994693e-12,-1.07151973517177e-10,1.79588435015067e-11)
(-2.55590936607282e-12,-1.66293387403279e-10,1.25763272276611e-11)
(-1.53989153487469e-12,-2.64556947714112e-10,7.63808647676087e-12)
(1.19979835293482e-12,-4.28435459093099e-10,4.42828991912667e-12)
(4.70647053627229e-12,-6.99312545862277e-10,2.0928327799517e-12)
(5.83573043776579e-12,-1.07711576845928e-09,6.62676950233038e-13)
(0,0,0)
(0,0,0)
(0,0,0)
(0,0,0)
(0,0,0)
(0,0,0)
(1.70875447450711e-14,-1.08634738007981e-11,5.03477347397292e-11)
(-8.29228794756739e-13,-2.41174196681887e-11,4.90140131945497e-11)
(-2.68718508160963e-12,-4.07763489942587e-11,4.57010998656899e-11)
(-4.84249728172906e-12,-6.51091815125653e-11,4.03145943156405e-11)
(-4.36389980749841e-12,-1.02344724657669e-10,3.33557717986048e-11)
(-3.80944986304241e-12,-1.62014242064066e-10,2.51995911729354e-11)
(-2.463406245319e-12,-2.62201828079323e-10,1.71726286226071e-11)
(1.06588824386769e-12,-4.27537062399493e-10,1.16159160803706e-11)
(5.13331145367733e-12,-6.99142318944589e-10,7.3382104627458e-12)
(6.17446354417542e-12,-1.07716719080718e-09,3.64710739104204e-12)
(0,0,0)
(0,0,0)
(0,0,0)
(0,0,0)
(0,0,0)
(0,0,0)
(-4.55615494227019e-13,-9.45071590095587e-12,7.67514117747748e-11)
(-2.10814738313442e-12,-2.05743471516501e-11,7.53441520679128e-11)
(-4.43059698806056e-12,-3.53548216610019e-11,7.17870748798654e-11)
(-6.42074609123559e-12,-5.82081703906259e-11,6.57758253086046e-11)
(-5.45233769924366e-12,-9.38604448924101e-11,5.73523987548014e-11)
(-3.75807855054046e-12,-1.53688638949593e-10,4.72112417884374e-11)
(-1.778973171334e-12,-2.56404615536877e-10,3.68241950016174e-11)
(2.67498492645968e-12,-4.24633284900155e-10,2.79432077022209e-11)
(6.86289995731416e-12,-6.97333787014287e-10,1.96701764702149e-11)
(7.59012373682444e-12,-1.07561480283406e-09,1.04728619953198e-11)
(0,0,0)
(0,0,0)
(0,0,0)
(0,0,0)
(0,0,0)
(0,0,0)
(-7.97510389382779e-13,-7.51915952632002e-12,1.13867102972211e-10)
(-3.07826604078768e-12,-1.61453962704616e-11,1.12516453224128e-10)
(-5.71551568730268e-12,-2.85894185699545e-11,1.09372510571653e-10)
(-6.63016848444613e-12,-4.88972665278922e-11,1.03500880110817e-10)
(-5.79394294475345e-12,-8.20578709164077e-11,9.51244251724476e-11)
(-3.56834855559219e-12,-1.41142257270228e-10,8.53222728468664e-11)
(-1.1970995297617e-12,-2.45518908100154e-10,7.45113659591779e-11)
(2.87267313475547e-12,-4.16873706603171e-10,5.99054908437129e-11)
(5.7632606171251e-12,-6.89188990692172e-10,4.25555068821118e-11)
(6.34859882521883e-12,-1.06650854354014e-09,2.23374244898141e-11)
(0,0,0)
(0,0,0)
(0,0,0)
(0,0,0)
(0,0,0)
(0,0,0)
(-1.36879501786971e-12,-5.83894817838086e-12,1.71780784857368e-10)
(-3.01029680202027e-12,-1.23889724716885e-11,1.7059482413184e-10)
(-4.78442009563425e-12,-2.21217783702763e-11,1.68058473574466e-10)
(-4.417780732473e-12,-3.92332650462924e-11,1.63436584954815e-10)
(-2.93101509704629e-12,-6.951587820381e-11,1.56364455836947e-10)
(-8.45493665195473e-13,-1.27088441830566e-10,1.46647427244301e-10)
(5.10564947722137e-14,-2.31837664500575e-10,1.3268067003907e-10)
(1.47138450945472e-12,-4.01485992131817e-10,1.11044136689432e-10)
(2.6301003559145e-12,-6.70475462487158e-10,8.09372093145353e-11)
(3.61303446383902e-12,-1.04558641707447e-09,4.3158699750255e-11)
(0,0,0)
(0,0,0)
(0,0,0)
(0,0,0)
(0,0,0)
(0,0,0)
(-1.43497296649567e-12,-5.01035987521823e-12,2.67140132222989e-10)
(-2.3270198670624e-12,-9.98999298786368e-12,2.65938427055755e-10)
(-2.23465764664734e-12,-1.74137062157204e-11,2.63604719118902e-10)
(-8.27899224388733e-13,-3.12777384398045e-11,2.60092691499353e-10)
(4.53884602745903e-13,-5.77910601410429e-11,2.5430215413858e-10)
(1.77446684442931e-12,-1.11028150172517e-10,2.44005876706267e-10)
(9.41580685334476e-13,-2.11085325221856e-10,2.24009136415149e-10)
(1.58032167815111e-13,-3.73055164696277e-10,1.93020447651937e-10)
(4.34072372150435e-13,-6.34199605961233e-10,1.44630240455138e-10)
(1.20815789675054e-12,-1.00388840768585e-09,7.87602841764719e-11)
(0,0,0)
(0,0,0)
(0,0,0)
(0,0,0)
(0,0,0)
(0,0,0)
(-2.47045474769091e-13,-3.94014577800388e-12,4.27526194190931e-10)
(-4.45225442908281e-13,-7.51184134739835e-12,4.26449449720952e-10)
(1.96855203357191e-13,-1.33354752865364e-11,4.24350336552134e-10)
(1.31647056230915e-12,-2.47929880167594e-11,4.21205250666136e-10)
(2.2171509174755e-12,-4.77888777335659e-11,4.15247851569231e-10)
(1.49685898202209e-12,-9.42831846310073e-11,4.03522236069651e-10)
(-7.58322489013594e-13,-1.81092732651935e-10,3.78087854714775e-10)
(-2.29045689091546e-12,-3.25668552406261e-10,3.31967240578903e-10)
(-2.60135809576209e-12,-5.69475214174252e-10,2.56913629586384e-10)
(-2.20622137704612e-12,-9.26081069573881e-10,1.4541750188571e-10)
(0,0,0)
(0,0,0)
(0,0,0)
(0,0,0)
(0,0,0)
(0,0,0)
(-1.95979393362655e-13,-2.46282236335938e-12,6.95890625697847e-10)
(4.20179361023751e-13,-5.02948730499185e-12,6.95097041815196e-10)
(1.96190632704621e-12,-9.47023442795002e-12,6.93268728657453e-10)
(2.10961032767831e-12,-1.79205943888178e-11,6.89667463414693e-10)
(2.36025278172419e-12,-3.54819254611658e-11,6.82053978681745e-10)
(1.55200779835513e-12,-7.06087387280405e-11,6.66857187806596e-10)
(-7.45728894112888e-13,-1.36312075909801e-10,6.34273217241559e-10)
(-3.49335583900843e-12,-2.51740762535272e-10,5.72123684786066e-10)
(-4.77866934336161e-12,-4.59222197103273e-10,4.62434799763386e-10)
(-5.29399949296404e-12,-7.81688801567281e-10,2.7776700343155e-10)
(0,0,0)
(0,0,0)
(0,0,0)
(0,0,0)
(0,0,0)
(0,0,0)
(-1.15400961776314e-12,-1.33450499665469e-12,1.07463102778563e-09)
(-2.59664064568834e-13,-2.62668256892743e-12,1.07285463933328e-09)
(1.88802506096542e-12,-5.01817841534347e-12,1.07035202771602e-09)
(1.75310009113215e-12,-9.39553676143708e-12,1.06598400501154e-09)
(1.48720906948243e-12,-1.91144485886634e-11,1.05734702909292e-09)
(8.19013120488423e-14,-3.82349009539663e-11,1.03922709426934e-09)
(-1.69078471612384e-12,-7.47091035403013e-11,1.00112040059852e-09)
(-5.24296837135402e-12,-1.42626129521135e-10,9.26211234513355e-10)
(-6.57443582729913e-12,-2.75668705694651e-10,7.82879166642279e-10)
(-7.12411938215721e-12,-5.04989023080198e-10,5.05839220064151e-10)
(0,0,0)
(0,0,0)
(0,0,0)
(0,0,0)
(0,0,0)
(0,0,0)
(0,0,0)
(0,0,0)
(0,0,0)
(0,0,0)
(0,0,0)
(0,0,0)
(0,0,0)
(0,0,0)
(0,0,0)
(0,0,0)
(0,0,0)
(0,0,0)
(0,0,0)
(0,0,0)
(0,0,0)
(0,0,0)
(0,0,0)
(0,0,0)
(0,0,0)
(0,0,0)
(0,0,0)
(0,0,0)
(0,0,0)
(0,0,0)
(0,0,0)
(0,0,0)
(0,0,0)
(0,0,0)
(0,0,0)
(0,0,0)
(0,0,0)
(0,0,0)
(0,0,0)
(0,0,0)
(0,0,0)
(0,0,0)
(0,0,0)
(0,0,0)
(0,0,0)
(0,0,0)
(0,0,0)
(0,0,0)
(0,0,0)
(0,0,0)
(0,0,0)
(0,0,0)
(0,0,0)
(0,0,0)
(0,0,0)
(0,0,0)
(0,0,0)
(0,0,0)
(0,0,0)
(0,0,0)
(0,0,0)
(0,0,0)
(0,0,0)
(0,0,0)
(0,0,0)
(0,0,0)
(0,0,0)
(0,0,0)
(0,0,0)
(0,0,0)
(0,0,0)
(0,0,0)
(0,0,0)
(0,0,0)
(0,0,0)
(0,0,0)
(0,0,0)
(0,0,0)
(0,0,0)
(0,0,0)
(0,0,0)
(0,0,0)
(0,0,0)
(0,0,0)
(0,0,0)
(0,0,0)
(0,0,0)
(0,0,0)
(0,0,0)
(0,0,0)
(0,0,0)
(0,0,0)
(0,0,0)
(0,0,0)
(0,0,0)
(0,0,0)
(0,0,0)
(0,0,0)
(0,0,0)
(0,0,0)
(0,0,0)
(0,0,0)
(4.00260616259237e-14,-2.201092958513e-11,2.47681441672539e-11)
(5.02563956324268e-14,-4.99822508393469e-11,2.48737284752123e-11)
(-6.66382775117228e-13,-8.45394974717453e-11,2.37645605812456e-11)
(-1.35548105084688e-12,-1.30522305983267e-10,2.03119462358496e-11)
(-1.44986207514458e-12,-1.98204738783109e-10,1.4791643103734e-11)
(-9.89352513807721e-14,-3.00907693225083e-10,8.62732702828391e-12)
(8.3782942165595e-13,-4.67358477127023e-10,3.67028425040003e-12)
(1.71682757015293e-12,-7.50858779451471e-10,1.27320564939398e-12)
(3.25811215838261e-12,-1.29261466140741e-09,1.48194956704041e-13)
(3.09056901117057e-12,-2.53487858090735e-09,-1.39393044499297e-13)
(0,0,0)
(0,0,0)
(0,0,0)
(0,0,0)
(0,0,0)
(0,0,0)
(4.4005117778646e-13,-2.20105374495933e-11,5.58186124200537e-11)
(-4.46917692089139e-14,-4.8382068053469e-11,5.41972137531235e-11)
(-1.1262903153749e-12,-8.10719443137984e-11,4.98505742905642e-11)
(-2.45484498159848e-12,-1.2582487116503e-10,4.22894665871544e-11)
(-2.68984717558954e-12,-1.92923454827628e-10,3.19404097395795e-11)
(-1.89681395440428e-12,-2.96863201134774e-10,1.98855285432043e-11)
(-6.85214612164301e-13,-4.65673712532186e-10,8.84491688179894e-12)
(2.63685879894005e-12,-7.50888246185379e-10,3.14339915969638e-12)
(5.96639944868197e-12,-1.29327039700338e-09,9.10712774660674e-13)
(6.54982973575706e-12,-2.53584336796285e-09,3.20739994242552e-13)
(0,0,0)
(0,0,0)
(0,0,0)
(0,0,0)
(0,0,0)
(0,0,0)
(-6.19488099172435e-14,-2.05427058925097e-11,9.29566733800825e-11)
(-1.05938798243336e-12,-4.39835961444024e-11,8.99583048936103e-11)
(-2.72220686478163e-12,-7.3476966928879e-11,8.35111154874062e-11)
(-4.78468588663856e-12,-1.16329143544734e-10,7.32971520143688e-11)
(-4.691998947159e-12,-1.81887275654148e-10,5.85026771683768e-11)
(-4.10809042720785e-12,-2.8710759794449e-10,4.00500375393631e-11)
(-2.70390624542269e-12,-4.61361189290853e-10,2.18057161668718e-11)
(2.43981636197846e-12,-7.50915556845836e-10,1.25656368415593e-11)
(7.01588259499705e-12,-1.29442345794007e-09,8.24974627983841e-12)
(8.26918296155144e-12,-2.53684702313301e-09,4.70054739173885e-12)
(0,0,0)
(0,0,0)
(0,0,0)
(0,0,0)
(0,0,0)
(0,0,0)
(-9.79912162000273e-13,-1.75868959882062e-11,1.40816636175783e-10)
(-2.98002107627607e-12,-3.74004311752721e-11,1.37759171322384e-10)
(-5.18475050785949e-12,-6.30778069668486e-11,1.30743619433964e-10)
(-7.30822340017018e-12,-1.01891765774852e-10,1.19020459543006e-10)
(-7.11375470886567e-12,-1.63496534222878e-10,1.01097856668673e-10)
(-5.91741344308577e-12,-2.68427395227107e-10,7.8370882876449e-11)
(-3.78369330869573e-12,-4.51025003483741e-10,5.46624751549294e-11)
(3.1884378615227e-12,-7.49347518905751e-10,4.05437238565625e-11)
(7.91541811088796e-12,-1.29412810972572e-09,2.9745975775161e-11)
(8.95672643973405e-12,-2.5353909926315e-09,1.64237398930646e-11)
(0,0,0)
(0,0,0)
(0,0,0)
(0,0,0)
(0,0,0)
(0,0,0)
(-1.12707198924018e-12,-1.41964322760605e-11,2.07508238222156e-10)
(-3.69074718708818e-12,-2.98393239607541e-11,2.04726949047365e-10)
(-6.31152542615004e-12,-5.08508614768817e-11,1.98259393870909e-10)
(-7.91771502767565e-12,-8.33279459286349e-11,1.87003387175772e-10)
(-8.5337833317727e-12,-1.38181566135977e-10,1.70461296433078e-10)
(-6.81125710763207e-12,-2.38727877793362e-10,1.50928687702037e-10)
(-2.72468013782647e-13,-4.27059605177458e-10,1.33339009882628e-10)
(4.83494262518027e-12,-7.40572226669153e-10,1.03976163359888e-10)
(7.26781480395642e-12,-1.28452228910604e-09,7.36233348671567e-11)
(7.76389684924979e-12,-2.5226113486534e-09,3.87270038444062e-11)
(0,0,0)
(0,0,0)
(0,0,0)
(0,0,0)
(0,0,0)
(0,0,0)
(-1.01142259550177e-12,-1.08668279399643e-11,3.06984032226655e-10)
(-2.8729257284751e-12,-2.24662081778484e-11,3.04902846852159e-10)
(-4.87060363054856e-12,-3.85698909909341e-11,3.00234259658214e-10)
(-5.30117822108998e-12,-6.44474559106182e-11,2.91869129123435e-10)
(-4.93880456714869e-12,-1.1235724717191e-10,2.79303903949711e-10)
(-2.93902811802535e-12,-2.09395479698694e-10,2.62081679598585e-10)
(9.35250565622765e-13,-4.06419217564494e-10,2.39358856453871e-10)
(3.14748444869842e-12,-7.17805445843979e-10,1.99664152806529e-10)
(4.13275339426517e-12,-1.25468851203597e-09,1.44219900730595e-10)
(5.07372482590462e-12,-2.48755644330768e-09,7.62776463624946e-11)
(0,0,0)
(0,0,0)
(0,0,0)
(0,0,0)
(0,0,0)
(0,0,0)
(-1.30348189647738e-12,-8.42045958925547e-12,4.67528093833759e-10)
(-2.47146357067186e-12,-1.66378169715927e-11,4.660252532622e-10)
(-2.80086095627492e-12,-2.8529198626169e-11,4.62769060637935e-10)
(-1.52211228666934e-12,-4.86150440728655e-11,4.57553382555261e-10)
(7.47979627619542e-13,-8.86266430429381e-11,4.49690379161626e-10)
(5.02624159402843e-12,-1.75691983951434e-10,4.3505104293243e-10)
(1.93767687866149e-12,-3.70527590578799e-10,3.97332250681807e-10)
(1.16162707436437e-12,-6.68235507251453e-10,3.48172274185556e-10)
(1.57963686422438e-12,-1.19089607105794e-09,2.57554945692348e-10)
(2.16110396219175e-12,-2.41426393074647e-09,1.38924494198011e-10)
(0,0,0)
(0,0,0)
(0,0,0)
(0,0,0)
(0,0,0)
(0,0,0)
(-6.47624419432729e-13,-6.53937442274191e-12,7.4510675913607e-10)
(-8.28466316496093e-13,-1.24399530260678e-11,7.4374935258277e-10)
(-5.23299769226439e-13,-2.16621696103672e-11,7.41186050838312e-10)
(4.01476031271074e-13,-3.86608504747247e-11,7.37140307296997e-10)
(1.63581414462965e-12,-7.54238596502055e-11,7.29730707064067e-10)
(3.25679443400588e-12,-1.56023834961461e-10,7.13779572391041e-10)
(5.81634904795444e-13,-3.21427810502995e-10,6.73793733407079e-10)
(-1.16463576962491e-12,-5.79771606404671e-10,5.91345354293853e-10)
(-1.35824746597092e-12,-1.07451504106671e-09,4.55427008403814e-10)
(-1.18098749889301e-12,-2.2775011480473e-09,2.58851880016272e-10)
(0,0,0)
(0,0,0)
(0,0,0)
(0,0,0)
(0,0,0)
(0,0,0)
(-5.30712877416947e-13,-4.28402904082077e-12,1.28365153008276e-09)
(-1.54312217297777e-13,-8.6002268426796e-12,1.28235121461771e-09)
(1.11111555720623e-12,-1.57074169524497e-11,1.27958041933262e-09)
(1.19803743325047e-12,-2.88875639751073e-11,1.27435752100143e-09)
(1.18956678438217e-12,-5.83548465769806e-11,1.26339877242152e-09)
(1.76214058927847e-12,-1.20347245863096e-10,1.23960099912956e-09)
(-1.99168808089653e-13,-2.39842061149753e-10,1.18588111673539e-09)
(-2.91910383045057e-12,-4.45415953607732e-10,1.07692887935919e-09)
(-3.66436442020152e-12,-8.79882334999864e-10,8.84310465206389e-10)
(-4.22677454855572e-12,-2.02082084769287e-09,5.52699317327644e-10)
(0,0,0)
(0,0,0)
(0,0,0)
(0,0,0)
(0,0,0)
(0,0,0)
(-7.12126162063897e-13,-2.1712391616103e-12,2.52664869858935e-09)
(-3.83735016236283e-13,-4.41729474659555e-12,2.52439483926821e-09)
(1.23786935009884e-12,-8.34243065310712e-12,2.52045534072638e-09)
(9.94539248318099e-13,-1.56881362407045e-11,2.51366668728775e-09)
(4.92695304380382e-13,-3.22936452585819e-11,2.49965249666977e-09)
(-4.63059711031361e-14,-6.59208083143093e-11,2.46921155953236e-09)
(-1.49072217129383e-12,-1.30494670793091e-10,2.40463480660516e-09)
(-4.53703002138011e-12,-2.53270866867313e-10,2.27487536647475e-09)
(-5.20319494382523e-12,-5.49319130044477e-10,2.02114108092647e-09)
(-6.27392239807882e-12,-1.46960833375441e-09,1.47082753080985e-09)
(0,0,0)
(0,0,0)
(0,0,0)
(0,0,0)
(0,0,0)
(0,0,0)
(0,0,0)
(0,0,0)
(0,0,0)
(0,0,0)
(0,0,0)
(0,0,0)
(0,0,0)
(0,0,0)
(0,0,0)
(0,0,0)
(0,0,0)
(0,0,0)
(0,0,0)
(0,0,0)
(0,0,0)
(0,0,0)
(0,0,0)
(0,0,0)
(0,0,0)
(0,0,0)
(0,0,0)
(0,0,0)
(0,0,0)
(0,0,0)
(0,0,0)
(0,0,0)
(0,0,0)
(0,0,0)
(0,0,0)
(0,0,0)
(0,0,0)
(0,0,0)
(0,0,0)
(0,0,0)
(0,0,0)
(0,0,0)
(0,0,0)
(0,0,0)
(0,0,0)
(0,0,0)
(0,0,0)
(0,0,0)
(0,0,0)
(0,0,0)
(0,0,0)
(0,0,0)
(0,0,0)
(0,0,0)
(0,0,0)
(0,0,0)
(0,0,0)
(0,0,0)
(0,0,0)
(0,0,0)
(0,0,0)
(0,0,0)
(0,0,0)
(0,0,0)
(0,0,0)
(0,0,0)
(0,0,0)
(0,0,0)
(0,0,0)
(0,0,0)
(0,0,0)
(0,0,0)
(0,0,0)
(0,0,0)
(0,0,0)
(0,0,0)
(0,0,0)
(0,0,0)
(0,0,0)
(0,0,0)
(0,0,0)
(0,0,0)
(0,0,0)
(0,0,0)
(0,0,0)
(0,0,0)
(0,0,0)
(0,0,0)
(0,0,0)
(0,0,0)
(0,0,0)
(0,0,0)
(0,0,0)
(0,0,0)
(0,0,0)
(0,0,0)
(0,0,0)
(0,0,0)
(0,0,0)
(0,0,0)
(0,0,0)
(0,0,0)
(-6.59503821258782e-14,-3.09926081015556e-11,3.43060498530732e-11)
(-4.40758495906095e-13,-6.78049521041597e-11,3.39509369741733e-11)
(-6.81321587052666e-13,-1.12516638495745e-10,3.12843389779818e-11)
(-5.32612736642686e-13,-1.71483168840761e-10,2.56920989573891e-11)
(-5.66829956031731e-13,-2.54997010384077e-10,1.75437683027545e-11)
(8.13615436728121e-13,-3.75094565673912e-10,7.53183535477205e-12)
(1.55014342708404e-12,-5.53220564809372e-10,-6.65320254918883e-13)
(2.871304996642e-12,-8.13090532328465e-10,-3.46764323121199e-12)
(4.2014357560802e-12,-1.18386566241943e-09,-3.02209696235872e-12)
(3.9159630211976e-12,-1.63551511396998e-09,-1.44890800676988e-12)
(0,0,0)
(0,0,0)
(0,0,0)
(0,0,0)
(0,0,0)
(0,0,0)
(5.93618287602683e-13,-3.07650405725341e-11,7.44727574540494e-11)
(-9.65242165865256e-14,-6.52356595737287e-11,7.21504571606023e-11)
(-1.16015999749081e-12,-1.07315522792094e-10,6.55521500437715e-11)
(-1.60151575399552e-12,-1.6413597278494e-10,5.39458709287227e-11)
(-1.67114515227183e-12,-2.46236323995382e-10,3.77432241509557e-11)
(-6.11805483955588e-13,-3.68429381009097e-10,1.68293624499931e-11)
(7.03779868012508e-13,-5.5218267890024e-10,-3.08238557418043e-12)
(4.89685584527907e-12,-8.15677656902971e-10,-8.7125822723476e-12)
(7.70943316614699e-12,-1.18715463466378e-09,-6.51537826454496e-12)
(7.87422490069343e-12,-1.63890769036923e-09,-2.70833987129798e-12)
(0,0,0)
(0,0,0)
(0,0,0)
(0,0,0)
(0,0,0)
(0,0,0)
(-1.93902294142515e-14,-2.81578654623087e-11,1.23575554991083e-10)
(-1.19536354445674e-12,-5.84901458367546e-11,1.19328961803211e-10)
(-2.90740335350767e-12,-9.61395881716147e-11,1.09889948366767e-10)
(-4.42758881056838e-12,-1.49302509812198e-10,9.37851372425277e-11)
(-4.63010074959028e-12,-2.27511679238975e-10,6.89261594024732e-11)
(-4.54397177229578e-12,-3.51545953788749e-10,3.41900140124764e-11)
(-3.80001272703925e-12,-5.49837749023074e-10,-4.17688470286593e-12)
(5.18766898361829e-12,-8.22383745298336e-10,-9.69467304800602e-12)
(1.0269733269339e-11,-1.19438082795596e-09,-4.01602206168633e-12)
(1.15136998517008e-11,-1.64456978465722e-09,3.57975401714696e-14)
(0,0,0)
(0,0,0)
(0,0,0)
(0,0,0)
(0,0,0)
(0,0,0)
(-1.31291102183727e-12,-2.36018236375145e-11,1.85913156338498e-10)
(-3.52557640139704e-12,-4.89992207635076e-11,1.81178402648638e-10)
(-5.68853610697083e-12,-8.0549536729702e-11,1.70388397762894e-10)
(-7.94944037348009e-12,-1.26004600531906e-10,1.51790349449075e-10)
(-9.70174900418775e-12,-1.95066084695365e-10,1.21293390636725e-10)
(-1.19085231537164e-11,-3.15783515924525e-10,7.58004324328394e-11)
(-1.3630340316198e-11,-5.42428764202818e-10,1.53307550415626e-11)
(5.21089370597751e-12,-8.35664195750643e-10,1.40120325465019e-11)
(1.16318333740563e-11,-1.20446486829088e-09,1.83431390963109e-11)
(1.26008223531982e-11,-1.64912422466166e-09,1.29859365017928e-11)
(0,0,0)
(0,0,0)
(0,0,0)
(0,0,0)
(0,0,0)
(0,0,0)
(-1.67538715016134e-12,-1.86876551785148e-11,2.6970666715684e-10)
(-4.59630779309194e-12,-3.83249332911988e-11,2.65107466987276e-10)
(-7.33648921852549e-12,-6.22289825012715e-11,2.54686033162315e-10)
(-1.02561143029643e-11,-9.59778000162026e-11,2.37349817480352e-10)
(-1.48254935629084e-11,-1.48425797279185e-10,2.10801600099306e-10)
(-1.85539773835596e-11,-2.46227486788297e-10,1.78712068580512e-10)
(8.4499908944533e-12,-4.80012355432096e-10,1.7866609885293e-10)
(1.24209902920171e-11,-8.48768703658015e-10,1.1772808989922e-10)
(1.23303687585853e-11,-1.20788292091831e-09,8.17755617020545e-11)
(1.14359953474361e-11,-1.6421839641633e-09,4.34105080788655e-11)
(0,0,0)
(0,0,0)
(0,0,0)
(0,0,0)
(0,0,0)
(0,0,0)
(-1.37660557199221e-12,-1.36794967686189e-11,3.85257937050992e-10)
(-4.03272974082761e-12,-2.75720645940855e-11,3.81938734646918e-10)
(-6.54616546090859e-12,-4.39892112097459e-11,3.74413279428757e-10)
(-8.56836488451295e-12,-6.61431075151296e-11,3.6224033226505e-10)
(-1.14471843450958e-11,-1.03688492172847e-10,3.4451860750393e-10)
(-1.39197007210573e-11,-1.92696714741081e-10,3.21108236567257e-10)
(4.73832722848795e-12,-4.79483977885994e-10,3.11309776280301e-10)
(9.02179793045913e-12,-8.35675302468687e-10,2.50710862971076e-10)
(8.28256678599731e-12,-1.17977949027086e-09,1.76424162345998e-10)
(8.05885862661328e-12,-1.60438914785818e-09,9.16139708673604e-11)
(0,0,0)
(0,0,0)
(0,0,0)
(0,0,0)
(0,0,0)
(0,0,0)
(-1.68172648989035e-12,-9.56830257861983e-12,5.53953503685031e-10)
(-3.41313489426874e-12,-1.86354383201188e-11,5.5186702997135e-10)
(-4.45221188892724e-12,-2.90320889353817e-11,5.47811327814738e-10)
(-3.61330249142118e-12,-4.14572647810179e-11,5.43010183833497e-10)
(2.1845324646906e-12,-6.13997242987518e-11,5.41041826995525e-10)
(2.30768848546452e-11,-1.1599475857571e-10,5.42874677121724e-10)
(1.9978732986793e-12,-4.38061995725754e-10,4.64308580112327e-10)
(3.31505472035554e-12,-7.78914380941228e-10,4.50538491175975e-10)
(3.8290583681242e-12,-1.10316537900908e-09,3.14177185610446e-10)
(4.32281546046928e-12,-1.51699563705535e-09,1.62047100660049e-10)
(0,0,0)
(0,0,0)
(0,0,0)
(0,0,0)
(0,0,0)
(0,0,0)
(-1.54556324660634e-12,-6.86345738789301e-12,8.04995128464156e-10)
(-2.10489075561308e-12,-1.31948880206593e-11,8.03370024656089e-10)
(-2.43230888609623e-12,-2.09739639091267e-11,8.01017957795142e-10)
(-1.96221023535975e-12,-3.30567439993863e-11,7.99034872572708e-10)
(5.17935744499641e-13,-6.23836894967709e-11,7.99409819202284e-10)
(7.56604431993613e-12,-1.48107718425291e-10,8.00720122536731e-10)
(1.44426466429981e-12,-4.00999667669059e-10,7.7685597178773e-10)
(3.98057322615693e-13,-6.46276289691752e-10,6.62542443524162e-10)
(5.84174854390872e-13,-9.54681544947044e-10,4.83382885341509e-10)
(9.90592164065879e-13,-1.35723994293028e-09,2.60748165200691e-10)
(0,0,0)
(0,0,0)
(0,0,0)
(0,0,0)
(0,0,0)
(0,0,0)
(-1.34318729194036e-12,-4.62693749514665e-12,1.16957056374311e-09)
(-1.56644902895161e-12,-9.47682463535178e-12,1.16816106920497e-09)
(-1.03097241017528e-12,-1.57544102508926e-11,1.16542380825074e-09)
(-1.04264172140527e-12,-2.75372829423483e-11,1.16178550776373e-09)
(-1.07386124148234e-12,-5.73451914875429e-11,1.15535852500327e-09)
(1.05558543470355e-12,-1.300734175548e-10,1.13800278875779e-09)
(-5.94321788029655e-13,-2.83187086725764e-10,1.08612158768344e-09)
(-2.44577642032632e-12,-4.68615979142822e-10,9.5336159309441e-10)
(-2.61642149523319e-12,-7.33839423883975e-10,7.37275704891087e-10)
(-2.73997115970755e-12,-1.09799325248328e-09,4.23237672580486e-10)
(0,0,0)
(0,0,0)
(0,0,0)
(0,0,0)
(0,0,0)
(0,0,0)
(-6.29506003650013e-13,-2.54299490688929e-12,1.61994484973901e-09)
(-8.61531221168559e-13,-5.24117822125869e-12,1.6180425918212e-09)
(-3.15907864282617e-13,-8.79862994079528e-12,1.61422005853044e-09)
(-6.79406374799947e-13,-1.63349120001472e-11,1.60851152017954e-09)
(-1.36001281576115e-12,-3.44407771555428e-11,1.59606118721854e-09)
(-1.3903613593263e-12,-7.3961494246376e-11,1.56582878917975e-09)