/*--------------------------------*- C++ -*----------------------------------*\
| =========                 |                                                 |
| \\      /  F ield         | foam-extend: Open Source CFD                    |
|  \\    /   O peration     | Version:     4.0                                |
|   \\  /    A nd           | Web:         http://www.foam-extend.org         |
|    \\/     M anipulation  |                                                 |
\*---------------------------------------------------------------------------*/
FoamFile
{
    version 2.0;
    format ascii;
    class volVectorField;
    location "Data/3699";
    object      E;
}
// * * * * * * * * * * * * * * * * * * * * * * * * * * * * * * * * * * * * * //

dimensions      [0 1 -1 0 0 0 0];

internalField   nonuniform List<vector>
4096
(
(0,0,0)
(0,0,0)
(0,0,0)
(0,0,0)
(0,0,0)
(0,0,0)
(0,0,0)
(0,0,0)
(0,0,0)
(0,0,0)
(0,0,0)
(0,0,0)
(0,0,0)
(0,0,0)
(0,0,0)
(0,0,0)
(0,0,0)
(0,0,0)
(0,0,0)
(0,0,0)
(0,0,0)
(0,0,0)
(0,0,0)
(0,0,0)
(0,0,0)
(0,0,0)
(0,0,0)
(0,0,0)
(0,0,0)
(0,0,0)
(0,0,0)
(0,0,0)
(0,0,0)
(0,0,0)
(0,0,0)
(0,0,0)
(0,0,0)
(0,0,0)
(0,0,0)
(0,0,0)
(0,0,0)
(0,0,0)
(0,0,0)
(0,0,0)
(0,0,0)
(0,0,0)
(0,0,0)
(0,0,0)
(0,0,0)
(0,0,0)
(0,0,0)
(0,0,0)
(0,0,0)
(0,0,0)
(0,0,0)
(0,0,0)
(0,0,0)
(0,0,0)
(0,0,0)
(0,0,0)
(0,0,0)
(0,0,0)
(0,0,0)
(0,0,0)
(0,0,0)
(0,0,0)
(0,0,0)
(0,0,0)
(0,0,0)
(0,0,0)
(0,0,0)
(0,0,0)
(0,0,0)
(0,0,0)
(0,0,0)
(0,0,0)
(0,0,0)
(0,0,0)
(0,0,0)
(0,0,0)
(0,0,0)
(0,0,0)
(0,0,0)
(0,0,0)
(0,0,0)
(0,0,0)
(0,0,0)
(0,0,0)
(0,0,0)
(0,0,0)
(0,0,0)
(0,0,0)
(0,0,0)
(0,0,0)
(0,0,0)
(0,0,0)
(0,0,0)
(0,0,0)
(0,0,0)
(0,0,0)
(0,0,0)
(0,0,0)
(0,0,0)
(0,0,0)
(0,0,0)
(0,0,0)
(0,0,0)
(0,0,0)
(0,0,0)
(0,0,0)
(0,0,0)
(0,0,0)
(0,0,0)
(0,0,0)
(0,0,0)
(0,0,0)
(0,0,0)
(0,0,0)
(0,0,0)
(0,0,0)
(0,0,0)
(0,0,0)
(0,0,0)
(0,0,0)
(0,0,0)
(0,0,0)
(0,0,0)
(0,0,0)
(0,0,0)
(0,0,0)
(0,0,0)
(0,0,0)
(0,0,0)
(0,0,0)
(0,0,0)
(0,0,0)
(0,0,0)
(0,0,0)
(0,0,0)
(0,0,0)
(0,0,0)
(0,0,0)
(0,0,0)
(0,0,0)
(0,0,0)
(0,0,0)
(0,0,0)
(0,0,0)
(0,0,0)
(0,0,0)
(0,0,0)
(0,0,0)
(0,0,0)
(0,0,0)
(0,0,0)
(0,0,0)
(0,0,0)
(0,0,0)
(0,0,0)
(0,0,0)
(0,0,0)
(0,0,0)
(0,0,0)
(0,0,0)
(0,0,0)
(0,0,0)
(0,0,0)
(0,0,0)
(0,0,0)
(0,0,0)
(0,0,0)
(0,0,0)
(0,0,0)
(0,0,0)
(0,0,0)
(0,0,0)
(0,0,0)
(0,0,0)
(0,0,0)
(0,0,0)
(0,0,0)
(0,0,0)
(0,0,0)
(0,0,0)
(0,0,0)
(0,0,0)
(0,0,0)
(0,0,0)
(0,0,0)
(0,0,0)
(0,0,0)
(0,0,0)
(0,0,0)
(0,0,0)
(0,0,0)
(0,0,0)
(0,0,0)
(0,0,0)
(0,0,0)
(0,0,0)
(0,0,0)
(0,0,0)
(0,0,0)
(0,0,0)
(0,0,0)
(0,0,0)
(0,0,0)
(0,0,0)
(0,0,0)
(0,0,0)
(0,0,0)
(0,0,0)
(0,0,0)
(0,0,0)
(0,0,0)
(0,0,0)
(0,0,0)
(0,0,0)
(0,0,0)
(0,0,0)
(0,0,0)
(0,0,0)
(0,0,0)
(0,0,0)
(0,0,0)
(0,0,0)
(0,0,0)
(0,0,0)
(0,0,0)
(0,0,0)
(0,0,0)
(0,0,0)
(0,0,0)
(0,0,0)
(0,0,0)
(0,0,0)
(0,0,0)
(0,0,0)
(0,0,0)
(0,0,0)
(0,0,0)
(0,0,0)
(0,0,0)
(0,0,0)
(0,0,0)
(0,0,0)
(0,0,0)
(0,0,0)
(0,0,0)
(0,0,0)
(0,0,0)
(0,0,0)
(0,0,0)
(0,0,0)
(0,0,0)
(0,0,0)
(0,0,0)
(0,0,0)
(0,0,0)
(0,0,0)
(0,0,0)
(0,0,0)
(0,0,0)
(0,0,0)
(0,0,0)
(0,0,0)
(0,0,0)
(0,0,0)
(0,0,0)
(0,0,0)
(0,0,0)
(0,0,0)
(0,0,0)
(0,0,0)
(0,0,0)
(0,0,0)
(0,0,0)
(0,0,0)
(0,0,0)
(0,0,0)
(0,0,0)
(0,0,0)
(0,0,0)
(0,0,0)
(0,0,0)
(0,0,0)
(0,0,0)
(0,0,0)
(0,0,0)
(0,0,0)
(0,0,0)
(0,0,0)
(0,0,0)
(0,0,0)
(0,0,0)
(0,0,0)
(0,0,0)
(0,0,0)
(0,0,0)
(0,0,0)
(0,0,0)
(0,0,0)
(0,0,0)
(0,0,0)
(0,0,0)
(0,0,0)
(0,0,0)
(0,0,0)
(0,0,0)
(0,0,0)
(0,0,0)
(0,0,0)
(0,0,0)
(0,0,0)
(0,0,0)
(0,0,0)
(0,0,0)
(0,0,0)
(0,0,0)
(0,0,0)
(0,0,0)
(0,0,0)
(0,0,0)
(0,0,0)
(0,0,0)
(0,0,0)
(0,0,0)
(0,0,0)
(0,0,0)
(0,0,0)
(0,0,0)
(0,0,0)
(0,0,0)
(0,0,0)
(0,0,0)
(0,0,0)
(0,0,0)
(0,0,0)
(0,0,0)
(0,0,0)
(0,0,0)
(0,0,0)
(0,0,0)
(0,0,0)
(0,0,0)
(0,0,0)
(0,0,0)
(0,0,0)
(0,0,0)
(0,0,0)
(0,0,0)
(0,0,0)
(0,0,0)
(0,0,0)
(0,0,0)
(0,0,0)
(0,0,0)
(0,0,0)
(0,0,0)
(0,0,0)
(0,0,0)
(0,0,0)
(0,0,0)
(0,0,0)
(0,0,0)
(0,0,0)
(0,0,0)
(0,0,0)
(0,0,0)
(0,0,0)
(0,0,0)
(0,0,0)
(0,0,0)
(0,0,0)
(0,0,0)
(0,0,0)
(0,0,0)
(0,0,0)
(0,0,0)
(0,0,0)
(0,0,0)
(0,0,0)
(0,0,0)
(0,0,0)
(0,0,0)
(0,0,0)
(0,0,0)
(0,0,0)
(0,0,0)
(0,0,0)
(0,0,0)
(0,0,0)
(0,0,0)
(0,0,0)
(0,0,0)
(0,0,0)
(0,0,0)
(0,0,0)
(0,0,0)
(0,0,0)
(0,0,0)
(0,0,0)
(0,0,0)
(0,0,0)
(0,0,0)
(0,0,0)
(0,0,0)
(0,0,0)
(0,0,0)
(0,0,0)
(0,0,0)
(0,0,0)
(0,0,0)
(0,0,0)
(0,0,0)
(0,0,0)
(0,0,0)
(0,0,0)
(0,0,0)
(0,0,0)
(0,0,0)
(0,0,0)
(0,0,0)
(0,0,0)
(0,0,0)
(0,0,0)
(0,0,0)
(0,0,0)
(0,0,0)
(0,0,0)
(0,0,0)
(0,0,0)
(0,0,0)
(0,0,0)
(0,0,0)
(0,0,0)
(0,0,0)
(0,0,0)
(0,0,0)
(0,0,0)
(0,0,0)
(0,0,0)
(0,0,0)
(0,0,0)
(0,0,0)
(0,0,0)
(0,0,0)
(0,0,0)
(0,0,0)
(0,0,0)
(0,0,0)
(0,0,0)
(0,0,0)
(0,0,0)
(0,0,0)
(0,0,0)
(0,0,0)
(0,0,0)
(0,0,0)
(0,0,0)
(0,0,0)
(0,0,0)
(0,0,0)
(0,0,0)
(0,0,0)
(0,0,0)
(0,0,0)
(0,0,0)
(0,0,0)
(0,0,0)
(0,0,0)
(0,0,0)
(0,0,0)
(0,0,0)
(0,0,0)
(0,0,0)
(0,0,0)
(0,0,0)
(0,0,0)
(0,0,0)
(0,0,0)
(0,0,0)
(0,0,0)
(0,0,0)
(0,0,0)
(0,0,0)
(0,0,0)
(0,0,0)
(0,0,0)
(0,0,0)
(0,0,0)
(0,0,0)
(0,0,0)
(0,0,0)
(0,0,0)
(0,0,0)
(0,0,0)
(0,0,0)
(0,0,0)
(0,0,0)
(0,0,0)
(0,0,0)
(0,0,0)
(0,0,0)
(0,0,0)
(0,0,0)
(0,0,0)
(0,0,0)
(0,0,0)
(0,0,0)
(0,0,0)
(0,0,0)
(0,0,0)
(0,0,0)
(0,0,0)
(0,0,0)
(0,0,0)
(0,0,0)
(0,0,0)
(0,0,0)
(0,0,0)
(0,0,0)
(0,0,0)
(0,0,0)
(0,0,0)
(0,0,0)
(0,0,0)
(0,0,0)
(0,0,0)
(0,0,0)
(0,0,0)
(0,0,0)
(0,0,0)
(0,0,0)
(0,0,0)
(0,0,0)
(0,0,0)
(0,0,0)
(0,0,0)
(0,0,0)
(0,0,0)
(0,0,0)
(0,0,0)
(0,0,0)
(0,0,0)
(0,0,0)
(0,0,0)
(0,0,0)
(0,0,0)
(0,0,0)
(0,0,0)
(0,0,0)
(0,0,0)
(0,0,0)
(0,0,0)
(0,0,0)
(0,0,0)
(0,0,0)
(0,0,0)
(0,0,0)
(0,0,0)
(0,0,0)
(0,0,0)
(0,0,0)
(0,0,0)
(0,0,0)
(0,0,0)
(0,0,0)
(0,0,0)
(0,0,0)
(0,0,0)
(0,0,0)
(0,0,0)
(0,0,0)
(0,0,0)
(0,0,0)
(0,0,0)
(0,0,0)
(0,0,0)
(0,0,0)
(0,0,0)
(0,0,0)
(0,0,0)
(0,0,0)
(0,0,0)
(0,0,0)
(0,0,0)
(0,0,0)
(0,0,0)
(0,0,0)
(0,0,0)
(0,0,0)
(0,0,0)
(0,0,0)
(0,0,0)
(0,0,0)
(0,0,0)
(0,0,0)
(0,0,0)
(0,0,0)
(0,0,0)
(0,0,0)
(0,0,0)
(0,0,0)
(0,0,0)
(0,0,0)
(0,0,0)
(0,0,0)
(0,0,0)
(0,0,0)
(0,0,0)
(0,0,0)
(0,0,0)
(0,0,0)
(0,0,0)
(0,0,0)
(0,0,0)
(0,0,0)
(0,0,0)
(0,0,0)
(0,0,0)
(0,0,0)
(0,0,0)
(0,0,0)
(0,0,0)
(0,0,0)
(0,0,0)
(0,0,0)
(0,0,0)
(0,0,0)
(0,0,0)
(0,0,0)
(0,0,0)
(0,0,0)
(0,0,0)
(0,0,0)
(0,0,0)
(0,0,0)
(0,0,0)
(0,0,0)
(0,0,0)
(0,0,0)
(0,0,0)
(0,0,0)
(0,0,0)
(0,0,0)
(0,0,0)
(0,0,0)
(0,0,0)
(0,0,0)
(0,0,0)
(0,0,0)
(0,0,0)
(0,0,0)
(0,0,0)
(0,0,0)
(0,0,0)
(0,0,0)
(0,0,0)
(0,0,0)
(0,0,0)
(0,0,0)
(0,0,0)
(0,0,0)
(0,0,0)
(0,0,0)
(0,0,0)
(0,0,0)
(0,0,0)
(0,0,0)
(0,0,0)
(0,0,0)
(0,0,0)
(0,0,0)
(0,0,0)
(0,0,0)
(0,0,0)
(0,0,0)
(0,0,0)
(0,0,0)
(0,0,0)
(0,0,0)
(0,0,0)
(0,0,0)
(0,0,0)
(0,0,0)
(0,0,0)
(0,0,0)
(0,0,0)
(0,0,0)
(0,0,0)
(0,0,0)
(0,0,0)
(0,0,0)
(0,0,0)
(0,0,0)
(0,0,0)
(0,0,0)
(0,0,0)
(0,0,0)
(0,0,0)
(0,0,0)
(0,0,0)
(0,0,0)
(0,0,0)
(0,0,0)
(0,0,0)
(0,0,0)
(0,0,0)
(0,0,0)
(0,0,0)
(0,0,0)
(0,0,0)
(0,0,0)
(0,0,0)
(0,0,0)
(0,0,0)
(0,0,0)
(0,0,0)
(0,0,0)
(0,0,0)
(0,0,0)
(0,0,0)
(0,0,0)
(0,0,0)
(0,0,0)
(0,0,0)
(0,0,0)
(0,0,0)
(0,0,0)
(0,0,0)
(0,0,0)
(0,0,0)
(0,0,0)
(0,0,0)
(0,0,0)
(0,0,0)
(0,0,0)
(0,0,0)
(0,0,0)
(0,0,0)
(0,0,0)
(0,0,0)
(0,0,0)
(0,0,0)
(0,0,0)
(0,0,0)
(0,0,0)
(0,0,0)
(0,0,0)
(0,0,0)
(0,0,0)
(0,0,0)
(0,0,0)
(0,0,0)
(0,0,0)
(0,0,0)
(0,0,0)
(0,0,0)
(0,0,0)
(0,0,0)
(0,0,0)
(0,0,0)
(0,0,0)
(0,0,0)
(0,0,0)
(0,0,0)
(0,0,0)
(0,0,0)
(0,0,0)
(0,0,0)
(0,0,0)
(0,0,0)
(0,0,0)
(0,0,0)
(0,0,0)
(0,0,0)
(0,0,0)
(0,0,0)
(0,0,0)
(0,0,0)
(0,0,0)
(0,0,0)
(0,0,0)
(0,0,0)
(0,0,0)
(0,0,0)
(0,0,0)
(0,0,0)
(0,0,0)
(0,0,0)
(0,0,0)
(0,0,0)
(0,0,0)
(0,0,0)
(0,0,0)
(0,0,0)
(0,0,0)
(0,0,0)
(0,0,0)
(0,0,0)
(0,0,0)
(0,0,0)
(0,0,0)
(0,0,0)
(0,0,0)
(0,0,0)
(0,0,0)
(0,0,0)
(0,0,0)
(0,0,0)
(0,0,0)
(0,0,0)
(0,0,0)
(0,0,0)
(0,0,0)
(0,0,0)
(0,0,0)
(0,0,0)
(-212588.825859917,112993.488441226,99595.3374186901)
(-224801.8336867,108324.324021717,216072.847083671)
(-253074.590054104,98645.8217766863,370501.615361085)
(-306579.627976355,83375.499372003,593705.74396545)
(-403104.105897171,62815.7460247858,933994.103837831)
(-576378.802538184,39122.7894210668,1471250.11695496)
(-890152.523633381,17609.0114756734,2343793.62911269)
(-1457246.79841716,4448.85202156808,3796591.57550828)
(-2403484.70532757,36.5864954022642,6200039.69434041)
(-3348819.8982955,-363.954775842154,9549223.54741181)
(0,0,0)
(0,0,0)
(0,0,0)
(0,0,0)
(0,0,0)
(0,0,0)
(-224870.054873445,242917.29221061,94946.2511040609)
(-237198.623614337,234108.165564256,206361.03317586)
(-265917.107446878,215655.862218875,355268.100180547)
(-320681.389546018,186167.741574308,573157.247524259)
(-419862.551084526,145479.070642301,910356.473991269)
(-597300.485494629,97060.9780932198,1449718.77081373)
(-914550.872521112,51287.2004764907,2330591.45433402)
(-1479492.93218319,22346.5311831732,3792186.70735555)
(-2418324.95750217,10918.9430632014,6199629.30829)
(-3355746.88112669,5516.73733586993,9549495.49730485)
(0,0,0)
(0,0,0)
(0,0,0)
(0,0,0)
(0,0,0)
(0,0,0)
(-252887.853091606,409647.924223898,86157.2210783171)
(-265430.665617718,397809.793408516,187886.25885178)
(-295089.054736064,372778.959992598,325852.215814128)
(-352594.829604951,332096.910300224,532517.876693163)
(-458113.411880997,274126.751438351,861983.607778096)
(-646559.274337121,201713.596152655,1403890.26405579)
(-974723.067101634,128369.558554458,2301530.97307947)
(-1534876.40879139,78006.751019468,3780747.16203452)
(-2453977.58683471,51381.603358536,6194262.08857392)
(-3371885.76205312,27792.7865941239,9543871.80136885)
(0,0,0)
(0,0,0)
(0,0,0)
(0,0,0)
(0,0,0)
(0,0,0)
(-305093.150581941,640414.15132326,74326.9234825779)
(-317850.422319143,627197.401423474,162789.737786764)
(-348674.286209121,599103.257117725,285139.72687075)
(-410161.978052928,552915.091619017,474483.523604872)
(-526181.620788328,485289.364940532,789502.530891036)
(-735753.811137729,396418.221241576,1330551.71693984)
(-1089938.11132218,297674.109346417,2251185.27747003)
(-1642009.62812539,217016.29391977,3754185.3626951)
(-2519331.23968742,154153.586207614,6170744.61953337)
(-3400394.36938844,82905.7110029952,9516026.06451318)
(0,0,0)
(0,0,0)
(0,0,0)
(0,0,0)
(0,0,0)
(0,0,0)
(-398636.527847486,977911.269056832,61139.4101139094)
(-411368.188825053,965041.626921568,134663.373440866)
(-442836.628838889,937699.204336705,238904.055060779)
(-507673.796826027,892710.341892906,406782.601612921)
(-634521.105763715,826033.393060662,700559.679256497)
(-870253.91376674,735381.204864093,1231850.60940071)
(-1265387.00154871,624264.503162202,2170647.21713364)
(-1805122.21132974,501354.62375955,3691431.09862361)
(-2614289.29886431,360345.570568921,6099528.41312672)
(-3441590.20634143,190953.642910734,9433070.68756042)
(0,0,0)
(0,0,0)
(0,0,0)
(0,0,0)
(0,0,0)
(0,0,0)
(-567549.628600829,1497148.16334985,48312.7343078204)
(-579677.285176443,1485701.97403507,107329.672370752)
(-610148.418173733,1461325.16230001,193852.132581176)
(-674352.820915073,1420823.19679273,340092.098596421)
(-802546.395819535,1358747.09984183,609924.787634803)
(-1042775.09919332,1267282.23593644,1120798.85575577)
(-1439140.07460008,1136316.0912681,2047887.34224996)
(-1954394.67896596,953088.625572453,3550548.01940304)
(-2717174.81965368,697839.571493148,5930228.8381325)
(-3493419.82063651,372485.898106542,9242116.40357316)
(0,0,0)
(0,0,0)
(0,0,0)
(0,0,0)
(0,0,0)
(0,0,0)
(-877815.669194266,2338085.43952529,36878.3930188224)
(-888563.015996428,2328201.16747984,82942.2155705043)
(-915922.434901333,2306921.1147828,153268.69798906)
(-974580.346045999,2270676.91727491,277995.323552864)
(-1093638.41564936,2211877.9087271,518502.93031696)
(-1319359.95630671,2115260.86074904,989884.261811086)
(-1691355.59374407,1952775.28072406,1864780.6660992)
(-2159875.43867513,1682390.21085132,3295354.51949545)
(-2870511.19380445,1258769.4987409,5604935.78605214)
(-3578004.05693402,685844.010897602,8869581.73019517)
(0,0,0)
(0,0,0)
(0,0,0)
(0,0,0)
(0,0,0)
(0,0,0)
(-1445233.8422806,3756276.05240016,27043.2294057094)
(-1453829.35921889,3747282.70031033,61791.0557940988)
(-1475879.49088401,3727471.73558433,117119.925876582)
(-1523614.04679261,3692187.30231768,219223.587626397)
(-1621456.47897098,3630630.43421364,421927.541110833)
(-1809088.14725847,3518818.96027016,827457.588848161)
(-2120608.69161838,3306327.30869169,1594514.25249886)
(-2499897.13584666,2904996.87904719,2871804.7201497)
(-3148892.40209082,2247404.79050239,5032061.83047904)
(-3739753.69995472,1273898.99649183,8183760.54483948)
(0,0,0)
(0,0,0)
(0,0,0)
(0,0,0)
(0,0,0)
(0,0,0)
(-2395316.33980137,6133472.74965599,18119.6425455354)
(-2401202.49019594,6124463.10233039,42141.7307214168)
(-2416192.32382822,6103845.89255559,81959.8975783304)
(-2448304.24030324,6064768.8314501,157682.608749143)
(-2512934.70939491,5991141.57613547,310106.176222253)
(-2634344.62466449,5848245.40050246,615024.360654446)
(-2838251.21794846,5566320.84960577,1193282.03768885)
(-3141223.6289692,5025206.530561,2214296.01514427)
(-3662336.76755746,4065424.06753465,4058613.50566933)
(-4021874.58116193,2444427.08631837,6909959.99700471)
(0,0,0)
(0,0,0)
(0,0,0)
(0,0,0)
(0,0,0)
(0,0,0)
(-3345070.60810111,9469361.33499779,9182.02275930174)
(-3348014.30559592,9459971.49813525,21687.9325503267)
(-3355468.66692826,9438010.5182456,42991.9737885934)
(-3371246.76225652,9394879.63154427,84127.9359509875)
(-3402535.73464738,9310615.06172807,167190.185005811)
(-3461010.33579101,9143359.72261657,333086.198682655)
(-3563042.55495154,8810234.5315399,652215.071700067)
(-3735003.66656951,8157918.77209368,1254506.49673685)
(-4020973.78450849,6903355.51225943,2437548.83652046)
(-4049475.71634483,4465800.96202671,4465650.67715706)
(0,0,0)
(0,0,0)
(0,0,0)
(0,0,0)
(0,0,0)
(0,0,0)
(0,0,0)
(0,0,0)
(0,0,0)
(0,0,0)
(0,0,0)
(0,0,0)
(0,0,0)
(0,0,0)
(0,0,0)
(0,0,0)
(0,0,0)
(0,0,0)
(0,0,0)
(0,0,0)
(0,0,0)
(0,0,0)
(0,0,0)
(0,0,0)
(0,0,0)
(0,0,0)
(0,0,0)
(0,0,0)
(0,0,0)
(0,0,0)
(0,0,0)
(0,0,0)
(0,0,0)
(0,0,0)
(0,0,0)
(0,0,0)
(0,0,0)
(0,0,0)
(0,0,0)
(0,0,0)
(0,0,0)
(0,0,0)
(0,0,0)
(0,0,0)
(0,0,0)
(0,0,0)
(0,0,0)
(0,0,0)
(0,0,0)
(0,0,0)
(0,0,0)
(0,0,0)
(0,0,0)
(0,0,0)
(0,0,0)
(0,0,0)
(0,0,0)
(0,0,0)
(0,0,0)
(0,0,0)
(0,0,0)
(0,0,0)
(0,0,0)
(0,0,0)
(0,0,0)
(0,0,0)
(0,0,0)
(0,0,0)
(0,0,0)
(0,0,0)
(0,0,0)
(0,0,0)
(0,0,0)
(0,0,0)
(0,0,0)
(0,0,0)
(0,0,0)
(0,0,0)
(0,0,0)
(0,0,0)
(0,0,0)
(0,0,0)
(0,0,0)
(0,0,0)
(0,0,0)
(0,0,0)
(0,0,0)
(0,0,0)
(0,0,0)
(0,0,0)
(0,0,0)
(0,0,0)
(0,0,0)
(0,0,0)
(0,0,0)
(0,0,0)
(0,0,0)
(0,0,0)
(0,0,0)
(0,0,0)
(0,0,0)
(0,0,0)
(31405597.6144647,100711.654608171,87313.8590559118)
(31385098.6264006,95930.2752042811,187695.077753181)
(31338080.2406619,85800.4401910385,316951.760834748)
(31250150.3786784,69297.8368980606,497135.871270569)
(31093532.9983816,46072.5945412488,760638.126439159)
(30814893.2972975,18235.420118766,1157342.56047331)
(30303585.0415405,-6737.82542454538,1776554.77471243)
(29293125.1005896,-17757.5241198623,2850152.35381418)
(27013211.3652571,-14757.8896682444,5254426.12688649)
(20821507.5761235,-7251.94205143283,12897562.5485078)
(0,0,0)
(0,0,0)
(0,0,0)
(0,0,0)
(0,0,0)
(0,0,0)
(31384640.2760452,214842.025681613,82571.2519966014)
(31364132.6285529,205826.270825692,177555.958196594)
(31316705.8822605,186478.422599053,300466.940069847)
(31227094.4788102,154310.11599469,473890.746605694)
(31066201.7445054,107294.896205882,732816.103339843)
(30779713.8975057,47876.890421921,1132372.20402502)
(30260567.7321438,-8808.79747399421,1765536.5253984)
(29254323.0303856,-33000.7668058445,2853175.75950423)
(26989100.3269681,-24727.5689289428,5261932.10828309)
(20810967.6118912,-10598.4858574377,12904776.1130597)
(0,0,0)
(0,0,0)
(0,0,0)
(0,0,0)
(0,0,0)
(0,0,0)
(31337278.3387401,357315.895257656,73571.8925808546)
(31316715.5889547,345294.691152403,158169.171670317)
(31268326.4786555,319148.96367498,268295.051191623)
(31174781.8363029,274563.065750213,426877.389517124)
(31002720.6265015,206139.598122197,673410.603207007)
(30692723.3076691,112579.724189999,1075637.14142152)
(30143859.7616636,13212.6014966819,1741244.86767426)
(29147233.4478637,-29082.9188213427,2861429.11702342)
(26926834.5675073,-13946.2125583464,5276047.56029928)
(20785150.9671616,-682.595545850157,12915306.8947616)
(0,0,0)
(0,0,0)
(0,0,0)
(0,0,0)
(0,0,0)
(0,0,0)
(31250266.2263506,546648.964494845,61519.5078189)
(31229735.6795464,533498.641939428,131941.40915503)
(31180156.7182866,504840.806372007,223630.515950926)
(31080460.881439,455391.461024293,358391.215173617)
(30887785.8361015,376971.140036381,579804.170358366)
(30524677.0853735,261918.597985412,976246.354040439)
(29884549.3723303,122230.627892595,1698952.79798074)
(28903513.2745358,53922.5260335117,2876636.40445346)
(26801013.0492353,59206.6487289958,5289351.20823196)
(20736825.0861583,41721.8497739256,12915939.2613542)
(0,0,0)
(0,0,0)
(0,0,0)
(0,0,0)
(0,0,0)
(0,0,0)
(31097071.9894855,808746.086516107,48406.3146344845)
(31076991.1390326,796526.294527848,103231.288177019)
(31027112.8343642,770253.271116475,174081.314218323)
(30922156.009821,725954.368295701,279900.554288516)
(30705914.9592748,657951.192069172,464696.39120601)
(30263188.6346672,562823.300717034,836561.094029252)
(29418381.0555507,450513.985400314,1630721.63341089)
(28451615.9343932,352094.29820238,2882023.66950784)
(26603808.9119246,257441.397543026,5271902.66389346)
(20664956.7673004,139108.121546683,12874181.3724675)
(0,0,0)
(0,0,0)
(0,0,0)
(0,0,0)
(0,0,0)
(0,0,0)
(30824426.104248,1186728.88706493,36253.4205909171)
(30805669.5856338,1176702.45374429,76942.3445529055)
(30758105.6149987,1155479.26703878,129674.269446867)
(30655048.3143414,1120566.82488546,211872.631589429)
(30436301.4448687,1067603.67329352,369584.263665527)
(29980883.885463,990655.214924751,724305.318790102)
(29125355.796538,884090.025768949,1532445.36127227)
(28201271.1252477,747592.211166631,2787493.59808305)
(26435873.9337287,544460.012751614,5153638.18348087)
(20582592.7657133,287892.822702816,12735052.8499634)
(0,0,0)
(0,0,0)
(0,0,0)
(0,0,0)
(0,0,0)
(0,0,0)
(30318459.6628637,1770467.44434004,26198.0646555486)
(30302103.0077296,1762769.14838132,55677.300281251)
(30259929.0439828,1746847.31725623,94669.7251684418)
(30166373.0982356,1721581.07141737,158913.988343623)
(29962432.2178111,1683965.4111169,292693.571048459)
(29526970.5576904,1625426.6918721,617803.534092689)
(28697218.1423526,1523436.5296024,1396095.2481511)
(27863263.7265833,1342301.76593358,2584458.48211443)
(26187163.9344718,980341.654026195,4897113.66655211)
(20442018.3278479,524086.153009922,12447109.9054519)
(0,0,0)
(0,0,0)
(0,0,0)
(0,0,0)
(0,0,0)
(0,0,0)
(29307063.0903669,2805896.95300556,18485.5126757622)
(29294158.1603427,2799670.81597837,39808.2795057811)
(29260557.9798246,2786966.3054713,69463.7745708113)
(29184965.9783999,2767306.97215187,121369.802632424)
(29016945.2189863,2738925.3704642,234220.099316421)
(28647591.4618268,2693323.38140779,515855.754684226)
(27921359.6650375,2588463.18446249,1215072.6971569)
(27377572.4797997,2263529.90820786,2222586.89322474)
(25685452.1716828,1733914.3973835,4440881.5300825)
(20116611.7235308,991756.212484785,11923058.0011108)
(0,0,0)
(0,0,0)
(0,0,0)
(0,0,0)
(0,0,0)
(0,0,0)
(27021215.9295994,5183292.32185569,12284.3157378492)
(27012507.8203535,5177250.17731704,27206.5978383885)
(26990066.8760954,5164213.48445703,49912.172917712)
(26940609.045652,5141464.71026959,93053.1028334198)
(26835449.7588068,5101163.22262121,188642.73646327)
(26621604.7891749,5021191.96033551,411036.697685027)
(26236098.3159908,4841168.42449217,890193.877704839)
(25694530.5120437,4431162.70934929,1693018.88953926)
(24165433.9447026,3706603.71307964,3698770.81557179)
(19126764.1285181,2416692.51155275,10931407.7608124)
(0,0,0)
(0,0,0)
(0,0,0)
(0,0,0)
(0,0,0)
(0,0,0)
(20824374.4585305,12813793.7580005,6265.45121220097)
(20820062.4054586,12807383.0816254,14267.789837858)
(20809067.9132466,12792905.3609054,27251.2872033752)
(20785307.8651885,12765526.0209445,52847.3030722405)
(20736424.0384377,12712561.3668907,108701.339706426)
(20640319.6833308,12603776.464031,230998.770877914)
(20462404.0510406,12372745.3887785,480187.154588172)
(20121615.6834068,11892485.1294389,968457.338511155)
(19127499.4392566,10923941.9302969,2408857.85151757)
(15552400.9195422,8515032.22890554,8514853.45226637)
(0,0,0)
(0,0,0)
(0,0,0)
(0,0,0)
(0,0,0)
(0,0,0)
(0,0,0)
(0,0,0)
(0,0,0)
(0,0,0)
(0,0,0)
(0,0,0)
(0,0,0)
(0,0,0)
(0,0,0)
(0,0,0)
(0,0,0)
(0,0,0)
(0,0,0)
(0,0,0)
(0,0,0)
(0,0,0)
(0,0,0)
(0,0,0)
(0,0,0)
(0,0,0)
(0,0,0)
(0,0,0)
(0,0,0)
(0,0,0)
(0,0,0)
(0,0,0)
(0,0,0)
(0,0,0)
(0,0,0)
(0,0,0)
(0,0,0)
(0,0,0)
(0,0,0)
(0,0,0)
(0,0,0)
(0,0,0)
(0,0,0)
(0,0,0)
(0,0,0)
(0,0,0)
(0,0,0)
(0,0,0)
(0,0,0)
(0,0,0)
(0,0,0)
(0,0,0)
(0,0,0)
(0,0,0)
(0,0,0)
(0,0,0)
(0,0,0)
(0,0,0)
(0,0,0)
(0,0,0)
(0,0,0)
(0,0,0)
(0,0,0)
(0,0,0)
(0,0,0)
(0,0,0)
(0,0,0)
(0,0,0)
(0,0,0)
(0,0,0)
(0,0,0)
(0,0,0)
(0,0,0)
(0,0,0)
(0,0,0)
(0,0,0)
(0,0,0)
(0,0,0)
(0,0,0)
(0,0,0)
(0,0,0)
(0,0,0)
(0,0,0)
(0,0,0)
(0,0,0)
(0,0,0)
(0,0,0)
(0,0,0)
(0,0,0)
(0,0,0)
(0,0,0)
(0,0,0)
(0,0,0)
(0,0,0)
(0,0,0)
(0,0,0)
(0,0,0)
(0,0,0)
(0,0,0)
(0,0,0)
(0,0,0)
(0,0,0)
(-547236.479554628,79820.4396189511,66801.7004116767)
(-569834.413156482,74986.6400242848,140536.145955623)
(-620863.981239811,64434.3030376333,228834.110831094)
(-713797.968961827,46292.7306763628,340277.773806314)
(-872904.133199095,18772.4517308841,481730.499667527)
(-1138502.18333415,-16889.4263664714,645803.452677041)
(-1572972.19491103,-49699.6904617335,765848.425601799)
(-2260586.11802355,-56523.2011734558,569870.891399762)
(-3246471.45025809,-38843.4791837085,-937814.767890062)
(-3979685.41233251,-17771.3157033544,-7925062.41771933)
(0,0,0)
(0,0,0)
(0,0,0)
(0,0,0)
(0,0,0)
(0,0,0)
(-571191.911825409,167430.500588468,62010.1729124008)
(-593389.87307148,158352.50479766,129954.855774762)
(-643884.253465761,138095.9025392,210671.438010814)
(-736918.05431124,102038.359880542,312726.387939383)
(-898436.874831358,43857.6677420535,446067.837276281)
(-1171271.9810215,-39052.3753893351,613004.710837665)
(-1615926.12301247,-125454.202625668,759041.124169053)
(-2296867.51348187,-140060.005890534,587556.518764944)
(-3264645.76515409,-86982.9200532822,-916769.90223171)
(-3986092.29175936,-36389.0147096654,-7907304.2535634)
(0,0,0)
(0,0,0)
(0,0,0)
(0,0,0)
(0,0,0)
(0,0,0)
(-624547.118040767,270115.810189647,52928.193191087)
(-645997.188614513,258154.70485874,109626.816710623)
(-695605.354751048,230870.270477478,174572.328190091)
(-789553.195302648,180184.232874851,254549.532812465)
(-959469.824689113,91213.1150607976,363172.582695628)
(-1260452.98296177,-55462.7753154215,526547.319263763)
(-1759497.62335636,-246097.459326882,744336.006996277)
(-2422488.67493182,-272808.873534179,640595.043446701)
(-3319757.82934304,-139760.423885103,-866247.0098596)
(-4003757.92665314,-48970.4841802021,-7870968.60056303)
(0,0,0)
(0,0,0)
(0,0,0)
(0,0,0)
(0,0,0)
(0,0,0)
(-719872.367845083,393132.386206766,40910.0641899257)
(-740195.718882956,380512.549871864,82271.6636174588)
(-788414.715965943,351666.901593372,123834.512765459)
(-884323.598691883,297027.542992199,165563.728790295)
(-1073257.6682816,195106.02609083,216502.368154612)
(-1456789.26139868,420.964099829318,335873.021522848)
(-2205505.74329236,-343965.802646921,717584.526476835)
(-2833634.04777401,-397979.858834763,773690.88009847)
(-3457811.18552505,-137987.917186228,-775469.345828579)
(-4041646.53886709,-30121.14288229,-7822059.01608991)
(0,0,0)
(0,0,0)
(0,0,0)
(0,0,0)
(0,0,0)
(0,0,0)
(-879990.9220535,535683.787800417,28299.5559566155)
(-898664.30192064,524902.19405739,53353.3987357197)
(-944261.923825597,501072.529930702,69110.5745993183)
(-1040247.56075798,458715.990198933,63613.7439829394)
(-1251628.34320798,388235.945569494,21815.1729982603)
(-1792728.05165627,280442.620225402,-8501.75079263178)
(-3561372.26942992,157464.03593333,663609.781618932)
(-4224516.36162159,101773.858195004,1033776.40661525)
(-3728573.70816906,89520.8751456141,-667561.719611526)
(-4103737.58529756,56753.4975726665,-7791953.96145711)
(0,0,0)
(0,0,0)
(0,0,0)
(0,0,0)
(0,0,0)
(0,0,0)
(-1144070.32581175,680437.870062625,17530.3938089705)
(-1160447.72167826,672900.467558214,29437.473631535)
(-1201372.82754467,657156.540279339,26619.9518375672)
(-1290699.89854768,631774.281443188,-6902.08050639258)
(-1496239.65840569,593629.761179635,-85966.7468308102)
(-2036051.03898328,536647.347181359,-131448.50332909)
(-3718777.22146211,455905.660786537,608030.935828914)
(-4326356.49952679,409583.360601337,1021637.10420831)
(-3854651.37702521,295737.913047901,-700266.576928888)
(-4165758.07008434,147317.322015624,-7848691.51956279)
(0,0,0)
(0,0,0)
(0,0,0)
(0,0,0)
(0,0,0)
(0,0,0)
(-1576008.80036596,758796.48757152,9897.89173211919)
(-1589511.60165823,754607.355705717,13593.6589836962)
(-1623979.09538566,747304.026783227,1142.35785946767)
(-1701883.6164229,740022.843600539,-45061.4436280615)
(-1890628.89045778,738335.185813277,-142917.713981508)
(-2419273.55926948,745911.036704245,-212149.240533198)
(-4174551.93993666,747484.232275782,561830.316278277)
(-4736012.57597778,856559.632045408,907918.393406642)
(-4045359.44490799,478605.494255306,-848637.762409465)
(-4268169.0785162,198667.832735577,-7996012.82075408)
(0,0,0)
(0,0,0)
(0,0,0)
(0,0,0)
(0,0,0)
(0,0,0)
(-2265602.24472095,519632.571446569,5617.29722402169)
(-2275772.52032112,517666.117090793,6277.26251411017)
(-2302108.94201386,516127.961731629,-6091.70458455233)
(-2363223.16996474,522610.185673223,-46701.8522812224)
(-2519447.69340586,557109.554267844,-135295.262332191)
(-3004481.40104536,667038.394936797,-210561.711681318)
(-4921870.40993085,902937.686774917,671002.95479926)
(-4011469.21078425,580299.111013876,530093.212426172)
(-4197342.98655189,213808.850102198,-1128526.93917461)
(-4426708.98225202,1854.33544762735,-8194604.69009247)
(0,0,0)
(0,0,0)
(0,0,0)
(0,0,0)
(0,0,0)
(0,0,0)
(-3254734.35163923,-1014238.76865396,3609.66735042376)
(-3261364.95420448,-1015860.13941897,4796.74442954773)
(-3278259.98058527,-1017450.56319462,490.172047791946)
(-3315872.68230981,-1014501.8240845,-12128.0442213283)
(-3401949.38553695,-998503.802426377,-25327.4971719432)
(-3607607.83806723,-960656.354951801,25367.925969907)
(-4057209.05958942,-933029.610641317,348430.64497765)
(-4204415.93851446,-1142211.81528348,163676.067844364)
(-4591156.32115492,-1331730.97614898,-1340405.79403563)
(-4663683.55559111,-1157956.795468,-8196358.93299945)
(0,0,0)
(0,0,0)
(0,0,0)
(0,0,0)
(0,0,0)
(0,0,0)
(-3986052.91340996,-8012001.71691299,1978.3662108488)
(-3989278.90958298,-8014046.04271865,3293.6305633835)
(-3997348.90771951,-8017470.70307117,3518.6374174225)
(-4014743.80270843,-8021096.85152764,3953.37876867921)
(-4051729.7426913,-8025159.71200274,12551.115485334)
(-4129195.56752875,-8037795.79584316,52993.8532474233)
(-4272314.18195821,-8090817.03162175,139287.553237992)
(-4431546.88577257,-8230195.43315093,-25778.2137040337)
(-4665124.44295393,-8204541.72445555,-1166555.53717571)
(-4501964.56347634,-7038083.25763758,-7038275.54597629)
(0,0,0)
(0,0,0)
(0,0,0)
(0,0,0)
(0,0,0)
(0,0,0)
(0,0,0)
(0,0,0)
(0,0,0)
(0,0,0)
(0,0,0)
(0,0,0)
(0,0,0)
(0,0,0)
(0,0,0)
(0,0,0)
(0,0,0)
(0,0,0)
(0,0,0)
(0,0,0)
(0,0,0)
(0,0,0)
(0,0,0)
(0,0,0)
(0,0,0)
(0,0,0)
(0,0,0)
(0,0,0)
(0,0,0)
(0,0,0)
(0,0,0)
(0,0,0)
(0,0,0)
(0,0,0)
(0,0,0)
(0,0,0)
(0,0,0)
(0,0,0)
(0,0,0)
(0,0,0)
(0,0,0)
(0,0,0)
(0,0,0)
(0,0,0)
(0,0,0)
(0,0,0)
(0,0,0)
(0,0,0)
(0,0,0)
(0,0,0)
(0,0,0)
(0,0,0)
(0,0,0)
(0,0,0)
(0,0,0)
(0,0,0)
(0,0,0)
(0,0,0)
(0,0,0)
(0,0,0)
(0,0,0)
(0,0,0)
(0,0,0)
(0,0,0)
(0,0,0)
(0,0,0)
(0,0,0)
(0,0,0)
(0,0,0)
(0,0,0)
(0,0,0)
(0,0,0)
(0,0,0)
(0,0,0)
(0,0,0)
(0,0,0)
(0,0,0)
(0,0,0)
(0,0,0)
(0,0,0)
(0,0,0)
(0,0,0)
(0,0,0)
(0,0,0)
(0,0,0)
(0,0,0)
(0,0,0)
(0,0,0)
(0,0,0)
(0,0,0)
(0,0,0)
(0,0,0)
(0,0,0)
(0,0,0)
(0,0,0)
(0,0,0)
(0,0,0)
(0,0,0)
(0,0,0)
(0,0,0)
(0,0,0)
(0,0,0)
(-647309.62811383,55903.7271494527,44169.4214097495)
(-666449.950505823,51461.9480812964,89323.0106777948)
(-708608.348957929,41440.2726776499,135627.105718265)
(-782233.28696175,23211.7205329807,180850.703185209)
(-901152.980621351,-6744.4642723347,215844.014879801)
(-1084136.97477759,-49606.7809709436,211085.587294185)
(-1347228.63798187,-92600.1858269373,77942.2161919645)
(-1673461.90971189,-92784.5079338938,-416397.484185797)
(-1934348.11843565,-57020.5637404493,-1671500.25226775)
(-1680906.79020962,-24173.2497912417,-3946105.62459935)
(0,0,0)
(0,0,0)
(0,0,0)
(0,0,0)
(0,0,0)
(0,0,0)
(-669028.17353773,113987.438841221,39752.5500205486)
(-687102.714491581,105665.162101492,79262.1774204582)
(-726914.697542017,86349.7947386459,117383.099435719)
(-796624.387841868,49412.7304959236,150888.423003399)
(-910109.912027926,-17145.0895319406,172962.085459567)
(-1087834.46758402,-128163.319954649,168081.111005799)
(-1349236.90748526,-268969.499497781,77761.2091494312)
(-1665563.82458352,-265669.838082638,-380657.149600181)
(-1921532.59616914,-142072.65296232,-1638718.22936324)
(-1673014.74752934,-54018.6549071392,-3921950.36847745)
(0,0,0)
(0,0,0)
(0,0,0)
(0,0,0)
(0,0,0)
(0,0,0)
(-716546.014209367,174564.406362802,31421.9286470219)
(-732531.863387353,163758.545125874,59863.2203954803)
(-767714.007139684,137907.02640606,80414.641116701)
(-829424.363931911,85322.0849811871,84376.4552606979)
(-931621.008203408,-22588.0093757924,61970.5586188438)
(-1102097.76403836,-251788.692564196,27240.7123049713)
(-1390124.56857244,-692104.249775645,81002.4077989161)
(-1666088.24249617,-683971.400165049,-257096.46255434)
(-1890394.86360611,-277784.290198899,-1550747.79105469)
(-1653758.80285655,-86806.9266753362,-3867958.64308311)
(0,0,0)
(0,0,0)
(0,0,0)
(0,0,0)
(0,0,0)
(0,0,0)
(-798490.035322962,232636.286990287,20545.786850403)
(-811557.482496953,221723.073490839,33943.0220994415)
(-839939.155084181,195585.9412594,27788.5463643441)
(-888644.344767315,140952.003832079,-23520.6264111117)
(-968803.779139798,16644.2939717698,-167206.818900476)
(-1127088.90415363,-335580.966608563,-413114.902101163)
(-1699927.79563689,-1699875.83450944,89078.7349771668)
(-1788726.90406137,-1788878.75960666,149078.950706116)
(-1817947.11049738,-408746.316950041,-1359823.09757041)
(-1614883.8859439,-92192.3125552636,-3781200.36461377)
(0,0,0)
(0,0,0)
(0,0,0)
(0,0,0)
(0,0,0)
(0,0,0)
(-928147.882606801,271173.567808434,9619.67973515387)
(-937809.232462197,262749.219142724,7738.46462482965)
(-957712.797858985,243694.305571413,-26919.0256537867)
(-986450.686682448,208070.755529201,-147834.651426442)
(-1006835.13959866,143449.661273656,-519433.22233765)
(-907287.535004611,36983.4674253649,-1777438.17302324)
(3.01915855906538e-05,8.3068209829802e-06,-1.92088003834895e-05)