/*--------------------------------*- C++ -*----------------------------------*\
| =========                 |                                                 |
| \\      /  F ield         | foam-extend: Open Source CFD                    |
|  \\    /   O peration     | Version:     4.0                                |
|   \\  /    A nd           | Web:         http://www.foam-extend.org         |
|    \\/     M anipulation  |                                                 |
\*---------------------------------------------------------------------------*/
FoamFile
{
    version 2.0;
    format ascii;
    class volVectorField;
    location "3256";
    object      H;
}
// * * * * * * * * * * * * * * * * * * * * * * * * * * * * * * * * * * * * * //

dimensions      [0 1 -1 0 0 0 0];

internalField   nonuniform List<vector>
4096
(
(0,0,0)
(0,0,0)
(0,0,0)
(0,0,0)
(0,0,0)
(0,0,0)
(0,0,0)
(0,0,0)
(0,0,0)
(0,0,0)
(0,0,0)
(0,0,0)
(0,0,0)
(0,0,0)
(0,0,0)
(0,0,0)
(0,0,0)
(0,0,0)
(0,0,0)
(0,0,0)
(0,0,0)
(0,0,0)
(0,0,0)
(0,0,0)
(0,0,0)
(0,0,0)
(0,0,0)
(0,0,0)
(0,0,0)
(0,0,0)
(0,0,0)
(0,0,0)
(0,0,0)
(0,0,0)
(0,0,0)
(0,0,0)
(0,0,0)
(0,0,0)
(0,0,0)
(0,0,0)
(0,0,0)
(0,0,0)
(0,0,0)
(0,0,0)
(0,0,0)
(0,0,0)
(0,0,0)
(0,0,0)
(0,0,0)
(0,0,0)
(0,0,0)
(0,0,0)
(0,0,0)
(0,0,0)
(0,0,0)
(0,0,0)
(0,0,0)
(0,0,0)
(0,0,0)
(0,0,0)
(0,0,0)
(0,0,0)
(0,0,0)
(0,0,0)
(0,0,0)
(0,0,0)
(0,0,0)
(0,0,0)
(0,0,0)
(0,0,0)
(0,0,0)
(0,0,0)
(0,0,0)
(0,0,0)
(0,0,0)
(0,0,0)
(0,0,0)
(0,0,0)
(0,0,0)
(0,0,0)
(0,0,0)
(0,0,0)
(0,0,0)
(0,0,0)
(0,0,0)
(0,0,0)
(0,0,0)
(0,0,0)
(0,0,0)
(0,0,0)
(0,0,0)
(0,0,0)
(0,0,0)
(0,0,0)
(0,0,0)
(0,0,0)
(0,0,0)
(0,0,0)
(0,0,0)
(0,0,0)
(0,0,0)
(0,0,0)
(0,0,0)
(0,0,0)
(0,0,0)
(0,0,0)
(0,0,0)
(0,0,0)
(0,0,0)
(0,0,0)
(0,0,0)
(0,0,0)
(0,0,0)
(0,0,0)
(0,0,0)
(0,0,0)
(0,0,0)
(0,0,0)
(0,0,0)
(0,0,0)
(0,0,0)
(0,0,0)
(0,0,0)
(0,0,0)
(0,0,0)
(0,0,0)
(0,0,0)
(0,0,0)
(0,0,0)
(0,0,0)
(0,0,0)
(0,0,0)
(0,0,0)
(0,0,0)
(0,0,0)
(0,0,0)
(0,0,0)
(0,0,0)
(0,0,0)
(0,0,0)
(0,0,0)
(0,0,0)
(0,0,0)
(0,0,0)
(0,0,0)
(0,0,0)
(0,0,0)
(0,0,0)
(0,0,0)
(0,0,0)
(0,0,0)
(0,0,0)
(0,0,0)
(0,0,0)
(0,0,0)
(0,0,0)
(0,0,0)
(0,0,0)
(0,0,0)
(0,0,0)
(0,0,0)
(0,0,0)
(0,0,0)
(0,0,0)
(0,0,0)
(0,0,0)
(0,0,0)
(0,0,0)
(0,0,0)
(0,0,0)
(0,0,0)
(0,0,0)
(0,0,0)
(0,0,0)
(0,0,0)
(0,0,0)
(0,0,0)
(0,0,0)
(0,0,0)
(0,0,0)
(0,0,0)
(0,0,0)
(0,0,0)
(0,0,0)
(0,0,0)
(0,0,0)
(0,0,0)
(0,0,0)
(0,0,0)
(0,0,0)
(0,0,0)
(0,0,0)
(0,0,0)
(0,0,0)
(0,0,0)
(0,0,0)
(0,0,0)
(0,0,0)
(0,0,0)
(0,0,0)
(0,0,0)
(0,0,0)
(0,0,0)
(0,0,0)
(0,0,0)
(0,0,0)
(0,0,0)
(0,0,0)
(0,0,0)
(0,0,0)
(0,0,0)
(0,0,0)
(0,0,0)
(0,0,0)
(0,0,0)
(0,0,0)
(0,0,0)
(0,0,0)
(0,0,0)
(0,0,0)
(0,0,0)
(0,0,0)
(0,0,0)
(0,0,0)
(0,0,0)
(0,0,0)
(0,0,0)
(0,0,0)
(0,0,0)
(0,0,0)
(0,0,0)
(0,0,0)
(0,0,0)
(0,0,0)
(0,0,0)
(0,0,0)
(0,0,0)
(0,0,0)
(0,0,0)
(0,0,0)
(0,0,0)
(0,0,0)
(0,0,0)
(0,0,0)
(0,0,0)
(0,0,0)
(0,0,0)
(0,0,0)
(0,0,0)
(0,0,0)
(0,0,0)
(0,0,0)
(0,0,0)
(0,0,0)
(0,0,0)
(0,0,0)
(0,0,0)
(0,0,0)
(0,0,0)
(0,0,0)
(0,0,0)
(0,0,0)
(0,0,0)
(0,0,0)
(0,0,0)
(0,0,0)
(0,0,0)
(0,0,0)
(0,0,0)
(0,0,0)
(0,0,0)
(0,0,0)
(0,0,0)
(0,0,0)
(0,0,0)
(0,0,0)
(0,0,0)
(0,0,0)
(0,0,0)
(0,0,0)
(0,0,0)
(0,0,0)
(0,0,0)
(0,0,0)
(0,0,0)
(0,0,0)
(0,0,0)
(0,0,0)
(0,0,0)
(0,0,0)
(0,0,0)
(0,0,0)
(0,0,0)
(0,0,0)
(0,0,0)
(0,0,0)
(0,0,0)
(0,0,0)
(0,0,0)
(0,0,0)
(0,0,0)
(0,0,0)
(0,0,0)
(0,0,0)
(0,0,0)
(0,0,0)
(0,0,0)
(0,0,0)
(0,0,0)
(0,0,0)
(0,0,0)
(0,0,0)
(0,0,0)
(0,0,0)
(0,0,0)
(0,0,0)
(0,0,0)
(0,0,0)
(0,0,0)
(0,0,0)
(0,0,0)
(0,0,0)
(0,0,0)
(0,0,0)
(0,0,0)
(0,0,0)
(0,0,0)
(0,0,0)
(0,0,0)
(0,0,0)
(0,0,0)
(0,0,0)
(0,0,0)
(0,0,0)
(0,0,0)
(0,0,0)
(0,0,0)
(0,0,0)
(0,0,0)
(0,0,0)
(0,0,0)
(0,0,0)
(0,0,0)
(0,0,0)
(0,0,0)
(0,0,0)
(0,0,0)
(0,0,0)
(0,0,0)
(0,0,0)
(0,0,0)
(0,0,0)
(0,0,0)
(0,0,0)
(0,0,0)
(0,0,0)
(0,0,0)
(0,0,0)
(0,0,0)
(0,0,0)
(0,0,0)
(0,0,0)
(0,0,0)
(0,0,0)
(0,0,0)
(0,0,0)
(0,0,0)
(0,0,0)
(0,0,0)
(0,0,0)
(0,0,0)
(0,0,0)
(0,0,0)
(0,0,0)
(0,0,0)
(0,0,0)
(0,0,0)
(0,0,0)
(0,0,0)
(0,0,0)
(0,0,0)
(0,0,0)
(0,0,0)
(0,0,0)
(0,0,0)
(0,0,0)
(0,0,0)
(0,0,0)
(0,0,0)
(0,0,0)
(0,0,0)
(0,0,0)
(0,0,0)
(0,0,0)
(0,0,0)
(0,0,0)
(0,0,0)
(0,0,0)
(0,0,0)
(0,0,0)
(0,0,0)
(0,0,0)
(0,0,0)
(0,0,0)
(0,0,0)
(0,0,0)
(0,0,0)
(0,0,0)
(0,0,0)
(0,0,0)
(0,0,0)
(0,0,0)
(0,0,0)
(0,0,0)
(0,0,0)
(0,0,0)
(0,0,0)
(0,0,0)
(0,0,0)
(0,0,0)
(0,0,0)
(0,0,0)
(0,0,0)
(0,0,0)
(0,0,0)
(0,0,0)
(0,0,0)
(0,0,0)
(0,0,0)
(0,0,0)
(0,0,0)
(0,0,0)
(0,0,0)
(0,0,0)
(0,0,0)
(0,0,0)
(0,0,0)
(0,0,0)
(0,0,0)
(0,0,0)
(0,0,0)
(0,0,0)
(0,0,0)
(0,0,0)
(0,0,0)
(0,0,0)
(0,0,0)
(0,0,0)
(0,0,0)
(0,0,0)
(0,0,0)
(0,0,0)
(0,0,0)
(0,0,0)
(0,0,0)
(0,0,0)
(0,0,0)
(0,0,0)
(0,0,0)
(0,0,0)
(0,0,0)
(0,0,0)
(0,0,0)
(0,0,0)
(0,0,0)
(0,0,0)
(0,0,0)
(0,0,0)
(0,0,0)
(0,0,0)
(0,0,0)
(0,0,0)
(0,0,0)
(0,0,0)
(0,0,0)
(0,0,0)
(0,0,0)
(0,0,0)
(0,0,0)
(0,0,0)
(0,0,0)
(0,0,0)
(0,0,0)
(0,0,0)
(0,0,0)
(0,0,0)
(0,0,0)
(0,0,0)
(0,0,0)
(0,0,0)
(0,0,0)
(0,0,0)
(0,0,0)
(0,0,0)
(0,0,0)
(0,0,0)
(0,0,0)
(0,0,0)
(0,0,0)
(0,0,0)
(0,0,0)
(0,0,0)
(0,0,0)
(0,0,0)
(0,0,0)
(0,0,0)
(0,0,0)
(0,0,0)
(0,0,0)
(0,0,0)
(0,0,0)
(0,0,0)
(0,0,0)
(0,0,0)
(0,0,0)
(0,0,0)
(0,0,0)
(0,0,0)
(0,0,0)
(0,0,0)
(0,0,0)
(0,0,0)
(0,0,0)
(0,0,0)
(0,0,0)
(0,0,0)
(0,0,0)
(0,0,0)
(0,0,0)
(0,0,0)
(0,0,0)
(0,0,0)
(0,0,0)
(0,0,0)
(0,0,0)
(0,0,0)
(0,0,0)
(0,0,0)
(0,0,0)
(0,0,0)
(0,0,0)
(0,0,0)
(0,0,0)
(0,0,0)
(0,0,0)
(0,0,0)
(0,0,0)
(0,0,0)
(0,0,0)
(0,0,0)
(0,0,0)
(0,0,0)
(0,0,0)
(0,0,0)
(0,0,0)
(0,0,0)
(0,0,0)
(0,0,0)
(0,0,0)
(0,0,0)
(0,0,0)
(0,0,0)
(0,0,0)
(0,0,0)
(0,0,0)
(0,0,0)
(0,0,0)
(0,0,0)
(0,0,0)
(0,0,0)
(0,0,0)
(0,0,0)
(0,0,0)
(0,0,0)
(0,0,0)
(0,0,0)
(0,0,0)
(0,0,0)
(0,0,0)
(0,0,0)
(0,0,0)
(0,0,0)
(0,0,0)
(0,0,0)
(0,0,0)
(0,0,0)
(0,0,0)
(0,0,0)
(0,0,0)
(0,0,0)
(0,0,0)
(0,0,0)
(0,0,0)
(0,0,0)
(0,0,0)
(0,0,0)
(0,0,0)
(0,0,0)
(0,0,0)
(0,0,0)
(0,0,0)
(0,0,0)
(0,0,0)
(0,0,0)
(0,0,0)
(0,0,0)
(0,0,0)
(0,0,0)
(0,0,0)
(0,0,0)
(0,0,0)
(0,0,0)
(0,0,0)
(0,0,0)
(0,0,0)
(0,0,0)
(0,0,0)
(0,0,0)
(0,0,0)
(0,0,0)
(0,0,0)
(0,0,0)
(0,0,0)
(0,0,0)
(0,0,0)
(0,0,0)
(0,0,0)
(0,0,0)
(0,0,0)
(0,0,0)
(0,0,0)
(0,0,0)
(0,0,0)
(0,0,0)
(0,0,0)
(0,0,0)
(0,0,0)
(0,0,0)
(0,0,0)
(0,0,0)
(0,0,0)
(0,0,0)
(0,0,0)
(0,0,0)
(0,0,0)
(0,0,0)
(0,0,0)
(0,0,0)
(0,0,0)
(0,0,0)
(0,0,0)
(0,0,0)
(0,0,0)
(0,0,0)
(0,0,0)
(0,0,0)
(0,0,0)
(0,0,0)
(0,0,0)
(0,0,0)
(0,0,0)
(0,0,0)
(0,0,0)
(0,0,0)
(0,0,0)
(0,0,0)
(0,0,0)
(0,0,0)
(0,0,0)
(0,0,0)
(0,0,0)
(0,0,0)
(0,0,0)
(0,0,0)
(0,0,0)
(0,0,0)
(0,0,0)
(0,0,0)
(0,0,0)
(0,0,0)
(0,0,0)
(0,0,0)
(0,0,0)
(0,0,0)
(0,0,0)
(0,0,0)
(0,0,0)
(0,0,0)
(0,0,0)
(0,0,0)
(0,0,0)
(0,0,0)
(0,0,0)
(0,0,0)
(0,0,0)
(0,0,0)
(0,0,0)
(0,0,0)
(0,0,0)
(0,0,0)
(0,0,0)
(0,0,0)
(0,0,0)
(0,0,0)
(0,0,0)
(0,0,0)
(0,0,0)
(0,0,0)
(0,0,0)
(0,0,0)
(0,0,0)
(0,0,0)
(0,0,0)
(0,0,0)
(0,0,0)
(0,0,0)
(0,0,0)
(0,0,0)
(0,0,0)
(0,0,0)
(0,0,0)
(0,0,0)
(0,0,0)
(0,0,0)
(0,0,0)
(0,0,0)
(0,0,0)
(0,0,0)
(0,0,0)
(0,0,0)
(0,0,0)
(0,0,0)
(0,0,0)
(0,0,0)
(0,0,0)
(0,0,0)
(0,0,0)
(0,0,0)
(0,0,0)
(0,0,0)
(0,0,0)
(0,0,0)
(0,0,0)
(0,0,0)
(0,0,0)
(0,0,0)
(0,0,0)
(0,0,0)
(0,0,0)
(0,0,0)
(0,0,0)
(0,0,0)
(0,0,0)
(0,0,0)
(0,0,0)
(0,0,0)
(0,0,0)
(0,0,0)
(0,0,0)
(0,0,0)
(0,0,0)
(0,0,0)
(0,0,0)
(0,0,0)
(0,0,0)
(0,0,0)
(0,0,0)
(0,0,0)
(0,0,0)
(0,0,0)
(0,0,0)
(0,0,0)
(0,0,0)
(0,0,0)
(0,0,0)
(0,0,0)
(0,0,0)
(0,0,0)
(0,0,0)
(0,0,0)
(0,0,0)
(0,0,0)
(0,0,0)
(0,0,0)
(0,0,0)
(0,0,0)
(0,0,0)
(0,0,0)
(0,0,0)
(0,0,0)
(0,0,0)
(0,0,0)
(0,0,0)
(0,0,0)
(0,0,0)
(0,0,0)
(0,0,0)
(0,0,0)
(0,0,0)
(0,0,0)
(0,0,0)
(0,0,0)
(0,0,0)
(0,0,0)
(0,0,0)
(0,0,0)
(0,0,0)
(0,0,0)
(0,0,0)
(0,0,0)
(0,0,0)
(0,0,0)
(0,0,0)
(0,0,0)
(0,0,0)
(0,0,0)
(0,0,0)
(0,0,0)
(0,0,0)
(-2.19843745362253e-12,1.12899077758779e-11,-9.77083192434323e-12)
(-4.04974316453322e-12,2.35750057733197e-11,-9.35543326714994e-12)
(-4.70272985071138e-12,3.75710913787056e-11,-8.52579922802624e-12)
(-4.003152067434e-12,5.74856305103861e-11,-7.52579389665526e-12)
(-2.86669715611992e-12,8.98995360339232e-11,-6.10210083547432e-12)
(-2.06082672433119e-12,1.41320490072954e-10,-4.17323174680586e-12)
(-8.16402293504817e-13,2.25407503642591e-10,-2.55426038829871e-12)
(6.65640251580742e-13,3.64661756917536e-10,-1.40286787120946e-12)
(1.24190022130941e-12,5.94427040862274e-10,-1.06597585344618e-12)
(1.56692192257901e-12,9.15112545280234e-10,-8.98941228164485e-13)
(0,0,0)
(0,0,0)
(0,0,0)
(0,0,0)
(0,0,0)
(0,0,0)
(-2.45136682977499e-12,1.08292802714682e-11,-2.12854695360436e-11)
(-5.5994547932184e-12,2.25013501316562e-11,-2.04830626855693e-11)
(-6.98007588410988e-12,3.58781119699691e-11,-1.90054125762792e-11)
(-5.99228152308178e-12,5.52549039881599e-11,-1.71717647819846e-11)
(-4.56028915118975e-12,8.72682010605193e-11,-1.4154923573385e-11)
(-3.14409642877007e-12,1.39169649721122e-10,-1.02494231082649e-11)
(-1.764120034177e-12,2.24476518633354e-10,-6.80900441369136e-12)
(-3.19694311026621e-13,3.64969293383531e-10,-4.21745793478204e-12)
(8.88076479605113e-13,5.95033431312857e-10,-2.81712278335255e-12)
(1.59459438889357e-12,9.15684215885371e-10,-1.50558097188793e-12)
(0,0,0)
(0,0,0)
(0,0,0)
(0,0,0)
(0,0,0)
(0,0,0)
(-2.3299556920193e-12,9.84060151130209e-12,-3.77460636934888e-11)
(-5.70594657528423e-12,2.00755750225235e-11,-3.61941900326438e-11)
(-6.31382352308353e-12,3.26390174951082e-11,-3.4417784230114e-11)
(-4.95364449850542e-12,5.12382942486244e-11,-3.16195774265493e-11)
(-4.17538705324095e-12,8.27264632838364e-11,-2.69041054662775e-11)
(-2.7995871794212e-12,1.35056255055673e-10,-2.08606124062553e-11)
(-1.70423013937103e-12,2.21825727657002e-10,-1.50872627627846e-11)
(-1.59349714987702e-12,3.64139830116443e-10,-1.06612242393915e-11)
(-3.50003134288962e-13,5.94867338048739e-10,-7.47652302267862e-12)
(1.54332967750161e-13,9.16159214851457e-10,-4.07594829552626e-12)
(0,0,0)
(0,0,0)
(0,0,0)
(0,0,0)
(0,0,0)
(0,0,0)
(-2.63295213766174e-12,7.8819833443534e-12,-5.90440994200618e-11)
(-5.77782584523699e-12,1.66656852006367e-11,-5.75389183571994e-11)
(-4.71598807296764e-12,2.81511464531567e-11,-5.59125935113424e-11)
(-1.5777326221597e-12,4.55123415745381e-11,-5.27194444719901e-11)
(-3.09163981595266e-13,7.56128321437128e-11,-4.73353191454499e-11)
(-3.79589909550086e-13,1.27970420778646e-10,-4.02408358891119e-11)
(-1.09656030182975e-12,2.16625582652098e-10,-3.25675583727236e-11)
(-3.16609710051281e-12,3.61218002396829e-10,-2.53371588744998e-11)
(-1.93366974970387e-12,5.92739391807643e-10,-1.8107720845199e-11)
(-1.62668643176629e-12,9.14056895594684e-10,-9.89296331346586e-12)
(0,0,0)
(0,0,0)
(0,0,0)
(0,0,0)
(0,0,0)
(0,0,0)
(-2.19049509845412e-12,5.77715301142219e-12,-9.05266311181749e-11)
(-3.91755003686012e-12,1.30894109048789e-11,-8.98389239912028e-11)
(-9.91721449653516e-13,2.28983501703152e-11,-8.85148981206981e-11)
(2.08353045473207e-12,3.87033911911697e-11,-8.56651154060675e-11)
(3.46473992065907e-12,6.66890551225177e-11,-8.07802860458526e-11)
(2.83414661849164e-12,1.17596661845729e-10,-7.39647201356795e-11)
(1.25281404454439e-13,2.07235971081594e-10,-6.53724620401448e-11)
(-2.7774960439369e-12,3.53982361445302e-10,-5.268212900718e-11)
(-1.99906762467668e-12,5.85973480585201e-10,-3.73889434855594e-11)
(-2.14532937932007e-12,9.06273787246015e-10,-1.94807126353153e-11)
(0,0,0)
(0,0,0)
(0,0,0)
(0,0,0)
(0,0,0)
(0,0,0)
(-5.26268823718747e-13,4.3742249447523e-12,-1.41205066077662e-10)
(-7.87640670142915e-13,1.01589917599936e-11,-1.4036375793998e-10)
(2.3301275054211e-12,1.83578687527714e-11,-1.39203252407909e-10)
(4.98964715963516e-12,3.2275952568312e-11,-1.37246052948904e-10)
(7.23804769816815e-12,5.75698512310864e-11,-1.33126985899045e-10)
(7.30981414609837e-12,1.06097747978821e-10,-1.26021704814632e-10)
(4.24113644418444e-12,1.95698070611045e-10,-1.14420641510547e-10)
(8.82226863728331e-13,3.40602256214143e-10,-9.55231350039334e-11)
(-1.24176804852419e-13,5.70357605264418e-10,-6.93515835663662e-11)
(-1.49492546182827e-12,8.89008160080734e-10,-3.6604360366926e-11)
(0,0,0)
(0,0,0)
(0,0,0)
(0,0,0)
(0,0,0)
(0,0,0)
(2.58310909947659e-13,3.14760873719681e-12,-2.24491916250362e-10)
(5.10950807539101e-13,7.87688349892986e-12,-2.24016069455644e-10)
(3.32353420523416e-12,1.48339525303579e-11,-2.22913458204391e-10)
(6.73117640399271e-12,2.62861660868897e-11,-2.20907083403332e-10)
(9.73759669298579e-12,4.83762295556926e-11,-2.16858945235675e-10)
(9.88755130052194e-12,9.28549452557327e-11,-2.08551089880141e-10)
(8.07736931132637e-12,1.78478942640119e-10,-1.91985049663259e-10)
(5.81779873454466e-12,3.17002473732602e-10,-1.65005613018401e-10)
(3.96344784525442e-12,5.39791718099629e-10,-1.2280522321783e-10)
(2.29902154275686e-12,8.53825110654366e-10,-6.65552206675294e-11)
(0,0,0)
(0,0,0)
(0,0,0)
(0,0,0)
(0,0,0)
(0,0,0)
(1.02091625434684e-12,2.48149351300384e-12,-3.64679461210352e-10)
(2.44140290789647e-12,5.95757633797722e-12,-3.64427731975773e-10)
(5.54368497156788e-12,1.16802515671396e-11,-3.63286954480816e-10)
(8.69394442087518e-12,2.12514053527275e-11,-3.60308197151754e-10)
(1.11844729597874e-11,4.04474118415079e-11,-3.54437217920325e-10)
(1.20145701489624e-11,7.92878038930013e-11,-3.43240747618612e-10)
(1.14065075670013e-11,1.53440007801336e-10,-3.21666166640034e-10)
(1.09854401818571e-11,2.77147536245735e-10,-2.8217841593701e-10)
(9.12861661166404e-12,4.85180046000911e-10,-2.17600555150708e-10)
(7.55172688390874e-12,7.88020071160964e-10,-1.23007754419689e-10)
(0,0,0)
(0,0,0)
(0,0,0)
(0,0,0)
(0,0,0)
(0,0,0)
(2.82178139540467e-12,1.84815650547777e-12,-5.96123194320545e-10)
(6.63087506611118e-12,3.98371821778826e-12,-5.95592999258555e-10)
(9.94787114410151e-12,8.1186874337431e-12,-5.94109147317094e-10)
(1.24515185794949e-11,1.51709951411163e-11,-5.90136836105909e-10)
(1.45040556756366e-11,2.99267395818293e-11,-5.82136330051595e-10)
(1.60170208763222e-11,5.92532166841357e-11,-5.6710577580771e-10)
(1.54690434445675e-11,1.14985986010784e-10,-5.38781525719603e-10)
(1.48587900645648e-11,2.14093221096675e-10,-4.85939458495521e-10)
(1.25986572024878e-11,3.91475028294179e-10,-3.92236180686371e-10)
(1.1071528924451e-11,6.65087352158949e-10,-2.35388332616339e-10)
(0,0,0)
(0,0,0)
(0,0,0)
(0,0,0)
(0,0,0)
(0,0,0)
(2.88711880056807e-12,1.2120401310061e-12,-9.17853241945227e-10)
(7.82225172468767e-12,2.31361374758927e-12,-9.16923816874249e-10)
(1.12482854220259e-11,4.46936007262775e-12,-9.14897337425597e-10)
(1.37830845904949e-11,7.9318530126406e-12,-9.10330364490517e-10)
(1.63622627541264e-11,1.59769202646556e-11,-9.01575511721997e-10)
(1.85639599709313e-11,3.20164148603326e-11,-8.84292403155178e-10)
(1.86216759941938e-11,6.27042908603741e-11,-8.51001624141033e-10)
(1.76950668761711e-11,1.21258517190225e-10,-7.87530523547528e-10)
(1.54623893091086e-11,2.3485912890476e-10,-6.65300705238127e-10)
(1.47987453314448e-11,4.29324937241521e-10,-4.29935634209027e-10)
(0,0,0)
(0,0,0)
(0,0,0)
(0,0,0)
(0,0,0)
(0,0,0)
(0,0,0)
(0,0,0)
(0,0,0)
(0,0,0)
(0,0,0)
(0,0,0)
(0,0,0)
(0,0,0)
(0,0,0)
(0,0,0)
(0,0,0)
(0,0,0)
(0,0,0)
(0,0,0)
(0,0,0)
(0,0,0)
(0,0,0)
(0,0,0)
(0,0,0)
(0,0,0)
(0,0,0)
(0,0,0)
(0,0,0)
(0,0,0)
(0,0,0)
(0,0,0)
(0,0,0)
(0,0,0)
(0,0,0)
(0,0,0)
(0,0,0)
(0,0,0)
(0,0,0)
(0,0,0)
(0,0,0)
(0,0,0)
(0,0,0)
(0,0,0)
(0,0,0)
(0,0,0)
(0,0,0)
(0,0,0)
(0,0,0)
(0,0,0)
(0,0,0)
(0,0,0)
(0,0,0)
(0,0,0)
(0,0,0)
(0,0,0)
(0,0,0)
(0,0,0)
(0,0,0)
(0,0,0)
(0,0,0)
(0,0,0)
(0,0,0)
(0,0,0)
(0,0,0)
(0,0,0)
(0,0,0)
(0,0,0)
(0,0,0)
(0,0,0)
(0,0,0)
(0,0,0)
(0,0,0)
(0,0,0)
(0,0,0)
(0,0,0)
(0,0,0)
(0,0,0)
(0,0,0)
(0,0,0)
(0,0,0)
(0,0,0)
(0,0,0)
(0,0,0)
(0,0,0)
(0,0,0)
(0,0,0)
(0,0,0)
(0,0,0)
(0,0,0)
(0,0,0)
(0,0,0)
(0,0,0)
(0,0,0)
(0,0,0)
(0,0,0)
(0,0,0)
(0,0,0)
(0,0,0)
(0,0,0)
(0,0,0)
(0,0,0)
(-2.15320860640714e-12,2.16486584358724e-11,-1.98128246508033e-11)
(-3.80572156199702e-12,4.42322960351533e-11,-1.87851306215227e-11)
(-4.00975577334568e-12,7.02573474168178e-11,-1.72216504522047e-11)
(-3.19611860640371e-12,1.06529119341244e-10,-1.48966785549886e-11)
(-2.16423127142872e-12,1.63425899901306e-10,-1.13553612809256e-11)
(-1.52895773095532e-12,2.52365437903873e-10,-6.66416121033514e-12)
(-1.0368098012514e-12,3.96006120192027e-10,-2.82546690849181e-12)
(2.121176761143e-14,6.37942777228616e-10,-8.11885254254297e-13)
(4.68475145025542e-13,1.09884897926798e-09,-1.67469678608031e-13)
(9.63100888076607e-14,2.15466643558074e-09,-1.09515615901143e-13)
(0,0,0)
(0,0,0)
(0,0,0)
(0,0,0)
(0,0,0)
(0,0,0)
(-2.26509492008396e-12,2.03020457633235e-11,-4.26967706846045e-11)
(-4.65132979336205e-12,4.18150939470653e-11,-4.08546532758512e-11)
(-5.57462920356326e-12,6.69559740687231e-11,-3.75821833291994e-11)
(-4.99251299214911e-12,1.02508516590024e-10,-3.26261633203334e-11)
(-3.92405183961878e-12,1.58779255437265e-10,-2.52540917452188e-11)
(-2.4711204579107e-12,2.48666414302971e-10,-1.60180853029953e-11)
(-1.70487553688336e-12,3.94691539916949e-10,-7.68025260927233e-12)
(-8.90566194984197e-13,6.39118873949663e-10,-3.39142508572037e-12)
(-2.5737206726138e-13,1.10088716573352e-09,-1.93999648991487e-12)
(-3.85985549009428e-13,2.15698252549486e-09,-9.40463223706776e-13)
(0,0,0)
(0,0,0)
(0,0,0)
(0,0,0)
(0,0,0)
(0,0,0)
(-1.9232111859147e-12,1.83323773233996e-11,-7.2892383136402e-11)
(-4.0724625559235e-12,3.74671876965339e-11,-7.00323983760343e-11)
(-4.62415928467376e-12,6.06943856910339e-11,-6.5549745063925e-11)
(-3.9431637846962e-12,9.43044913346792e-11,-5.84128856754186e-11)
(-3.1052489731939e-12,1.49318822074983e-10,-4.77152855536348e-11)
(-1.48710254586534e-12,2.4017270987903e-10,-3.3777889535007e-11)
(-9.30123657842947e-13,3.90719542342481e-10,-1.993252642446e-11)
(-1.85637064716047e-12,6.3981337078163e-10,-1.29192046505193e-11)
(-1.62263162045335e-12,1.10273476325586e-09,-9.16623370937186e-12)
(-1.81929607107589e-12,2.15900064611481e-09,-4.94432253227093e-12)
(0,0,0)
(0,0,0)
(0,0,0)
(0,0,0)
(0,0,0)
(0,0,0)
(-2.03330286759303e-12,1.53012223181828e-11,-1.12425680027161e-10)
(-3.82787639533795e-12,3.16493557099062e-11,-1.09656962547483e-10)
(-2.65634082948609e-12,5.20430153887402e-11,-1.05140678758048e-10)
(-1.52907565326029e-13,8.21495323168057e-11,-9.70892384534138e-11)
(1.52012978325519e-12,1.33628908553531e-10,-8.48006189733211e-11)
(2.32089150700149e-12,2.24118908419228e-10,-6.81606975944496e-11)
(1.0626517704429e-12,3.81628862273101e-10,-4.98493155549189e-11)
(-3.1598941782475e-12,6.38301227298824e-10,-3.77144208645937e-11)
(-3.38251605840945e-12,1.10224297362813e-09,-2.7289108453603e-11)
(-3.73654139576939e-12,2.15760982878072e-09,-1.47449984065571e-11)
(0,0,0)
(0,0,0)
(0,0,0)
(0,0,0)
(0,0,0)
(0,0,0)
(-1.47527415875648e-12,1.1770293655796e-11,-1.6889064688261e-10)
(-2.31115676248049e-12,2.50876306093483e-11,-1.67086556818216e-10)
(6.98977253257134e-13,4.1775816959986e-11,-1.63257954376386e-10)
(3.62613971736366e-12,6.74622243923778e-11,-1.56363995294332e-10)
(5.76837790193993e-12,1.12988488811219e-10,-1.46060911550649e-10)
(5.7408023898098e-12,1.9861864145997e-10,-1.32622150679435e-10)
(-1.02715115791124e-12,3.60114804578967e-10,-1.19936470418472e-10)
(-4.69057633425668e-12,6.2970117903057e-10,-9.28571018922001e-11)
(-4.29142315439457e-12,1.09407592880358e-09,-6.53530877591691e-11)
(-4.3604148498091e-12,2.14691639440518e-09,-3.40792649229408e-11)
(0,0,0)
(0,0,0)
(0,0,0)
(0,0,0)
(0,0,0)
(0,0,0)
(-1.40960753845056e-13,8.98069067470783e-12,-2.56442384917749e-10)
(3.33962058845595e-13,1.9029870908036e-11,-2.54724313885495e-10)
(3.89684426882609e-12,3.21217553177359e-11,-2.51768666472812e-10)
(6.86036659120831e-12,5.31099541535894e-11,-2.46996570855515e-10)
(9.32638828916136e-12,9.23195030266489e-11,-2.39145964003778e-10)
(8.95155356505657e-12,1.7407240272026e-10,-2.26913217775837e-10)
(2.56275790853914e-12,3.43206766381006e-10,-2.09199409201698e-10)
(-1.68954209238253e-12,6.10015497764446e-10,-1.73138123359507e-10)
(-2.30551283956472e-12,1.0685427986941e-09,-1.24693000690205e-10)
(-2.91623640173058e-12,2.11712586438893e-09,-6.57133430181765e-11)
(0,0,0)
(0,0,0)
(0,0,0)
(0,0,0)
(0,0,0)
(0,0,0)
(4.48579339421609e-13,6.6353893843867e-12,-3.97269169364967e-10)
(1.32764671724084e-12,1.41062153642734e-11,-3.96064850296624e-10)
(4.47086036739713e-12,2.42385400782259e-11,-3.93691964573401e-10)
(7.71779897049126e-12,4.0594759158558e-11,-3.90130021411306e-10)
(9.35855905166664e-12,7.32508007161162e-11,-3.84537584763438e-10)
(6.88865244639464e-12,1.4639375643591e-10,-3.72959827038645e-10)
(6.13686750523712e-12,3.1347442460726e-10,-3.41625656401429e-10)
(3.47234642070812e-12,5.68394103479111e-10,-2.97897651423095e-10)
(2.32511739364618e-12,1.01416284028764e-09,-2.19602870526201e-10)
(1.54884036894998e-12,2.05462323049861e-09,-1.18258516600444e-10)
(0,0,0)
(0,0,0)
(0,0,0)
(0,0,0)
(0,0,0)
(0,0,0)
(1.4025240272942e-12,4.79870629806419e-12,-6.38904109284252e-10)
(3.27448353312917e-12,9.8727866783623e-12,-6.38013433511877e-10)
(6.12649177590548e-12,1.81754755270613e-11,-6.35812619650131e-10)
(8.90337540105194e-12,3.28049523664006e-11,-6.31674211467555e-10)
(1.05086749177294e-11,6.30281853682196e-11,-6.23905341637009e-10)
(1.0474576379278e-11,1.30443000652055e-10,-6.08558207404797e-10)
(1.03727786545767e-11,2.71762396247539e-10,-5.73827837168463e-10)
(9.46189454447009e-12,4.93284733970183e-10,-5.02745153331674e-10)
(8.24083358753591e-12,9.15209921609579e-10,-3.86632653055415e-10)
(7.47669146586963e-12,1.93810890338614e-09,-2.19820663532177e-10)
(0,0,0)
(0,0,0)
(0,0,0)
(0,0,0)
(0,0,0)
(0,0,0)
(2.92770270788596e-12,3.10582191923504e-12,-1.10097169220114e-09)
(6.81712759485032e-12,6.19447732686192e-12,-1.09988552659744e-09)
(9.62488729403577e-12,1.2527329365815e-11,-1.09686385414766e-09)
(1.1690154653665e-11,2.41519801844165e-11,-1.09101209963945e-09)
(1.34233207489342e-11,4.83972714862895e-11,-1.07943373768603e-09)
(1.49295726120035e-11,1.00111276853263e-10,-1.05628717923486e-09)
(1.49086713709102e-11,2.01774572120485e-10,-1.00878506062527e-09)
(1.39902161618529e-11,3.78563566293472e-10,-9.15379929387662e-10)
(1.23667085218744e-11,7.49486956650572e-10,-7.51427579453441e-10)
(1.14456112252908e-11,1.71904534903103e-09,-4.69490929395175e-10)
(0,0,0)
(0,0,0)
(0,0,0)
(0,0,0)
(0,0,0)
(0,0,0)
(3.16973386059643e-12,1.59480434776862e-12,-2.15695669929905e-09)
(8.10938602362438e-12,3.02775488306637e-12,-2.15564270071883e-09)
(1.11506725595708e-11,6.59122699965799e-12,-2.15191174107535e-09)
(1.29600848346153e-11,1.29125851551529e-11,-2.14477071676035e-09)
(1.50560744519558e-11,2.64708240611844e-11,-2.13108277352173e-09)
(1.7289595817105e-11,5.468351432808e-11,-2.10263511308828e-09)
(1.78548662610349e-11,1.0934889863834e-10,-2.04541544644655e-09)
(1.67237657570323e-11,2.15230653236972e-10,-1.93434502888089e-09)
(1.49564471847645e-11,4.67761385793581e-10,-1.71811097818081e-09)
(1.41880483640424e-11,1.24952166342995e-09,-1.24994887749375e-09)
(0,0,0)
(0,0,0)
(0,0,0)
(0,0,0)
(0,0,0)
(0,0,0)
(0,0,0)
(0,0,0)
(0,0,0)
(0,0,0)
(0,0,0)
(0,0,0)
(0,0,0)
(0,0,0)
(0,0,0)
(0,0,0)
(0,0,0)
(0,0,0)
(0,0,0)
(0,0,0)
(0,0,0)
(0,0,0)
(0,0,0)
(0,0,0)
(0,0,0)
(0,0,0)
(0,0,0)
(0,0,0)
(0,0,0)
(0,0,0)
(0,0,0)
(0,0,0)
(0,0,0)
(0,0,0)
(0,0,0)
(0,0,0)
(0,0,0)
(0,0,0)
(0,0,0)
(0,0,0)
(0,0,0)
(0,0,0)
(0,0,0)
(0,0,0)
(0,0,0)
(0,0,0)
(0,0,0)
(0,0,0)
(0,0,0)
(0,0,0)
(0,0,0)
(0,0,0)
(0,0,0)
(0,0,0)
(0,0,0)
(0,0,0)
(0,0,0)
(0,0,0)
(0,0,0)
(0,0,0)
(0,0,0)
(0,0,0)
(0,0,0)
(0,0,0)
(0,0,0)
(0,0,0)
(0,0,0)
(0,0,0)
(0,0,0)
(0,0,0)
(0,0,0)
(0,0,0)
(0,0,0)
(0,0,0)
(0,0,0)
(0,0,0)
(0,0,0)
(0,0,0)
(0,0,0)
(0,0,0)
(0,0,0)
(0,0,0)
(0,0,0)
(0,0,0)
(0,0,0)
(0,0,0)
(0,0,0)
(0,0,0)
(0,0,0)
(0,0,0)
(0,0,0)
(0,0,0)
(0,0,0)
(0,0,0)
(0,0,0)
(0,0,0)
(0,0,0)
(0,0,0)
(0,0,0)
(0,0,0)
(0,0,0)
(0,0,0)
(-1.83428996344997e-12,2.73714784017738e-11,-2.69169726366657e-11)
(-2.95199964354492e-12,5.76943853359891e-11,-2.56461292080135e-11)
(-3.03335432151226e-12,9.24391350687582e-11,-2.32468424340429e-11)
(-2.71683312967297e-12,1.39396687688851e-10,-1.92983162522765e-11)
(-2.20878687777509e-12,2.10069638845532e-10,-1.34729726169786e-11)
(-1.6686284316842e-12,3.14134074035318e-10,-5.87661264829586e-12)
(-1.73581118105028e-12,4.68840330734238e-10,7.4390995432181e-13)
(-1.79930052933573e-12,6.92072941955772e-10,3.26411229316686e-12)
(-1.62766538268972e-12,1.00847553743287e-09,3.02948720937326e-12)
(-2.32929544212378e-12,1.3928070581694e-09,1.84973621854347e-12)
(0,0,0)
(0,0,0)
(0,0,0)
(0,0,0)
(0,0,0)
(0,0,0)
(-2.1375438889543e-12,2.55294049274454e-11,-5.84455601744238e-11)
(-3.57589348976418e-12,5.42883476658112e-11,-5.61547364648442e-11)
(-4.26906083638592e-12,8.8022895536367e-11,-5.1120962579985e-11)
(-4.16055931133972e-12,1.3395674011956e-10,-4.28212212736206e-11)
(-3.69962491903574e-12,2.03276948922223e-10,-3.03359593494565e-11)
(-2.31524872807743e-12,3.08774378629912e-10,-1.40109557741304e-11)
(-2.02170548624837e-12,4.68182554127705e-10,1.96982216560047e-12)
(-3.03649162218592e-12,6.94995055054808e-10,6.54241410411811e-12)
(-3.10450285536042e-12,1.01219040578418e-09,4.50186150526799e-12)
(-3.34456939240173e-12,1.39656016335827e-09,2.004802863637e-12)
(0,0,0)
(0,0,0)
(0,0,0)
(0,0,0)
(0,0,0)
(0,0,0)
(-1.75204094274271e-12,2.26974194183398e-11,-9.93299547211888e-11)
(-2.73728388046463e-12,4.84172298610023e-11,-9.60584320239445e-11)
(-3.1096483704892e-12,7.90642258205068e-11,-8.90210342922891e-11)
(-2.48580488903681e-12,1.21218465091939e-10,-7.67068972501343e-11)
(-1.35273147074848e-12,1.87307115023609e-10,-5.76418012651826e-11)
(7.21335803618467e-13,2.94486343088655e-10,-3.01114435265738e-11)
(1.1472346375044e-12,4.66090016292456e-10,1.22171989037327e-12)
(-4.09719810561851e-12,7.01423956352713e-10,5.46609092286071e-12)
(-5.35275316880406e-12,1.01892222703759e-09,9.3073234180746e-13)
(-5.37280126994087e-12,1.40220385892053e-09,-1.01694488957471e-12)
(0,0,0)
(0,0,0)
(0,0,0)
(0,0,0)
(0,0,0)
(0,0,0)
(-1.27109168526162e-12,1.90317243249044e-11,-1.51345970278668e-10)
(-1.78243508339184e-12,4.05880137231491e-11,-1.479505088794e-10)
(-4.40582706135453e-13,6.58099457224276e-11,-1.40353293936272e-10)
(2.24578087794246e-12,1.01152724596194e-10,-1.26169166741844e-10)
(5.52062814699493e-12,1.59395177707089e-10,-1.03266542524479e-10)
(9.50977642762123e-12,2.63607090561094e-10,-6.73091963028479e-11)
(1.04418147744646e-11,4.58834493138841e-10,-1.81979562331391e-11)
(-4.98515832127489e-12,7.12532705292518e-10,-1.62533709369909e-11)
(-7.75958128004455e-12,1.02748488419369e-09,-1.82231500257889e-11)
(-7.78810542808891e-12,1.40668602441994e-09,-1.19380066550197e-11)
(0,0,0)
(0,0,0)
(0,0,0)
(0,0,0)
(0,0,0)
(0,0,0)
(-4.8976124276025e-13,1.50609311538764e-11,-2.2264876560692e-10)
(-8.19995021420476e-14,3.17347150408346e-11,-2.19623430523838e-10)
(3.45907981208229e-12,5.02457752954072e-11,-2.12580409269021e-10)
(7.67532621252684e-12,7.66026892586602e-11,-2.00183831075061e-10)
(1.29986028169065e-11,1.20406266981962e-10,-1.81363904613174e-10)
(1.76013608674979e-11,2.03878780456734e-10,-1.58426720853225e-10)
(-1.11984814873118e-11,4.01185670665181e-10,-1.67573695412225e-10)
(-1.2508909201383e-11,7.22598658467095e-10,-1.06899465727265e-10)
(-1.00321158794147e-11,1.03011621688291e-09,-7.31026986462037e-11)
(-8.64914975687167e-12,1.40083185035499e-09,-3.84476804592119e-11)
(0,0,0)
(0,0,0)
(0,0,0)
(0,0,0)
(0,0,0)
(0,0,0)
(4.8626950448762e-13,1.11999431217071e-11,-3.2553204961849e-10)
(2.30197018963328e-12,2.31585650551222e-11,-3.22935687557703e-10)
(7.00796389123287e-12,3.595925195311e-11,-3.1748532557937e-10)
(1.15249547356613e-11,5.35547786724788e-11,-3.08652049304301e-10)
(1.61623443710364e-11,8.4445067716894e-11,-2.95655176947295e-10)
(1.89163912748918e-11,1.60483068246661e-10,-2.78870039539178e-10)
(-3.76618615886231e-12,4.07607975839167e-10,-2.78204432344655e-10)
(-8.51327047722159e-12,7.11658498759698e-10,-2.18245723310721e-10)
(-6.90521210454407e-12,1.00557478529903e-09,-1.52423252075272e-10)
(-6.12694553009734e-12,1.36757919251922e-09,-7.88515763442811e-11)
(0,0,0)
(0,0,0)
(0,0,0)
(0,0,0)
(0,0,0)
(0,0,0)
(1.08094335907517e-12,7.90512761849518e-12,-4.73960912568931e-10)
(3.18818967801001e-12,1.61779755275298e-11,-4.72338036446205e-10)
(6.97198175661588e-12,2.45576478343399e-11,-4.68925298250923e-10)
(9.91516911489113e-12,3.43828877740194e-11,-4.64687984582263e-10)
(8.00341667489968e-12,5.05514381242031e-11,-4.63121027450509e-10)
(-8.49476240649453e-12,9.70557664816759e-11,-4.65692633203818e-10)
(4.12089088634167e-12,3.73380643285963e-10,-4.03053230326275e-10)
(2.86935031758399e-13,6.62764394348273e-10,-3.8569455655086e-10)
(-6.63178533822301e-14,9.39449220017247e-10,-2.6823648580863e-10)
(-1.95349119197961e-13,1.29203259877883e-09,-1.38085296749418e-10)
(0,0,0)
(0,0,0)
(0,0,0)
(0,0,0)
(0,0,0)
(0,0,0)
(2.20473263465389e-12,5.38298193113361e-12,-6.9215192434544e-10)
(4.75197902306892e-12,1.08682140287947e-11,-6.90969963708297e-10)
(7.63622975379199e-12,1.749683617829e-11,-6.8864459583969e-10)
(9.7874777533336e-12,2.80692336043176e-11,-6.8561678476054e-10)
(9.79245456678778e-12,5.22895607901395e-11,-6.83731540726962e-10)
(6.07592994195158e-12,1.23936017925697e-10,-6.83152068180609e-10)
(9.27791894438964e-12,3.38765336548116e-10,-6.62139065758343e-10)
(8.07056194437792e-12,5.4854397933698e-10,-5.63322813205806e-10)
(7.15180902317509e-12,8.11956991497949e-10,-4.10550672780725e-10)
(6.71958228957398e-12,1.1552701266626e-09,-2.21403374917668e-10)
(0,0,0)
(0,0,0)
(0,0,0)
(0,0,0)
(0,0,0)
(0,0,0)
(3.3525546750349e-12,3.18082546509832e-12,-1.0064332644786e-09)
(6.96217758846808e-12,6.76174153749768e-12,-1.00519344900773e-09)
(9.70923515325457e-12,1.23311464015327e-11,-1.00210226268171e-09)
(1.13511877289781e-11,2.27732248840929e-11,-9.97045779355336e-10)
(1.22032097234467e-11,4.74871117667868e-11,-9.88749193002445e-10)
(1.28552165275085e-11,1.07995107545277e-10,-9.71307877043162e-10)
(1.3929213615801e-11,2.37477787598906e-10,-9.24954634251536e-10)
(1.33707792825462e-11,3.96712075229546e-10,-8.10850447388346e-10)
(1.21556293219081e-11,6.23916939593821e-10,-6.26967896845662e-10)
(1.14783674308003e-11,9.34570012421595e-10,-3.59804634702644e-10)
(0,0,0)
(0,0,0)
(0,0,0)
(0,0,0)
(0,0,0)
(0,0,0)
(3.4505396269318e-12,1.47591643273147e-12,-1.38958734794563e-09)
(7.40618126333799e-12,3.19066538037823e-12,-1.38819803590351e-09)
(1.06008752443101e-11,6.6607118893577e-12,-1.38464620850546e-09)
(1.218472675144e-11,1.32263524990268e-11,-1.37783306288434e-09)
(1.30792380798237e-11,2.82197818607271e-11,-1.36489291050568e-09)
(1.47534435025203e-11,6.12944522394298e-11,-1.33651268418814e-09)
(1.6133347334419e-11,1.2378245473185e-10,-1.2739896799835e-09)
(1.57203682924832e-11,2.1394159694111e-10,-1.1483815793116e-09)