/*--------------------------------*- C++ -*----------------------------------*\
| =========                 |                                                 |
| \\      /  F ield         | foam-extend: Open Source CFD                    |
|  \\    /   O peration     | Version:     4.0                                |
|   \\  /    A nd           | Web:         http://www.foam-extend.org         |
|    \\/     M anipulation  |                                                 |
\*---------------------------------------------------------------------------*/
FoamFile
{
    version 2.0;
    format ascii;
    class volVectorField;
    location "1947";
    object      H;
}
// * * * * * * * * * * * * * * * * * * * * * * * * * * * * * * * * * * * * * //

dimensions      [0 1 -1 0 0 0 0];

internalField   nonuniform List<vector>
4096
(
(0,0,0)
(0,0,0)
(0,0,0)
(0,0,0)
(0,0,0)
(0,0,0)
(0,0,0)
(0,0,0)
(0,0,0)
(0,0,0)
(0,0,0)
(0,0,0)
(0,0,0)
(0,0,0)
(0,0,0)
(0,0,0)
(0,0,0)
(0,0,0)
(0,0,0)
(0,0,0)
(0,0,0)
(0,0,0)
(0,0,0)
(0,0,0)
(0,0,0)
(0,0,0)
(0,0,0)
(0,0,0)
(0,0,0)
(0,0,0)
(0,0,0)
(0,0,0)
(0,0,0)
(0,0,0)
(0,0,0)
(0,0,0)
(0,0,0)
(0,0,0)
(0,0,0)
(0,0,0)
(0,0,0)
(0,0,0)
(0,0,0)
(0,0,0)
(0,0,0)
(0,0,0)
(0,0,0)
(0,0,0)
(0,0,0)
(0,0,0)
(0,0,0)
(0,0,0)
(0,0,0)
(0,0,0)
(0,0,0)
(0,0,0)
(0,0,0)
(0,0,0)
(0,0,0)
(0,0,0)
(0,0,0)
(0,0,0)
(0,0,0)
(0,0,0)
(0,0,0)
(0,0,0)
(0,0,0)
(0,0,0)
(0,0,0)
(0,0,0)
(0,0,0)
(0,0,0)
(0,0,0)
(0,0,0)
(0,0,0)
(0,0,0)
(0,0,0)
(0,0,0)
(0,0,0)
(0,0,0)
(0,0,0)
(0,0,0)
(0,0,0)
(0,0,0)
(0,0,0)
(0,0,0)
(0,0,0)
(0,0,0)
(0,0,0)
(0,0,0)
(0,0,0)
(0,0,0)
(0,0,0)
(0,0,0)
(0,0,0)
(0,0,0)
(0,0,0)
(0,0,0)
(0,0,0)
(0,0,0)
(0,0,0)
(0,0,0)
(0,0,0)
(0,0,0)
(0,0,0)
(0,0,0)
(0,0,0)
(0,0,0)
(0,0,0)
(0,0,0)
(0,0,0)
(0,0,0)
(0,0,0)
(0,0,0)
(0,0,0)
(0,0,0)
(0,0,0)
(0,0,0)
(0,0,0)
(0,0,0)
(0,0,0)
(0,0,0)
(0,0,0)
(0,0,0)
(0,0,0)
(0,0,0)
(0,0,0)
(0,0,0)
(0,0,0)
(0,0,0)
(0,0,0)
(0,0,0)
(0,0,0)
(0,0,0)
(0,0,0)
(0,0,0)
(0,0,0)
(0,0,0)
(0,0,0)
(0,0,0)
(0,0,0)
(0,0,0)
(0,0,0)
(0,0,0)
(0,0,0)
(0,0,0)
(0,0,0)
(0,0,0)
(0,0,0)
(0,0,0)
(0,0,0)
(0,0,0)
(0,0,0)
(0,0,0)
(0,0,0)
(0,0,0)
(0,0,0)
(0,0,0)
(0,0,0)
(0,0,0)
(0,0,0)
(0,0,0)
(0,0,0)
(0,0,0)
(0,0,0)
(0,0,0)
(0,0,0)
(0,0,0)
(0,0,0)
(0,0,0)
(0,0,0)
(0,0,0)
(0,0,0)
(0,0,0)
(0,0,0)
(0,0,0)
(0,0,0)
(0,0,0)
(0,0,0)
(0,0,0)
(0,0,0)
(0,0,0)
(0,0,0)
(0,0,0)
(0,0,0)
(0,0,0)
(0,0,0)
(0,0,0)
(0,0,0)
(0,0,0)
(0,0,0)
(0,0,0)
(0,0,0)
(0,0,0)
(0,0,0)
(0,0,0)
(0,0,0)
(0,0,0)
(0,0,0)
(0,0,0)
(0,0,0)
(0,0,0)
(0,0,0)
(0,0,0)
(0,0,0)
(0,0,0)
(0,0,0)
(0,0,0)
(0,0,0)
(0,0,0)
(0,0,0)
(0,0,0)
(0,0,0)
(0,0,0)
(0,0,0)
(0,0,0)
(0,0,0)
(0,0,0)
(0,0,0)
(0,0,0)
(0,0,0)
(0,0,0)
(0,0,0)
(0,0,0)
(0,0,0)
(0,0,0)
(0,0,0)
(0,0,0)
(0,0,0)
(0,0,0)
(0,0,0)
(0,0,0)
(0,0,0)
(0,0,0)
(0,0,0)
(0,0,0)
(0,0,0)
(0,0,0)
(0,0,0)
(0,0,0)
(0,0,0)
(0,0,0)
(0,0,0)
(0,0,0)
(0,0,0)
(0,0,0)
(0,0,0)
(0,0,0)
(0,0,0)
(0,0,0)
(0,0,0)
(0,0,0)
(0,0,0)
(0,0,0)
(0,0,0)
(0,0,0)
(0,0,0)
(0,0,0)
(0,0,0)
(0,0,0)
(0,0,0)
(0,0,0)
(0,0,0)
(0,0,0)
(0,0,0)
(0,0,0)
(0,0,0)
(0,0,0)
(0,0,0)
(0,0,0)
(0,0,0)
(0,0,0)
(0,0,0)
(0,0,0)
(0,0,0)
(0,0,0)
(0,0,0)
(0,0,0)
(0,0,0)
(0,0,0)
(0,0,0)
(0,0,0)
(0,0,0)
(0,0,0)
(0,0,0)
(0,0,0)
(0,0,0)
(0,0,0)
(0,0,0)
(0,0,0)
(0,0,0)
(0,0,0)
(0,0,0)
(0,0,0)
(0,0,0)
(0,0,0)
(0,0,0)
(0,0,0)
(0,0,0)
(0,0,0)
(0,0,0)
(0,0,0)
(0,0,0)
(0,0,0)
(0,0,0)
(0,0,0)
(0,0,0)
(0,0,0)
(0,0,0)
(0,0,0)
(0,0,0)
(0,0,0)
(0,0,0)
(0,0,0)
(0,0,0)
(0,0,0)
(0,0,0)
(0,0,0)
(0,0,0)
(0,0,0)
(0,0,0)
(0,0,0)
(0,0,0)
(0,0,0)
(0,0,0)
(0,0,0)
(0,0,0)
(0,0,0)
(0,0,0)
(0,0,0)
(0,0,0)
(0,0,0)
(0,0,0)
(0,0,0)
(0,0,0)
(0,0,0)
(0,0,0)
(0,0,0)
(0,0,0)
(0,0,0)
(0,0,0)
(0,0,0)
(0,0,0)
(0,0,0)
(0,0,0)
(0,0,0)
(0,0,0)
(0,0,0)
(0,0,0)
(0,0,0)
(0,0,0)
(0,0,0)
(0,0,0)
(0,0,0)
(0,0,0)
(0,0,0)
(0,0,0)
(0,0,0)
(0,0,0)
(0,0,0)
(0,0,0)
(0,0,0)
(0,0,0)
(0,0,0)
(0,0,0)
(0,0,0)
(0,0,0)
(0,0,0)
(0,0,0)
(0,0,0)
(0,0,0)
(0,0,0)
(0,0,0)
(0,0,0)
(0,0,0)
(0,0,0)
(0,0,0)
(0,0,0)
(0,0,0)
(0,0,0)
(0,0,0)
(0,0,0)
(0,0,0)
(0,0,0)
(0,0,0)
(0,0,0)
(0,0,0)
(0,0,0)
(0,0,0)
(0,0,0)
(0,0,0)
(0,0,0)
(0,0,0)
(0,0,0)
(0,0,0)
(0,0,0)
(0,0,0)
(0,0,0)
(0,0,0)
(0,0,0)
(0,0,0)
(0,0,0)
(0,0,0)
(0,0,0)
(0,0,0)
(0,0,0)
(0,0,0)
(0,0,0)
(0,0,0)
(0,0,0)
(0,0,0)
(0,0,0)
(0,0,0)
(0,0,0)
(0,0,0)
(0,0,0)
(0,0,0)
(0,0,0)
(0,0,0)
(0,0,0)
(0,0,0)
(0,0,0)
(0,0,0)
(0,0,0)
(0,0,0)
(0,0,0)
(0,0,0)
(0,0,0)
(0,0,0)
(0,0,0)
(0,0,0)
(0,0,0)
(0,0,0)
(0,0,0)
(0,0,0)
(0,0,0)
(0,0,0)
(0,0,0)
(0,0,0)
(0,0,0)
(0,0,0)
(0,0,0)
(0,0,0)
(0,0,0)
(0,0,0)
(0,0,0)
(0,0,0)
(0,0,0)
(0,0,0)
(0,0,0)
(0,0,0)
(0,0,0)
(0,0,0)
(0,0,0)
(0,0,0)
(0,0,0)
(0,0,0)
(0,0,0)
(0,0,0)
(0,0,0)
(0,0,0)
(0,0,0)
(0,0,0)
(0,0,0)
(0,0,0)
(0,0,0)
(0,0,0)
(0,0,0)
(0,0,0)
(0,0,0)
(0,0,0)
(0,0,0)
(0,0,0)
(0,0,0)
(0,0,0)
(0,0,0)
(0,0,0)
(0,0,0)
(0,0,0)
(0,0,0)
(0,0,0)
(0,0,0)
(0,0,0)
(0,0,0)
(0,0,0)
(0,0,0)
(0,0,0)
(0,0,0)
(0,0,0)
(0,0,0)
(0,0,0)
(0,0,0)
(0,0,0)
(0,0,0)
(0,0,0)
(0,0,0)
(0,0,0)
(0,0,0)
(0,0,0)
(0,0,0)
(0,0,0)
(0,0,0)
(0,0,0)
(0,0,0)
(0,0,0)
(0,0,0)
(0,0,0)
(0,0,0)
(0,0,0)
(0,0,0)
(0,0,0)
(0,0,0)
(0,0,0)
(0,0,0)
(0,0,0)
(0,0,0)
(0,0,0)
(0,0,0)
(0,0,0)
(0,0,0)
(0,0,0)
(0,0,0)
(0,0,0)
(0,0,0)
(0,0,0)
(0,0,0)
(0,0,0)
(0,0,0)
(0,0,0)
(0,0,0)
(0,0,0)
(0,0,0)
(0,0,0)
(0,0,0)
(0,0,0)
(0,0,0)
(0,0,0)
(0,0,0)
(0,0,0)
(0,0,0)
(0,0,0)
(0,0,0)
(0,0,0)
(0,0,0)
(0,0,0)
(0,0,0)
(0,0,0)
(0,0,0)
(0,0,0)
(0,0,0)
(0,0,0)
(0,0,0)
(0,0,0)
(0,0,0)
(0,0,0)
(0,0,0)
(0,0,0)
(0,0,0)
(0,0,0)
(0,0,0)
(0,0,0)
(0,0,0)
(0,0,0)
(0,0,0)
(0,0,0)
(0,0,0)
(0,0,0)
(0,0,0)
(0,0,0)
(0,0,0)
(0,0,0)
(0,0,0)
(0,0,0)
(0,0,0)
(0,0,0)
(0,0,0)
(0,0,0)
(0,0,0)
(0,0,0)
(0,0,0)
(0,0,0)
(0,0,0)
(0,0,0)
(0,0,0)
(0,0,0)
(0,0,0)
(0,0,0)
(0,0,0)
(0,0,0)
(0,0,0)
(0,0,0)
(0,0,0)
(0,0,0)
(0,0,0)
(0,0,0)
(0,0,0)
(0,0,0)
(0,0,0)
(0,0,0)
(0,0,0)
(0,0,0)
(0,0,0)
(0,0,0)
(0,0,0)
(0,0,0)
(0,0,0)
(0,0,0)
(0,0,0)
(0,0,0)
(0,0,0)
(0,0,0)
(0,0,0)
(0,0,0)
(0,0,0)
(0,0,0)
(0,0,0)
(0,0,0)
(0,0,0)
(0,0,0)
(0,0,0)
(0,0,0)
(0,0,0)
(0,0,0)
(0,0,0)
(0,0,0)
(0,0,0)
(0,0,0)
(0,0,0)
(0,0,0)
(0,0,0)
(0,0,0)
(0,0,0)
(0,0,0)
(0,0,0)
(0,0,0)
(0,0,0)
(0,0,0)
(0,0,0)
(0,0,0)
(0,0,0)
(0,0,0)
(0,0,0)
(0,0,0)
(0,0,0)
(0,0,0)
(0,0,0)
(0,0,0)
(0,0,0)
(0,0,0)
(0,0,0)
(0,0,0)
(0,0,0)
(0,0,0)
(0,0,0)
(0,0,0)
(0,0,0)
(0,0,0)
(0,0,0)
(0,0,0)
(0,0,0)
(0,0,0)
(0,0,0)
(0,0,0)
(0,0,0)
(0,0,0)
(0,0,0)
(0,0,0)
(0,0,0)
(0,0,0)
(0,0,0)
(0,0,0)
(0,0,0)
(0,0,0)
(0,0,0)
(0,0,0)
(0,0,0)
(0,0,0)
(0,0,0)
(0,0,0)
(0,0,0)
(0,0,0)
(0,0,0)
(0,0,0)
(0,0,0)
(0,0,0)
(0,0,0)
(0,0,0)
(0,0,0)
(0,0,0)
(0,0,0)
(0,0,0)
(0,0,0)
(0,0,0)
(0,0,0)
(0,0,0)
(0,0,0)
(0,0,0)
(0,0,0)
(0,0,0)
(0,0,0)
(0,0,0)
(0,0,0)
(0,0,0)
(0,0,0)
(0,0,0)
(0,0,0)
(0,0,0)
(0,0,0)
(0,0,0)
(0,0,0)
(0,0,0)
(0,0,0)
(0,0,0)
(0,0,0)
(0,0,0)
(0,0,0)
(0,0,0)
(0,0,0)
(0,0,0)
(0,0,0)
(0,0,0)
(0,0,0)
(0,0,0)
(0,0,0)
(0,0,0)
(0,0,0)
(0,0,0)
(0,0,0)
(0,0,0)
(0,0,0)
(0,0,0)
(0,0,0)
(0,0,0)
(0,0,0)
(0,0,0)
(0,0,0)
(0,0,0)
(0,0,0)
(0,0,0)
(0,0,0)
(0,0,0)
(0,0,0)
(0,0,0)
(0,0,0)
(0,0,0)
(0,0,0)
(0,0,0)
(0,0,0)
(0,0,0)
(0,0,0)
(0,0,0)
(0,0,0)
(0,0,0)
(0,0,0)
(0,0,0)
(0,0,0)
(0,0,0)
(0,0,0)
(0,0,0)
(0,0,0)
(0,0,0)
(0,0,0)
(0,0,0)
(0,0,0)
(0,0,0)
(0,0,0)
(0,0,0)
(0,0,0)
(0,0,0)
(0,0,0)
(0,0,0)
(0,0,0)
(0,0,0)
(0,0,0)
(0,0,0)
(0,0,0)
(0,0,0)
(0,0,0)
(0,0,0)
(0,0,0)
(0,0,0)
(0,0,0)
(0,0,0)
(0,0,0)
(0,0,0)
(0,0,0)
(0,0,0)
(0,0,0)
(0,0,0)
(0,0,0)
(0,0,0)
(0,0,0)
(0,0,0)
(0,0,0)
(0,0,0)
(0,0,0)
(0,0,0)
(0,0,0)
(0,0,0)
(0,0,0)
(0,0,0)
(0,0,0)
(0,0,0)
(0,0,0)
(0,0,0)
(0,0,0)
(0,0,0)
(0,0,0)
(0,0,0)
(0,0,0)
(0,0,0)
(0,0,0)
(0,0,0)
(0,0,0)
(0,0,0)
(0,0,0)
(0,0,0)
(0,0,0)
(0,0,0)
(-5.06879835583636e-13,-9.31408606847361e-12,1.17585771811454e-11)
(-7.45326550043354e-13,-2.04036764256257e-11,1.14419663082813e-11)
(-8.01833687435994e-13,-3.4666837603949e-11,1.03100094023729e-11)
(-8.44095523377397e-13,-5.42594605833448e-11,8.350703417258e-12)
(5.76806392198817e-13,-8.40460663535673e-11,6.12435885865472e-12)
(2.01758582862709e-12,-1.31536476953539e-10,3.90992929193737e-12)
(3.59257935758564e-12,-2.08809715031449e-10,1.96199788679696e-12)
(4.89010226957434e-12,-3.38917532032377e-10,1.11518797936159e-12)
(4.80421625774077e-12,-5.56219617327928e-10,1.00555785836708e-12)
(4.66718135461705e-12,-8.58676740880741e-10,4.62762178690123e-13)
(0,0,0)
(0,0,0)
(0,0,0)
(0,0,0)
(0,0,0)
(0,0,0)
(-3.56542432532723e-13,-9.08096954755911e-12,2.39781663467036e-11)
(-1.02173723838302e-12,-1.94772071271615e-11,2.30345362908658e-11)
(-1.88640216162121e-12,-3.31092595229017e-11,2.11028266248557e-11)
(-1.63187911517204e-12,-5.2516802924723e-11,1.79158152138385e-11)
(-2.39249190455069e-13,-8.22686999581656e-11,1.41444666461338e-11)
(1.86797277828647e-12,-1.29779079092894e-10,9.59505840601793e-12)
(5.137605555328e-12,-2.07698638396801e-10,5.46849296704653e-12)
(8.53856614709941e-12,-3.38677727723945e-10,3.51836468350749e-12)
(9.41279966235963e-12,-5.56203108817872e-10,2.7470950937949e-12)
(9.53966094619344e-12,-8.59106665114915e-10,1.50616245098431e-12)
(0,0,0)
(0,0,0)
(0,0,0)
(0,0,0)
(0,0,0)
(0,0,0)
(9.21884497968048e-13,-8.17999090837884e-12,3.80405482192596e-11)
(4.85435638806595e-13,-1.78124045312608e-11,3.68364648436082e-11)
(-9.79322493931308e-13,-3.04011110073782e-11,3.445877038456e-11)
(-9.62517936804337e-13,-4.90359571935219e-11,3.03170968275447e-11)
(-1.08357920310227e-13,-7.82793585646696e-11,2.5044294947331e-11)
(2.32821250987918e-12,-1.25968302583001e-10,1.82994430372135e-11)
(5.98022538326763e-12,-2.05270146810655e-10,1.22001553960679e-11)
(1.0539114654921e-11,-3.37607555244478e-10,8.91198353898493e-12)
(1.24512926456411e-11,-5.55519256867562e-10,6.66408842339925e-12)
(1.23010596474914e-11,-8.58912318749436e-10,3.75071408799755e-12)
(0,0,0)
(0,0,0)
(0,0,0)
(0,0,0)
(0,0,0)
(0,0,0)
(4.61646298701334e-13,-6.92973869787424e-12,5.74213900490676e-11)
(6.34622344434596e-13,-1.55099656711105e-11,5.60775087449071e-11)
(1.20658072353767e-13,-2.68132101526137e-11,5.36951600851221e-11)
(2.11201944738287e-13,-4.41557024119329e-11,4.95575619000041e-11)
(6.69344786963497e-13,-7.20121080991496e-11,4.36770698064737e-11)
(2.47429759294629e-12,-1.19707029108362e-10,3.56873753332113e-11)
(6.23303749788841e-12,-2.01312795358802e-10,2.76924780036574e-11)
(1.13987164738013e-11,-3.3557288452559e-10,2.14207593682883e-11)
(1.38695263558175e-11,-5.53663626024581e-10,1.55193797026461e-11)
(1.41553618776678e-11,-8.57055478534832e-10,8.43336069501439e-12)
(0,0,0)
(0,0,0)
(0,0,0)
(0,0,0)
(0,0,0)
(0,0,0)
(3.62657984527615e-13,-5.85730494710647e-12,8.60010045594699e-11)
(7.89572803931483e-13,-1.33379706680582e-11,8.48557268172891e-11)
(5.68490068257463e-13,-2.29582129682726e-11,8.27003533067567e-11)
(6.38601727694493e-13,-3.79963567087583e-11,7.88869924903792e-11)
(7.82425719258158e-13,-6.33401700274471e-11,7.34597666555443e-11)
(2.8017401862297e-12,-1.10139855035982e-10,6.58905955301076e-11)
(7.31164431536904e-12,-1.93709276576651e-10,5.72827971635526e-11)
(1.22314966352464e-11,-3.30577666221019e-10,4.5941573937352e-11)
(1.52170889325921e-11,-5.4830703200373e-10,3.27599092980261e-11)
(1.5977095183304e-11,-8.50553507477962e-10,1.74548944382436e-11)
(0,0,0)
(0,0,0)
(0,0,0)
(0,0,0)
(0,0,0)
(0,0,0)
(-5.58769209272613e-13,-4.48167730620789e-12,1.30525704398351e-10)
(-3.5811559131915e-13,-1.04570680740111e-11,1.29802025504575e-10)
(-4.91450956065052e-13,-1.85765862014627e-11,1.28255973140267e-10)
(1.87623049770209e-13,-3.1566958542678e-11,1.2509072276436e-10)
(1.12697985238262e-12,-5.4395580332301e-11,1.20281022883386e-10)
(3.59187061712803e-12,-9.93134125072566e-11,1.12863906672252e-10)
(7.27667074331001e-12,-1.83223185025047e-10,1.02153189656914e-10)
(1.01622456084558e-11,-3.1907962696054e-10,8.5347074872595e-11)
(1.24096435475941e-11,-5.34394330783044e-10,6.17982911870398e-11)
(1.31675813338897e-11,-8.34189197924231e-10,3.29414600824459e-11)
(0,0,0)
(0,0,0)
(0,0,0)
(0,0,0)
(0,0,0)
(0,0,0)
(-6.33779589739467e-13,-3.31482341336521e-12,2.06183912185497e-10)
(-1.21169752842379e-12,-7.74840713593766e-12,2.04950795316853e-10)
(-1.18606565588192e-12,-1.44483350768257e-11,2.03204385043867e-10)
(-3.0422670359901e-13,-2.55958181694623e-11,2.00526005121292e-10)
(1.54790719424449e-12,-4.59454563805797e-11,1.96338488489861e-10)
(4.04271868564997e-12,-8.71965833807382e-11,1.88695717112916e-10)
(5.79394483995416e-12,-1.67152619976291e-10,1.7388291859051e-10)
(7.32841642607841e-12,-2.97092990430746e-10,1.49783230739088e-10)
(8.73908831987372e-12,-5.06469822792964e-10,1.11663409049441e-10)
(8.69724066373565e-12,-8.0176368906589e-10,6.0991458300539e-11)
(0,0,0)
(0,0,0)
(0,0,0)
(0,0,0)
(0,0,0)
(0,0,0)
(-1.08274829830114e-12,-2.04684657444137e-12,3.35148522382819e-10)
(-2.27248694663939e-12,-5.26994225191443e-12,3.34071022014701e-10)
(-2.00619261926089e-12,-1.08623251563536e-11,3.31977083008185e-10)
(-8.06521005864927e-13,-2.04778190193577e-11,3.28953636441912e-10)
(1.40117018931073e-12,-3.85856979489921e-11,3.24271906933583e-10)
(3.76703689194921e-12,-7.51920263861635e-11,3.15328067243821e-10)
(5.01080348527928e-12,-1.44339454258804e-10,2.96266498342009e-10)
(6.80773267223421e-12,-2.60075050208875e-10,2.60165037538092e-10)
(7.19651131819064e-12,-4.55915891208202e-10,2.01260902976237e-10)
(5.92714979142851e-12,-7.40838472052243e-10,1.14380899411306e-10)
(0,0,0)
(0,0,0)
(0,0,0)
(0,0,0)
(0,0,0)
(0,0,0)
(-5.13158602624587e-13,-1.482003479304e-12,5.49440382621944e-10)
(-1.4252445704384e-12,-3.44035646327257e-12,5.48683083328571e-10)
(-1.31104070529005e-12,-7.62236809412646e-12,5.46723943619118e-10)
(-2.39107916917455e-13,-1.5121166214764e-11,5.43566609788579e-10)
(1.61102114933559e-12,-2.91350615298584e-11,5.37695934762189e-10)
(3.71722015971909e-12,-5.69383218168789e-11,5.25825068272994e-10)
(4.20177941434396e-12,-1.08698226088766e-10,5.00696738326435e-10)
(5.51479770399312e-12,-2.00887862309252e-10,4.52014846918303e-10)
(5.27524830598631e-12,-3.67865498041358e-10,3.6590191056309e-10)
(4.2330843816042e-12,-6.25931385053164e-10,2.20365420447058e-10)
(0,0,0)
(0,0,0)
(0,0,0)
(0,0,0)
(0,0,0)
(0,0,0)
(1.0761055281972e-12,-8.58332126539512e-13,8.4993141124414e-10)
(9.08548053891113e-13,-1.82393086659902e-12,8.5002546744528e-10)
(-1.32550622078662e-13,-4.32197370544507e-12,8.48844307344416e-10)
(-2.4585304700785e-13,-8.38525761338641e-12,8.45432662188933e-10)
(8.8332626414095e-13,-1.59276550000935e-11,8.38335528604198e-10)
(4.12367922145492e-12,-3.10307365231194e-11,8.24068062898078e-10)
(4.85573940786271e-12,-5.97105419350981e-11,7.94787038466708e-10)
(5.7692718712389e-12,-1.13996882492349e-10,7.36450991605317e-10)
(4.69961990682558e-12,-2.20954190839524e-10,6.23701111426077e-10)
(3.77351152723959e-12,-4.04692231885577e-10,4.03893901312989e-10)
(0,0,0)
(0,0,0)
(0,0,0)
(0,0,0)
(0,0,0)
(0,0,0)
(0,0,0)
(0,0,0)
(0,0,0)
(0,0,0)
(0,0,0)
(0,0,0)
(0,0,0)
(0,0,0)
(0,0,0)
(0,0,0)
(0,0,0)
(0,0,0)
(0,0,0)
(0,0,0)
(0,0,0)
(0,0,0)
(0,0,0)
(0,0,0)
(0,0,0)
(0,0,0)
(0,0,0)
(0,0,0)
(0,0,0)
(0,0,0)
(0,0,0)
(0,0,0)
(0,0,0)
(0,0,0)
(0,0,0)
(0,0,0)
(0,0,0)
(0,0,0)
(0,0,0)
(0,0,0)
(0,0,0)
(0,0,0)
(0,0,0)
(0,0,0)
(0,0,0)
(0,0,0)
(0,0,0)
(0,0,0)
(0,0,0)
(0,0,0)
(0,0,0)
(0,0,0)
(0,0,0)
(0,0,0)
(0,0,0)
(0,0,0)
(0,0,0)
(0,0,0)
(0,0,0)
(0,0,0)
(0,0,0)
(0,0,0)
(0,0,0)
(0,0,0)
(0,0,0)
(0,0,0)
(0,0,0)
(0,0,0)
(0,0,0)
(0,0,0)
(0,0,0)
(0,0,0)
(0,0,0)
(0,0,0)
(0,0,0)
(0,0,0)
(0,0,0)
(0,0,0)
(0,0,0)
(0,0,0)
(0,0,0)
(0,0,0)
(0,0,0)
(0,0,0)
(0,0,0)
(0,0,0)
(0,0,0)
(0,0,0)
(0,0,0)
(0,0,0)
(0,0,0)
(0,0,0)
(0,0,0)
(0,0,0)
(0,0,0)
(0,0,0)
(0,0,0)
(0,0,0)
(0,0,0)
(0,0,0)
(0,0,0)
(0,0,0)
(-4.23385483637258e-13,-1.75346603378495e-11,2.24935089486299e-11)
(-5.3983894260054e-13,-3.8529361082205e-11,2.12477368643732e-11)
(-4.0010578339121e-13,-6.52164362777904e-11,1.84626757008848e-11)
(-3.60408623396279e-13,-1.003462902727e-10,1.46541690062571e-11)
(1.01386956346771e-12,-1.52170398060289e-10,1.01329388970733e-11)
(2.20811937314563e-12,-2.33619075095971e-10,5.824279140942e-12)
(3.32831263043934e-12,-3.65384473133261e-10,2.08004484105391e-12)
(4.7599280819712e-12,-5.91541729259038e-10,1.34087651308275e-13)
(5.33050342701936e-12,-1.02658636882153e-09,7.31114458377183e-14)
(5.55986776704132e-12,-2.0208620996184e-09,9.49859476772218e-14)
(0,0,0)
(0,0,0)
(0,0,0)
(0,0,0)
(0,0,0)
(0,0,0)
(-3.1389101587412e-13,-1.67917337478901e-11,4.46211984457697e-11)
(-7.54830168270244e-13,-3.64816689727309e-11,4.28790311902502e-11)
(-1.40753926611872e-12,-6.22155776229585e-11,3.90681966785071e-11)
(-1.34137627867588e-12,-9.69156972200929e-11,3.27829786177152e-11)
(3.2081765616174e-13,-1.48347398121401e-10,2.44610609840816e-11)
(2.18376170733919e-12,-2.30131733064478e-10,1.49799796810394e-11)
(4.65924225262798e-12,-3.63745620022413e-10,6.38691879744504e-12)
(8.23966325756129e-12,-5.91864696959653e-10,2.27998922807702e-12)
(9.96988035525085e-12,-1.02734008974119e-09,1.48595548633668e-12)
(1.08514770319256e-11,-2.02199139212875e-09,8.73673436355367e-13)
(0,0,0)
(0,0,0)
(0,0,0)
(0,0,0)
(0,0,0)
(0,0,0)
(8.75715663115709e-13,-1.55068135678807e-11,7.03705883515048e-11)
(5.6069123770949e-13,-3.35543781176975e-11,6.854866218539e-11)
(-4.2554979166459e-13,-5.70208925655085e-11,6.40034181198197e-11)
(-5.69970838174437e-13,-8.99965483858133e-11,5.57968344028868e-11)
(3.69243524234977e-13,-1.40038223653711e-10,4.43667552842955e-11)
(2.16622667638248e-12,-2.22416847259037e-10,2.98877609832602e-11)
(5.31104578852502e-12,-3.60181112412676e-10,1.59742498248433e-11)
(1.07523390514776e-11,-5.92061026327053e-10,9.70499619582036e-12)
(1.35090361378381e-11,-1.02801830220522e-09,7.28721113548378e-12)
(1.41949335207003e-11,-2.02284683782676e-09,4.15146451957129e-12)
(0,0,0)
(0,0,0)
(0,0,0)
(0,0,0)
(0,0,0)
(0,0,0)
(7.3309385209339e-13,-1.37322328076474e-11,1.05209523101727e-10)
(8.44976001164105e-13,-2.93685679576743e-11,1.0283810519973e-10)
(4.03259073123125e-13,-4.95403579268226e-11,9.7894636511509e-11)
(-6.76516649010959e-14,-7.94092515642442e-11,8.95439347591482e-11)
(-1.2898811482396e-14,-1.26169892806619e-10,7.71771782093015e-11)
(9.02020850135903e-13,-2.08376323091565e-10,6.0343010561628e-11)
(4.90123735109061e-12,-3.53159013306303e-10,4.2274644569192e-11)
(1.23048778349501e-11,-5.91540745896609e-10,3.16290670191119e-11)
(1.55989513430385e-11,-1.02744675384531e-09,2.35376255699219e-11)
(1.60867515166616e-11,-2.0215314898208e-09,1.30279610138094e-11)
(0,0,0)
(0,0,0)
(0,0,0)
(0,0,0)
(0,0,0)
(0,0,0)
(1.32308085809751e-13,-1.13470393196119e-11,1.56092877763471e-10)
(6.40437204146034e-14,-2.4355069953374e-11,1.53919968002382e-10)
(2.24117824388457e-16,-4.08427706741068e-11,1.49248918859798e-10)
(-3.63570603554187e-13,-6.60967228052768e-11,1.41769882590917e-10)
(-5.92992850441871e-13,-1.07280452361386e-10,1.30965210078982e-10)
(5.83096024055456e-13,-1.85902316744417e-10,1.17515486133305e-10)
(8.16677598996782e-12,-3.35844503558548e-10,1.04842771946863e-10)
(1.39151220142841e-11,-5.86292532715856e-10,8.14949679238539e-11)
(1.66094025716484e-11,-1.02117502100537e-09,5.73810093981231e-11)
(1.7067680067404e-11,-2.0124051680564e-09,3.0299904330197e-11)
(0,0,0)
(0,0,0)
(0,0,0)
(0,0,0)
(0,0,0)
(0,0,0)
(-1.0019442083389e-12,-8.70216733153218e-12,2.34024581104854e-10)
(-1.52072416508576e-12,-1.89455033323512e-11,2.32404064824788e-10)
(-1.45445170479937e-12,-3.20962154893262e-11,2.28486091283417e-10)
(-9.73817442461783e-13,-5.25737061089811e-11,2.22396518796637e-10)
(9.39721118082281e-14,-8.82300718840333e-11,2.13768773512491e-10)
(2.18575850591308e-12,-1.63365274321399e-10,2.01796196558285e-10)
(8.01222047891612e-12,-3.19843901398675e-10,1.85671445568726e-10)
(1.17243927642526e-11,-5.68996894705119e-10,1.54912771426076e-10)
(1.33419666619813e-11,-9.98472195823736e-10,1.11552036523848e-10)
(1.36835325581069e-11,-1.98515378987397e-09,5.89132215165123e-11)
(0,0,0)
(0,0,0)
(0,0,0)
(0,0,0)
(0,0,0)
(0,0,0)
(-6.68639560020514e-13,-6.58218942412877e-12,3.62855794634942e-10)
(-1.94375213945944e-12,-1.41588849470186e-11,3.6094222683396e-10)
(-2.09369565377794e-12,-2.45587706030081e-11,3.5710419491141e-10)
(-1.23470922227994e-12,-4.08461608795397e-11,3.52209387410454e-10)
(1.83092013962138e-12,-7.0576203797347e-11,3.45898890267714e-10)
(6.85096021350444e-12,-1.3810217568154e-10,3.35166553809495e-10)
(7.08046697394351e-12,-2.92466935023644e-10,3.07432252820194e-10)
(8.43029789367875e-12,-5.30735326856882e-10,2.70306582903695e-10)
(8.85710748371143e-12,-9.49004336323071e-10,2.0025082381757e-10)
(8.76348195118852e-12,-1.92794161109512e-09,1.08032998297593e-10)
(0,0,0)
(0,0,0)
(0,0,0)
(0,0,0)
(0,0,0)
(0,0,0)
(-5.70091025320524e-13,-4.11356653357962e-12,5.84637778069799e-10)
(-2.00813372876471e-12,-9.57893762580176e-12,5.83305326642827e-10)
(-2.22270311521159e-12,-1.83763643761232e-11,5.7990955279371e-10)
(-1.48144430212958e-12,-3.28395697181786e-11,5.75106640050554e-10)
(8.94373459914579e-13,-6.06352726855497e-11,5.68386198314753e-10)
(4.57490122450278e-12,-1.23844557043615e-10,5.56113452417085e-10)
(5.47103611918642e-12,-2.54358437660361e-10,5.26108407778307e-10)
(6.52467933428846e-12,-4.61281679290565e-10,4.62671282399941e-10)
(6.02612171646008e-12,-8.57601870762771e-10,3.57099682411215e-10)
(5.40096220306647e-12,-1.82033080517259e-09,2.03369907243809e-10)
(0,0,0)
(0,0,0)
(0,0,0)
(0,0,0)
(0,0,0)
(0,0,0)
(-3.79530662015479e-13,-2.9691523406586e-12,1.01293514291086e-09)
(-1.08253045765874e-12,-6.49863394563258e-12,1.01174821788469e-09)
(-1.45410126343025e-12,-1.29268705579088e-11,1.00888754057862e-09)
(-1.10434149190135e-12,-2.4578929261581e-11,1.00400082558612e-09)
(2.74481108779082e-13,-4.70974620007418e-11,9.94957614801003e-10)
(2.93796481249775e-12,-9.56806394820874e-11,9.76538879923043e-10)
(3.89598666881223e-12,-1.89397067346868e-10,9.35369488600257e-10)
(4.73675424229402e-12,-3.54096467230217e-10,8.5078324490101e-10)
(3.90043122016447e-12,-7.02450327163629e-10,7.00135201105201e-10)
(3.35935166120823e-12,-1.61579526792477e-09,4.38520960092231e-10)
(0,0,0)
(0,0,0)
(0,0,0)
(0,0,0)
(0,0,0)
(0,0,0)
(1.23717200518367e-13,-1.80240372865241e-12,2.00485357650683e-09)
(2.65777288155748e-13,-3.65026280434426e-12,2.00369158243015e-09)
(-1.04287917204236e-12,-6.94180888610285e-12,2.00124713872039e-09)
(-1.53397707565936e-12,-1.3297341467389e-11,1.99633418894844e-09)
(-7.76863029840613e-13,-2.59762724600731e-11,1.98557352309913e-09)
(2.37396712969524e-12,-5.23978622933282e-11,1.9622613152332e-09)
(3.48124433414007e-12,-1.03133585434275e-10,1.91291051488816e-09)
(4.52226955817896e-12,-2.01744910521004e-10,1.81172246453329e-09)
(3.55263918039087e-12,-4.38945734855951e-10,1.61162031187786e-09)
(2.97518095474652e-12,-1.17554868730804e-09,1.17429637684655e-09)
(0,0,0)
(0,0,0)
(0,0,0)
(0,0,0)
(0,0,0)
(0,0,0)
(0,0,0)
(0,0,0)
(0,0,0)
(0,0,0)
(0,0,0)
(0,0,0)
(0,0,0)
(0,0,0)
(0,0,0)
(0,0,0)
(0,0,0)
(0,0,0)
(0,0,0)
(0,0,0)
(0,0,0)
(0,0,0)
(0,0,0)
(0,0,0)
(0,0,0)
(0,0,0)
(0,0,0)
(0,0,0)
(0,0,0)
(0,0,0)
(0,0,0)
(0,0,0)
(0,0,0)
(0,0,0)
(0,0,0)
(0,0,0)
(0,0,0)
(0,0,0)
(0,0,0)
(0,0,0)
(0,0,0)
(0,0,0)
(0,0,0)
(0,0,0)
(0,0,0)
(0,0,0)
(0,0,0)
(0,0,0)
(0,0,0)
(0,0,0)
(0,0,0)
(0,0,0)
(0,0,0)
(0,0,0)
(0,0,0)
(0,0,0)
(0,0,0)
(0,0,0)
(0,0,0)
(0,0,0)
(0,0,0)
(0,0,0)
(0,0,0)
(0,0,0)
(0,0,0)
(0,0,0)
(0,0,0)
(0,0,0)
(0,0,0)
(0,0,0)
(0,0,0)
(0,0,0)
(0,0,0)
(0,0,0)
(0,0,0)
(0,0,0)
(0,0,0)
(0,0,0)
(0,0,0)
(0,0,0)
(0,0,0)
(0,0,0)
(0,0,0)
(0,0,0)
(0,0,0)
(0,0,0)
(0,0,0)
(0,0,0)
(0,0,0)
(0,0,0)
(0,0,0)
(0,0,0)
(0,0,0)
(0,0,0)
(0,0,0)
(0,0,0)
(0,0,0)
(0,0,0)
(0,0,0)
(0,0,0)
(0,0,0)
(0,0,0)
(7.94600106546079e-14,-2.26557813655884e-11,2.73914686527127e-11)
(1.97530111140297e-13,-4.99155416525051e-11,2.58783000338274e-11)
(4.07542257008764e-13,-8.51773390549244e-11,2.250601478223e-11)
(7.30228433418594e-13,-1.30882108627989e-10,1.77895856645336e-11)
(1.49952938044186e-12,-1.9466133712927e-10,1.15122384253641e-11)
(2.46501164169105e-12,-2.89731301799203e-10,4.36191154548981e-12)
(3.63541670882876e-12,-4.31074733385091e-10,-1.80268844410502e-12)
(5.14387198811198e-12,-6.38291956294678e-10,-4.09871522992744e-12)
(6.06234984492786e-12,-9.35589570183996e-10,-2.92474032703067e-12)
(6.78414622487437e-12,-1.29762910216852e-09,-1.06199813814134e-12)
(0,0,0)
(0,0,0)
(0,0,0)
(0,0,0)
(0,0,0)
(0,0,0)
(1.4335605929154e-13,-2.18003220941268e-11,5.60320540117922e-11)
(1.28713487748102e-13,-4.76705840114586e-11,5.38865569681053e-11)
(-3.1700626377882e-13,-8.15354382086567e-11,4.87794695523476e-11)
(6.13925216445332e-14,-1.25629734704212e-10,3.9896286138518e-11)
(1.492724491389e-12,-1.88320444000601e-10,2.72897862101921e-11)
(3.06193678559784e-12,-2.84591897621216e-10,1.1394702604429e-11)
(5.20166421120524e-12,-4.3026288890205e-10,-3.68398299931431e-12)
(9.23002636790106e-12,-6.40951112761694e-10,-7.64397095982348e-12)
(1.12603748692287e-11,-9.38512756447065e-10,-4.86020255297297e-12)
(1.25805961665407e-11,-1.29982689416347e-09,-1.73479923084591e-12)
(0,0,0)
(0,0,0)
(0,0,0)
(0,0,0)
(0,0,0)
(0,0,0)
(9.2306106704574e-13,-2.00984343143906e-11,9.08374648435968e-11)
(9.20125144346358e-13,-4.37140752129903e-11,8.84103280984792e-11)
(3.00499287174845e-13,-7.43088457450404e-11,8.1640520649073e-11)
(2.72811458211023e-13,-1.14972034474232e-10,6.92328792030758e-11)
(9.79906978113836e-13,-1.74587455150524e-10,5.08479932630466e-11)
(2.03921366730373e-12,-2.71874304389199e-10,2.48908991356746e-11)
(4.55820031211721e-12,-4.28671137102324e-10,-3.7951023966429e-12)
(1.26498436803141e-11,-6.46799259555999e-10,-6.90883100890855e-12)
(1.60732343948586e-11,-9.43951514919687e-10,-1.74619427281609e-12)
(1.70310500335931e-11,-1.3034997730747e-09,6.1770083764839e-13)
(0,0,0)
(0,0,0)
(0,0,0)
(0,0,0)
(0,0,0)
(0,0,0)
(7.19318265346214e-13,-1.77655211985075e-11,1.36766781993926e-10)
(7.74946686282447e-13,-3.75495186281733e-11,1.33309461263244e-10)
(5.63735721138074e-14,-6.29616000512496e-11,1.25641210748222e-10)
(-1.01342387468051e-12,-9.78248498320699e-11,1.12374316374691e-10)
(-2.06817160832735e-12,-1.50189730869384e-10,9.1520003765298e-11)
(-3.5036195051836e-12,-2.44673187692737e-10,5.88004911250317e-11)
(-1.76769484633762e-12,-4.23653918316316e-10,1.39690248533836e-11)
(1.51481061037704e-11,-6.57821902537281e-10,1.34044025630703e-11)
(1.98368830595747e-11,-9.51387637313871e-10,1.63003130874796e-11)
(1.99883907654368e-11,-1.30650278330574e-09,1.09465447979413e-11)
(0,0,0)
(0,0,0)
(0,0,0)
(0,0,0)
(0,0,0)
(0,0,0)
(-3.39654141595153e-13,-1.42179033734855e-11,2.0025924418476e-10)
(-6.74473757066822e-13,-2.98451905304631e-11,1.97033135802918e-10)
(-1.26729479930476e-12,-4.94671297174089e-11,1.90160894887323e-10)
(-3.08191478770741e-12,-7.6070654658102e-11,1.78297925843085e-10)
(-6.19364938113447e-12,-1.15318593175913e-10,1.60339226641055e-10)
(-9.28123221348025e-12,-1.91632790023007e-10,1.38961683914173e-10)
(1.55139778521891e-11,-3.76523665547804e-10,1.43781161979556e-10)
(2.0733442529277e-11,-6.69550008443034e-10,9.53543414106131e-11)
(2.09876824595478e-11,-9.54037267067862e-10,6.51026963202027e-11)
(2.01162062146993e-11,-1.30022761143188e-09,3.4195448154512e-11)
(0,0,0)
(0,0,0)
(0,0,0)
(0,0,0)
(0,0,0)
(0,0,0)
(-1.50140583508396e-12,-1.08131053832453e-11,2.91656048101862e-10)
(-2.38936900936778e-12,-2.25470854624596e-11,2.88999590780632e-10)
(-2.90232410454828e-12,-3.62187149856197e-11,2.83420329636185e-10)
(-4.07361738651449e-12,-5.41392891807464e-11,2.74670569056165e-10)
(-5.58731902167845e-12,-8.21666353987338e-11,2.62444145027869e-10)
(-6.95258914427731e-12,-1.51338858220204e-10,2.46802672945809e-10)
(1.139392824694e-11,-3.77611917462912e-10,2.43492478777861e-10)
(1.68235598175697e-11,-6.60820654823128e-10,1.9631784221065e-10)
(1.65129221693366e-11,-9.3233290356874e-10,1.37493969833881e-10)
(1.53845752948744e-11,-1.27036116694991e-09,7.11020569349047e-11)
(0,0,0)
(0,0,0)
(0,0,0)
(0,0,0)
(0,0,0)
(0,0,0)
(-1.22369464901043e-12,-8.06533530385476e-12,4.28052554046137e-10)
(-2.68566753869375e-12,-1.65379828814238e-11,4.25519732317482e-10)
(-3.38129437964434e-12,-2.56567124708812e-11,4.21116666405233e-10)
(-2.93080324082036e-12,-3.61674872984768e-11,4.16577646745688e-10)
(2.62232548628614e-12,-5.05888438989498e-11,4.14472047489402e-10)
(2.03276425646721e-11,-9.35888086332953e-11,4.16609516272239e-10)
(6.09763952733736e-12,-3.48183116491932e-10,3.57623508951495e-10)
(9.03240941295469e-12,-6.17444708461271e-10,3.48734014470109e-10)
(9.67246744382144e-12,-8.72452364266667e-10,2.43891063885259e-10)
(9.18567432679201e-12,-1.20187101576477e-09,1.25677000960513e-10)
(0,0,0)
(0,0,0)
(0,0,0)
(0,0,0)
(0,0,0)
(0,0,0)
(-3.82053790985034e-13,-4.98949302998128e-12,6.27342807980654e-10)
(-1.69266355970223e-12,-1.13507911462491e-11,6.26060394983016e-10)
(-2.86928419103687e-12,-1.91119280800951e-11,6.22904814342986e-10)
(-3.02164302170349e-12,-2.96114797212354e-11,6.19551743405942e-10)
(-3.70691328002664e-13,-5.1308572102989e-11,6.18014543398164e-10)
(6.41602830205487e-12,-1.18518699666642e-10,6.1895499183841e-10)
(3.94679118408713e-12,-3.16772969076637e-10,6.01723258092018e-10)
(4.91106726152276e-12,-5.11036480179757e-10,5.13828230193372e-10)
(4.60435328506659e-12,-7.54957190334662e-10,3.75613538215318e-10)
(4.23533219968101e-12,-1.0763403438258e-09,2.02837368395039e-10)
(0,0,0)
(0,0,0)
(0,0,0)
(0,0,0)
(0,0,0)
(0,0,0)
(-3.59354247983535e-13,-3.27855803971128e-12,9.15632051232969e-10)
(-1.07022429307148e-12,-7.65109788706622e-12,9.14854859191044e-10)
(-2.55244794210367e-12,-1.37272335513014e-11,9.12289694004137e-10)
(-3.34271850088809e-12,-2.38633954122384e-11,9.07924512126638e-10)
(-2.42797355353809e-12,-4.63781283839734e-11,9.01094883420339e-10)
(8.24578946212901e-13,-1.03169372697864e-10,8.87346153445035e-10)
(2.21874845525996e-12,-2.2295055432708e-10,8.47734076216163e-10)
(3.03324132789026e-12,-3.70108401083949e-10,7.45485395844198e-10)
(2.01007992626204e-12,-5.80935691073593e-10,5.78143699042458e-10)
(1.6337311365257e-12,-8.72338883958408e-10,3.32661386889106e-10)
(0,0,0)
(0,0,0)
(0,0,0)
(0,0,0)
(0,0,0)
(0,0,0)
(-5.16692452068274e-13,-1.85996223662834e-12,1.27314015986314e-09)
(-9.4004180675951e-13,-4.30595350832296e-12,1.27188763322781e-09)
(-3.07173828575721e-12,-7.38256063339722e-12,1.26870800997404e-09)
(-4.0706526940958e-12,-1.33988248339943e-11,1.26330404277017e-09)
(-3.4409276235845e-12,-2.73955073328248e-11,1.25287688175388e-09)
(-6.73094819145417e-13,-5.84416313970781e-11,1.22968258689859e-09)
(1.53570925512387e-12,-1.16583465738358e-10,1.17639944594246e-09)
(2.87951169143115e-12,-1.99934911974414e-10,1.06359054214456e-09)