/*--------------------------------*- C++ -*----------------------------------*\
| =========                 |                                                 |
| \\      /  F ield         | foam-extend: Open Source CFD                    |
|  \\    /   O peration     | Version:     4.0                                |
|   \\  /    A nd           | Web:         http://www.foam-extend.org         |
|    \\/     M anipulation  |                                                 |
\*---------------------------------------------------------------------------*/
FoamFile
{
    version 2.0;
    format ascii;
    class volVectorField;
    location "Data/448";
    object      E;
}
// * * * * * * * * * * * * * * * * * * * * * * * * * * * * * * * * * * * * * //

dimensions      [0 1 -1 0 0 0 0];

internalField   nonuniform List<vector>
4096
(
(0,0,0)
(0,0,0)
(0,0,0)
(0,0,0)
(0,0,0)
(0,0,0)
(0,0,0)
(0,0,0)
(0,0,0)
(0,0,0)
(0,0,0)
(0,0,0)
(0,0,0)
(0,0,0)
(0,0,0)
(0,0,0)
(0,0,0)
(0,0,0)
(0,0,0)
(0,0,0)
(0,0,0)
(0,0,0)
(0,0,0)
(0,0,0)
(0,0,0)
(0,0,0)
(0,0,0)
(0,0,0)
(0,0,0)
(0,0,0)
(0,0,0)
(0,0,0)
(0,0,0)
(0,0,0)
(0,0,0)
(0,0,0)
(0,0,0)
(0,0,0)
(0,0,0)
(0,0,0)
(0,0,0)
(0,0,0)
(0,0,0)
(0,0,0)
(0,0,0)
(0,0,0)
(0,0,0)
(0,0,0)
(0,0,0)
(0,0,0)
(0,0,0)
(0,0,0)
(0,0,0)
(0,0,0)
(0,0,0)
(0,0,0)
(0,0,0)
(0,0,0)
(0,0,0)
(0,0,0)
(0,0,0)
(0,0,0)
(0,0,0)
(0,0,0)
(0,0,0)
(0,0,0)
(0,0,0)
(0,0,0)
(0,0,0)
(0,0,0)
(0,0,0)
(0,0,0)
(0,0,0)
(0,0,0)
(0,0,0)
(0,0,0)
(0,0,0)
(0,0,0)
(0,0,0)
(0,0,0)
(0,0,0)
(0,0,0)
(0,0,0)
(0,0,0)
(0,0,0)
(0,0,0)
(0,0,0)
(0,0,0)
(0,0,0)
(0,0,0)
(0,0,0)
(0,0,0)
(0,0,0)
(0,0,0)
(0,0,0)
(0,0,0)
(0,0,0)
(0,0,0)
(0,0,0)
(0,0,0)
(0,0,0)
(0,0,0)
(0,0,0)
(0,0,0)
(0,0,0)
(0,0,0)
(0,0,0)
(0,0,0)
(0,0,0)
(0,0,0)
(0,0,0)
(0,0,0)
(0,0,0)
(0,0,0)
(0,0,0)
(0,0,0)
(0,0,0)
(0,0,0)
(0,0,0)
(0,0,0)
(0,0,0)
(0,0,0)
(0,0,0)
(0,0,0)
(0,0,0)
(0,0,0)
(0,0,0)
(0,0,0)
(0,0,0)
(0,0,0)
(0,0,0)
(0,0,0)
(0,0,0)
(0,0,0)
(0,0,0)
(0,0,0)
(0,0,0)
(0,0,0)
(0,0,0)
(0,0,0)
(0,0,0)
(0,0,0)
(0,0,0)
(0,0,0)
(0,0,0)
(0,0,0)
(0,0,0)
(0,0,0)
(0,0,0)
(0,0,0)
(0,0,0)
(0,0,0)
(0,0,0)
(0,0,0)
(0,0,0)
(0,0,0)
(0,0,0)
(0,0,0)
(0,0,0)
(0,0,0)
(0,0,0)
(0,0,0)
(0,0,0)
(0,0,0)
(0,0,0)
(0,0,0)
(0,0,0)
(0,0,0)
(0,0,0)
(0,0,0)
(0,0,0)
(0,0,0)
(0,0,0)
(0,0,0)
(0,0,0)
(0,0,0)
(0,0,0)
(0,0,0)
(0,0,0)
(0,0,0)
(0,0,0)
(0,0,0)
(0,0,0)
(0,0,0)
(0,0,0)
(0,0,0)
(0,0,0)
(0,0,0)
(0,0,0)
(0,0,0)
(0,0,0)
(0,0,0)
(0,0,0)
(0,0,0)
(0,0,0)
(0,0,0)
(0,0,0)
(0,0,0)
(0,0,0)
(0,0,0)
(0,0,0)
(0,0,0)
(0,0,0)
(0,0,0)
(0,0,0)
(0,0,0)
(0,0,0)
(0,0,0)
(0,0,0)
(0,0,0)
(0,0,0)
(0,0,0)
(0,0,0)
(0,0,0)
(0,0,0)
(0,0,0)
(0,0,0)
(0,0,0)
(0,0,0)
(0,0,0)
(0,0,0)
(0,0,0)
(0,0,0)
(0,0,0)
(0,0,0)
(0,0,0)
(0,0,0)
(0,0,0)
(0,0,0)
(0,0,0)
(0,0,0)
(0,0,0)
(0,0,0)
(0,0,0)
(0,0,0)
(0,0,0)
(0,0,0)
(0,0,0)
(0,0,0)
(0,0,0)
(0,0,0)
(0,0,0)
(0,0,0)
(0,0,0)
(0,0,0)
(0,0,0)
(0,0,0)
(0,0,0)
(0,0,0)
(0,0,0)
(0,0,0)
(0,0,0)
(0,0,0)
(0,0,0)
(0,0,0)
(0,0,0)
(0,0,0)
(0,0,0)
(0,0,0)
(0,0,0)
(0,0,0)
(0,0,0)
(0,0,0)
(0,0,0)
(0,0,0)
(0,0,0)
(0,0,0)
(0,0,0)
(0,0,0)
(0,0,0)
(0,0,0)
(0,0,0)
(0,0,0)
(0,0,0)
(0,0,0)
(0,0,0)
(0,0,0)
(0,0,0)
(0,0,0)
(0,0,0)
(0,0,0)
(0,0,0)
(0,0,0)
(0,0,0)
(0,0,0)
(0,0,0)
(0,0,0)
(0,0,0)
(0,0,0)
(0,0,0)
(0,0,0)
(0,0,0)
(0,0,0)
(0,0,0)
(0,0,0)
(0,0,0)
(0,0,0)
(0,0,0)
(0,0,0)
(0,0,0)
(0,0,0)
(0,0,0)
(0,0,0)
(0,0,0)
(0,0,0)
(0,0,0)
(0,0,0)
(0,0,0)
(0,0,0)
(0,0,0)
(0,0,0)
(0,0,0)
(0,0,0)
(0,0,0)
(0,0,0)
(0,0,0)
(0,0,0)
(0,0,0)
(0,0,0)
(0,0,0)
(0,0,0)
(0,0,0)
(0,0,0)
(0,0,0)
(0,0,0)
(0,0,0)
(0,0,0)
(0,0,0)
(0,0,0)
(0,0,0)
(0,0,0)
(0,0,0)
(0,0,0)
(0,0,0)
(0,0,0)
(0,0,0)
(0,0,0)
(0,0,0)
(0,0,0)
(0,0,0)
(0,0,0)
(0,0,0)
(0,0,0)
(0,0,0)
(0,0,0)
(0,0,0)
(0,0,0)
(0,0,0)
(0,0,0)
(0,0,0)
(0,0,0)
(0,0,0)
(0,0,0)
(0,0,0)
(0,0,0)
(0,0,0)
(0,0,0)
(0,0,0)
(0,0,0)
(0,0,0)
(0,0,0)
(0,0,0)
(0,0,0)
(0,0,0)
(0,0,0)
(0,0,0)
(0,0,0)
(0,0,0)
(0,0,0)
(0,0,0)
(0,0,0)
(0,0,0)
(0,0,0)
(0,0,0)
(0,0,0)
(0,0,0)
(0,0,0)
(0,0,0)
(0,0,0)
(0,0,0)
(0,0,0)
(0,0,0)
(0,0,0)
(0,0,0)
(0,0,0)
(0,0,0)
(0,0,0)
(0,0,0)
(0,0,0)
(0,0,0)
(0,0,0)
(0,0,0)
(0,0,0)
(0,0,0)
(0,0,0)
(0,0,0)
(0,0,0)
(0,0,0)
(0,0,0)
(0,0,0)
(0,0,0)
(0,0,0)
(0,0,0)
(0,0,0)
(0,0,0)
(0,0,0)
(0,0,0)
(0,0,0)
(0,0,0)
(0,0,0)
(0,0,0)
(0,0,0)
(0,0,0)
(0,0,0)
(0,0,0)
(0,0,0)
(0,0,0)
(0,0,0)
(0,0,0)
(0,0,0)
(0,0,0)
(0,0,0)
(0,0,0)
(0,0,0)
(0,0,0)
(0,0,0)
(0,0,0)
(0,0,0)
(0,0,0)
(0,0,0)
(0,0,0)
(0,0,0)
(0,0,0)
(0,0,0)
(0,0,0)
(0,0,0)
(0,0,0)
(0,0,0)
(0,0,0)
(0,0,0)
(0,0,0)
(0,0,0)
(0,0,0)
(0,0,0)
(0,0,0)
(0,0,0)
(0,0,0)
(0,0,0)
(0,0,0)
(0,0,0)
(0,0,0)
(0,0,0)
(0,0,0)
(0,0,0)
(0,0,0)
(0,0,0)
(0,0,0)
(0,0,0)
(0,0,0)
(0,0,0)
(0,0,0)
(0,0,0)
(0,0,0)
(0,0,0)
(0,0,0)
(0,0,0)
(0,0,0)
(0,0,0)
(0,0,0)
(0,0,0)
(0,0,0)
(0,0,0)
(0,0,0)
(0,0,0)
(0,0,0)
(0,0,0)
(0,0,0)
(0,0,0)
(0,0,0)
(0,0,0)
(0,0,0)
(0,0,0)
(0,0,0)
(0,0,0)
(0,0,0)
(0,0,0)
(0,0,0)
(0,0,0)
(0,0,0)
(0,0,0)
(0,0,0)
(0,0,0)
(0,0,0)
(0,0,0)
(0,0,0)
(0,0,0)
(0,0,0)
(0,0,0)
(0,0,0)
(0,0,0)
(0,0,0)
(0,0,0)
(0,0,0)
(0,0,0)
(0,0,0)
(0,0,0)
(0,0,0)
(0,0,0)
(0,0,0)
(0,0,0)
(0,0,0)
(0,0,0)
(0,0,0)
(0,0,0)
(0,0,0)
(0,0,0)
(0,0,0)
(0,0,0)
(0,0,0)
(0,0,0)
(0,0,0)
(0,0,0)
(0,0,0)
(0,0,0)
(0,0,0)
(0,0,0)
(0,0,0)
(0,0,0)
(0,0,0)
(0,0,0)
(0,0,0)
(0,0,0)
(0,0,0)
(0,0,0)
(0,0,0)
(0,0,0)
(0,0,0)
(0,0,0)
(0,0,0)
(0,0,0)
(0,0,0)
(0,0,0)
(0,0,0)
(0,0,0)
(0,0,0)
(0,0,0)
(0,0,0)
(0,0,0)
(0,0,0)
(0,0,0)
(0,0,0)
(0,0,0)
(0,0,0)
(0,0,0)
(0,0,0)
(0,0,0)
(0,0,0)
(0,0,0)
(0,0,0)
(0,0,0)
(0,0,0)
(0,0,0)
(0,0,0)
(0,0,0)
(0,0,0)
(0,0,0)
(0,0,0)
(0,0,0)
(0,0,0)
(0,0,0)
(0,0,0)
(0,0,0)
(0,0,0)
(0,0,0)
(0,0,0)
(0,0,0)
(0,0,0)
(0,0,0)
(0,0,0)
(0,0,0)
(0,0,0)
(0,0,0)
(0,0,0)
(0,0,0)
(0,0,0)
(0,0,0)
(0,0,0)
(0,0,0)
(0,0,0)
(0,0,0)
(0,0,0)
(0,0,0)
(0,0,0)
(0,0,0)
(0,0,0)
(0,0,0)
(0,0,0)
(0,0,0)
(0,0,0)
(0,0,0)
(0,0,0)
(0,0,0)
(0,0,0)
(0,0,0)
(0,0,0)
(0,0,0)
(0,0,0)
(0,0,0)
(0,0,0)
(0,0,0)
(0,0,0)
(0,0,0)
(0,0,0)
(0,0,0)
(0,0,0)
(0,0,0)
(0,0,0)
(0,0,0)
(0,0,0)
(0,0,0)
(0,0,0)
(0,0,0)
(0,0,0)
(0,0,0)
(0,0,0)
(0,0,0)
(0,0,0)
(0,0,0)
(0,0,0)
(0,0,0)
(0,0,0)
(0,0,0)
(0,0,0)
(0,0,0)
(0,0,0)
(0,0,0)
(0,0,0)
(0,0,0)
(0,0,0)
(0,0,0)
(0,0,0)
(0,0,0)
(0,0,0)
(0,0,0)
(0,0,0)
(0,0,0)
(0,0,0)
(0,0,0)
(0,0,0)
(0,0,0)
(0,0,0)
(0,0,0)
(0,0,0)
(0,0,0)
(0,0,0)
(0,0,0)
(0,0,0)
(0,0,0)
(0,0,0)
(0,0,0)
(0,0,0)
(0,0,0)
(0,0,0)
(0,0,0)
(0,0,0)
(0,0,0)
(0,0,0)
(0,0,0)
(0,0,0)
(0,0,0)
(0,0,0)
(0,0,0)
(0,0,0)
(0,0,0)
(0,0,0)
(0,0,0)
(0,0,0)
(0,0,0)
(0,0,0)
(0,0,0)
(0,0,0)
(0,0,0)
(0,0,0)
(0,0,0)
(0,0,0)
(0,0,0)
(0,0,0)
(0,0,0)
(0,0,0)
(0,0,0)
(0,0,0)
(0,0,0)
(0,0,0)
(0,0,0)
(0,0,0)
(0,0,0)
(0,0,0)
(0,0,0)
(0,0,0)
(0,0,0)
(0,0,0)
(0,0,0)
(0,0,0)
(0,0,0)
(0,0,0)
(0,0,0)
(0,0,0)
(0,0,0)
(0,0,0)
(0,0,0)
(0,0,0)
(0,0,0)
(0,0,0)
(0,0,0)
(0,0,0)
(0,0,0)
(0,0,0)
(0,0,0)
(0,0,0)
(0,0,0)
(0,0,0)
(0,0,0)
(0,0,0)
(0,0,0)
(0,0,0)
(0,0,0)
(0,0,0)
(0,0,0)
(0,0,0)
(0,0,0)
(0,0,0)
(0,0,0)
(0,0,0)
(0,0,0)
(0,0,0)
(0,0,0)
(0,0,0)
(0,0,0)
(0,0,0)
(0,0,0)
(0,0,0)
(0,0,0)
(0,0,0)
(0,0,0)
(0,0,0)
(0,0,0)
(0,0,0)
(0,0,0)
(0,0,0)
(0,0,0)
(0,0,0)
(0,0,0)
(0,0,0)
(0,0,0)
(0,0,0)
(0,0,0)
(0,0,0)
(0,0,0)
(0,0,0)
(0,0,0)
(0,0,0)
(0,0,0)
(0,0,0)
(0,0,0)
(0,0,0)
(0,0,0)
(0,0,0)
(0,0,0)
(0,0,0)
(0,0,0)
(0,0,0)
(0,0,0)
(0,0,0)
(0,0,0)
(0,0,0)
(0,0,0)
(0,0,0)
(0,0,0)
(0,0,0)
(0,0,0)
(0,0,0)
(0,0,0)
(0,0,0)
(0,0,0)
(0,0,0)
(0,0,0)
(0,0,0)
(0,0,0)
(0,0,0)
(0,0,0)
(0,0,0)
(0,0,0)
(0,0,0)
(0,0,0)
(0,0,0)
(0,0,0)
(0,0,0)
(0,0,0)
(0,0,0)
(0,0,0)
(0,0,0)
(0,0,0)
(0,0,0)
(0,0,0)
(0,0,0)
(0,0,0)
(0,0,0)
(0,0,0)
(0,0,0)
(0,0,0)
(0,0,0)
(0,0,0)
(0,0,0)
(0,0,0)
(0,0,0)
(0,0,0)
(0,0,0)
(0,0,0)
(0,0,0)
(-211184.292419587,112269.5959471,98914.6964724865)
(-223316.009117479,107596.560197813,214634.145392153)
(-251383.242026043,97913.3939142399,368103.993503956)
(-304437.54834041,82749.56862876,589791.973215606)
(-400178.608924325,62290.3329391301,927680.249200805)
(-572121.312044236,38856.1195752011,1460945.44166983)
(-883572.21482805,17559.6907152809,2326957.96578262)
(-1446412.48989472,4489.95522765838,3768880.50044968)
(-2385494.71173328,128.932792295222,6154246.27939067)
(-3323597.85979173,-252.248455481586,9478096.38763787)
(0,0,0)
(0,0,0)
(0,0,0)
(0,0,0)
(0,0,0)
(0,0,0)
(-223321.393035769,241257.970394384,94333.0185884848)
(-235576.982793957,232471.704278065,205034.85730219)
(-264081.862161529,214046.689531425,352983.423846534)
(-318391.136976734,184767.732022513,569356.397429515)
(-416809.313524288,144319.892463244,904136.151429689)
(-592883.798784737,96353.5458606075,1439522.52392902)
(-907747.469295059,51011.18345879,2313818.50048056)
(-1468426.92216411,22242.6718206967,3764492.70605162)
(-2400150.76893916,10913.2074308153,6153859.20035229)
(-3330427.84230955,5622.42858996471,9478412.36561636)
(0,0,0)
(0,0,0)
(0,0,0)
(0,0,0)
(0,0,0)
(0,0,0)
(-251063.768362158,406672.029371186,85649.7093853561)
(-263549.629943309,394936.459746224,186734.583860506)
(-292982.643829919,370007.915620527,323756.001601324)
(-350018.319742274,329597.900380171,528944.152985942)
(-454737.118205541,271998.565802084,856002.597852644)
(-641739.679101906,200154.11295853,1393941.70985663)
(-967419.235721,127455.825964166,2284916.30307225)
(-1523365.66269227,77452.5351982399,3753072.10238697)
(-2435518.16452056,51060.4346468115,6148443.03969156)
(-3346426.32121023,27734.3911088936,9472757.39838285)
(0,0,0)
(0,0,0)
(0,0,0)
(0,0,0)
(0,0,0)
(0,0,0)
(-302879.183711089,635612.107526018,73939.1055562568)
(-315590.755405493,622565.876162599,161900.444545377)
(-346194.489803101,594673.935587049,283428.914381952)
(-407180.022563753,548807.531565624,471399.305760251)
(-522279.467448086,481618.067703483,784059.271306938)
(-730253.448992224,393379.104819866,1321087.72843783)
(-1081765.48961322,295437.059648384,2234871.98436682)
(-1629706.62365365,215401.668389671,3726629.47482904)
(-2500363.17530482,153060.044990489,6124993.03979019)
(-3374695.41334335,82397.23109556,9445025.61314687)
(0,0,0)
(0,0,0)
(0,0,0)
(0,0,0)
(0,0,0)
(0,0,0)
(-395776.609351972,970506.016977397,60882.6999005921)
(-408435.216489605,957866.052284547,134017.740268247)
(-439660.212644983,930785.51178111,237566.37671917)
(-503976.922769979,886101.463680831,404249.367373943)
(-629801.784724265,819852.496001011,695816.723800682)
(-863755.032815821,729852.032804016,1223098.82863235)
(-1255944.77580754,619601.330372953,2154879.33371532)
(-1791664.51767569,497654.368496946,3664291.15128374)
(-2594662.77324439,357742.904805912,6054271.06471273)
(-3415616.55178777,189637.908924254,9362646.9386718)
(0,0,0)
(0,0,0)
(0,0,0)
(0,0,0)
(0,0,0)
(0,0,0)
(-563531.00828373,1485868.27413737,48168.7511237616)
(-575542.365396064,1474644.04349464,106933.125309733)
(-605724.116212803,1450532.00608922,192910.74721443)
(-669412.193901196,1410336.33129664,338088.073499813)
(-796587.493918333,1348657.58294205,605870.480477108)
(-1035010.35559825,1257869.4000768,1112863.46880257)
(-1428416.13696404,1127902.9459055,2032977.99023407)
(-1939822.4531878,946105.694225398,3524349.11769341)
(-2696792.17459704,692788.134691474,5886096.0624049)
(-3467077.86243515,369840.085495671,9172971.74826861)
(0,0,0)
(0,0,0)
(0,0,0)
(0,0,0)
(0,0,0)
(0,0,0)
(-871448.169158383,2320457.76193772,36858.6813580288)
(-882076.515468062,2310776.90529882,82802.3350219049)
(-909171.486909543,2289791.98481318,152713.843207486)
(-967340.758919463,2253917.8006459,276473.132777687)
(-1085473.1723911,2195503.02949439,515100.858616449)
(-1309524.47093291,2099591.96664118,982902.762984973)
(-1678757.60740531,1938344.55171676,1851218.76457902)
(-2143766.00125537,1670048.50832197,3271041.95173782)
(-2848964.47512705,1249597.52784615,5563197.03371017)
(-3551021.96168524,680859.558298597,8803199.52259251)
(0,0,0)
(0,0,0)
(0,0,0)
(0,0,0)
(0,0,0)
(0,0,0)
(-1434503.52897649,3727895.71037945,27065.5805347566)
(-1442987.0658303,3719093.08774079,61736.4639230982)
(-1464817.04576003,3699590.01813387,116755.476362442)
(-1512128.28769397,3664725.88427222,218075.680430084)
(-1609238.99437498,3603617.84605524,419199.858244212)
(-1795518.01703809,3492647.53177423,821662.310149257)
(-2104741.96231048,3281818.77266195,1582930.05151454)
(-2481151.74694384,2883527.82870781,2850602.47807255)
(-3125165.48451702,2230823.99860088,4994541.49183485)
(-3711505.25255349,1264479.05312373,8122427.24956317)
(0,0,0)
(0,0,0)
(0,0,0)
(0,0,0)
(0,0,0)
(0,0,0)
(-2377323.46778184,6087052.41041156,18166.7677497405)
(-2383114.68455277,6078224.94513125,42149.5949120603)
(-2397952.96200281,6057941.71165316,81750.8633955794)
(-2429765.06226356,6019323.91264694,156917.897284428)
(-2493923.32843703,5946314.27408951,308144.797687193)
(-2614465.75438001,5804539.28763585,610718.796205561)
(-2816859.81413709,5524803.62510854,1184593.75789606)
(-3117507.15467579,4987750.51564602,2197878.22563363)
(-3634612.54015625,4035083.15763746,4028231.60675331)
(-3991428.03602263,2426099.51797146,6858039.17792822)
(0,0,0)
(0,0,0)
(0,0,0)
(0,0,0)
(0,0,0)
(0,0,0)
(-3319790.24719195,9397588.95430533,9253.70329816003)
(-3322697.2154935,9388423.05693058,21752.8069923098)
(-3330073.55927524,9366844.59058731,42923.4873333982)
(-3345693.70145965,9324194.20860415,83746.8928358295)
(-3376759.47319347,9240653.80941927,166166.830699528)
(-3434822.32685788,9074748.92017902,330779.52501424)
(-3536107.85197891,8744214.82462642,647476.17747527)
(-3706747.93306256,8096791.55513037,1245183.07105347)
(-3990507.39075629,6851522.51567359,2419251.10377363)
(-4018813.41418303,4432169.18779052,4431994.84813761)
(0,0,0)
(0,0,0)
(0,0,0)
(0,0,0)
(0,0,0)
(0,0,0)
(0,0,0)
(0,0,0)
(0,0,0)
(0,0,0)
(0,0,0)
(0,0,0)
(0,0,0)
(0,0,0)
(0,0,0)
(0,0,0)
(0,0,0)
(0,0,0)
(0,0,0)
(0,0,0)
(0,0,0)
(0,0,0)
(0,0,0)
(0,0,0)
(0,0,0)
(0,0,0)
(0,0,0)
(0,0,0)
(0,0,0)
(0,0,0)
(0,0,0)
(0,0,0)
(0,0,0)
(0,0,0)
(0,0,0)
(0,0,0)
(0,0,0)
(0,0,0)
(0,0,0)
(0,0,0)
(0,0,0)
(0,0,0)
(0,0,0)
(0,0,0)
(0,0,0)
(0,0,0)
(0,0,0)
(0,0,0)
(0,0,0)
(0,0,0)
(0,0,0)
(0,0,0)
(0,0,0)
(0,0,0)
(0,0,0)
(0,0,0)
(0,0,0)
(0,0,0)
(0,0,0)
(0,0,0)
(0,0,0)
(0,0,0)
(0,0,0)
(0,0,0)
(0,0,0)
(0,0,0)
(0,0,0)
(0,0,0)
(0,0,0)
(0,0,0)
(0,0,0)
(0,0,0)
(0,0,0)
(0,0,0)
(0,0,0)
(0,0,0)
(0,0,0)
(0,0,0)
(0,0,0)
(0,0,0)
(0,0,0)
(0,0,0)
(0,0,0)
(0,0,0)
(0,0,0)
(0,0,0)
(0,0,0)
(0,0,0)
(0,0,0)
(0,0,0)
(0,0,0)
(0,0,0)
(0,0,0)
(0,0,0)
(0,0,0)
(0,0,0)
(0,0,0)
(0,0,0)
(0,0,0)
(0,0,0)
(0,0,0)
(0,0,0)
(31167401.1955023,100024.449301627,86723.3851634006)
(31147061.4323351,95259.9716725552,186419.294425269)
(31100380.6006453,85148.6416952432,314840.132445655)
(31013145.4581464,68766.531408193,493823.916937545)
(30857761.3240551,45683.8628612817,755533.443483792)
(30581235.313873,18112.385598717,1149397.75435475)
(30073747.7610926,-6625.4729204466,1764036.57374155)
(29070914.8079979,-17553.9816048981,2829596.57984074)
(26808295.0663679,-14571.4284113603,5215711.55253778)
(20663593.1594699,-7118.05878306343,12800971.9144461)
(0,0,0)
(0,0,0)
(0,0,0)
(0,0,0)
(0,0,0)
(0,0,0)
(31146680.1062473,213329.362644374,82026.9097611567)
(31126299.1114169,204367.38095913,176376.728650656)
(31079215.4240016,185069.740580315,298491.665989411)
(30990321.422779,153118.330619415,470760.629409356)
(30830654.516316,106416.746371883,727897.238445451)
(30546362.5115362,47524.4932664864,1124572.14284364)
(30031129.6009179,-8647.42724878349,1753050.34934596)
(29032497.4025927,-32675.6893984184,2832581.05476961)
(26784458.7158423,-24463.5238612528,5223196.98782495)
(20653195.0900842,-10417.935149743,12808207.2541848)
(0,0,0)
(0,0,0)
(0,0,0)
(0,0,0)
(0,0,0)
(0,0,0)
(31099739.6540246,354727.819175087,73131.4434694232)
(31079279.1442724,342811.21268367,157192.159916123)
(31031252.7459428,316779.181732415,266580.651378256)
(30938459.3750151,272475.012636863,424079.596990394)
(30767704.2197861,204519.094021058,668869.233736487)
(30460098.8207604,111700.812287118,1068187.73724053)
(29915395.95526,13165.1124678749,1728893.32892984)
(28926280.4068965,-28831.4650537904,2840736.35738342)
(26722695.8583917,-13786.2777551897,5237178.41075206)
(20627596.1521196,-572.433604793025,12818643.7582642)
(0,0,0)
(0,0,0)
(0,0,0)
(0,0,0)
(0,0,0)
(0,0,0)
(31013369.4512783,542592.614244193,61219.8923284776)
(30992919.8820859,529612.934128275,131240.855779411)
(30943688.2488313,501141.277912438,222329.343351952)
(30844787.6102027,452009.022065808,356161.023543527)
(30653640.6352074,374134.016576809,575959.320719288)
(30293337.5249962,259922.440267845,969480.041137105)
(29658054.9176241,121321.313170704,1686836.75558393)
(28684359.4081231,53522.5860754342,2855749.99506488)
(26597811.8896382,58817.1738988307,5250304.80085477)
(20579649.5758981,41503.0197695713,12819217.680626)
(0,0,0)
(0,0,0)
(0,0,0)
(0,0,0)
(0,0,0)
(0,0,0)
(30861215.4713622,802732.946414758,48200.9095021714)
(30841248.0858552,790713.366886233,102750.496786355)
(30791754.6496646,764643.05228157,173167.182494612)
(30687632.161754,720608.521848351,278291.920574996)
(30473140.6132573,653083.035386844,461733.826170384)
(30033783.5506679,558638.729967663,830812.275373862)
(29195288.1488313,447175.722445066,1619058.26384769)
(28235660.7074099,349535.759375416,2861053.18784908)
(26401957.9827907,255625.079604115,5232957.84849556)
(20508273.8169276,138169.440098649,12777734.3818381)
(0,0,0)
(0,0,0)
(0,0,0)
(0,0,0)
(0,0,0)
(0,0,0)
(30590451.9907353,1177967.78684015,36115.4829425226)
(30571855.2493775,1168097.95208319,76666.605358925)
(30524738.7026298,1147053.66833966,129126.492845228)
(30422510.4300207,1112357.64214,210788.071018585)
(30205518.6635446,1059780.63974494,367317.631584477)
(29753534.3098728,983395.02668443,719349.99178362)
(28904399.6351566,877604.402846647,1521438.8616483)
(27987189.5808798,742171.364698865,2767124.54464422)
(26235238.7960566,540585.814299092,5115466.16168253)
(20426494.6731669,285862.360502737,12639534.0280633)
(0,0,0)
(0,0,0)
(0,0,0)
(0,0,0)
(0,0,0)
(0,0,0)
(30088305.9523708,1757360.45526775,26186.5324301598)
(30072113.7328936,1749791.86176712,55635.6967714939)
(30030353.5302827,1734044.85084361,94452.8194621879)
(29937573.7562805,1709003.82525679,158225.443532434)
(29735254.4002351,1671682.33970154,290929.493336573)
(29303004.2299256,1613574.01314109,613555.128408348)
(28479353.9817874,1512326.54082034,1386054.72362887)
(27651617.9432157,1332592.64929089,2565582.81695277)
(25988401.3241163,973310.787370993,4860825.36702445)
(20286969.4592797,520305.152480788,12353724.4764684)
(0,0,0)
(0,0,0)
(0,0,0)
(0,0,0)
(0,0,0)
(0,0,0)
(29084722.8553839,2784948.80156984,18518.5917245197)
(29071968.9297833,2778849.89431296,39837.885952004)
(29038714.3198509,2766331.0425767,69353.6509949243)
(28963764.363648,2746922.7696396,120875.377657173)
(28797028.4734157,2718801.15545946,232822.416495493)
(28430322.2199112,2673570.49646465,512319.018609556)
(27709343.8611715,2569530.31417474,1206362.74416008)
(27169788.4399181,2246987.18800189,2206361.340974)
(25490678.2044765,1721233.44218556,4407928.31955282)
(19964120.1519908,984463.257862657,11833478.1320136)
(0,0,0)
(0,0,0)
(0,0,0)
(0,0,0)
(0,0,0)
(0,0,0)
(26816320.0018813,5144316.72769306,12321.9266005308)
(26807750.4308023,5138393.1436282,27246.8843171722)
(26785554.2337588,5125567.27816816,49836.7753509826)
(26736534.362668,5103116.20119897,92677.2412470242)
(26632156.7768895,5063211.24517284,187520.368594005)
(26419806.2003994,4983933.3388036,408218.89386257)
(26037097.0094965,4805295.37500589,883830.33178472)
(25499741.196523,4398260.04636484,1680642.44460994)
(23982397.1183886,3678980.33720972,3671219.21342782)
(18981904.6632485,2398582.70429451,10849100.3901117)
(0,0,0)
(0,0,0)
(0,0,0)
(0,0,0)
(0,0,0)
(0,0,0)
(20666566.8514156,12716956.9351977,6336.01627473755)
(20662331.9653113,12710692.9868417,14340.3146433659)
(20651453.5199768,12696481.300516,27232.5354303849)
(20627909.6321586,12669448.782752,52629.9426460756)
(20579372.075006,12616971.957445,108071.00456142)
(20483933.9937899,12509131.3686085,229449.976495698)
(20307308.7576292,12279873.81956,476788.244720469)
(19969152.4084049,11803107.219254,961374.052750792)
(18982661.2846612,10841674.2697941,2390844.76713589)
(15434620.7928033,8450742.85570069,8450583.73113026)
(0,0,0)
(0,0,0)
(0,0,0)
(0,0,0)
(0,0,0)
(0,0,0)
(0,0,0)
(0,0,0)
(0,0,0)
(0,0,0)
(0,0,0)
(0,0,0)
(0,0,0)
(0,0,0)
(0,0,0)
(0,0,0)
(0,0,0)
(0,0,0)
(0,0,0)
(0,0,0)
(0,0,0)
(0,0,0)
(0,0,0)
(0,0,0)
(0,0,0)
(0,0,0)
(0,0,0)
(0,0,0)
(0,0,0)
(0,0,0)
(0,0,0)
(0,0,0)
(0,0,0)
(0,0,0)
(0,0,0)
(0,0,0)
(0,0,0)
(0,0,0)
(0,0,0)
(0,0,0)
(0,0,0)
(0,0,0)
(0,0,0)
(0,0,0)
(0,0,0)
(0,0,0)
(0,0,0)
(0,0,0)
(0,0,0)
(0,0,0)
(0,0,0)
(0,0,0)
(0,0,0)
(0,0,0)
(0,0,0)
(0,0,0)
(0,0,0)
(0,0,0)
(0,0,0)
(0,0,0)
(0,0,0)
(0,0,0)
(0,0,0)
(0,0,0)
(0,0,0)
(0,0,0)
(0,0,0)
(0,0,0)
(0,0,0)
(0,0,0)
(0,0,0)
(0,0,0)
(0,0,0)
(0,0,0)
(0,0,0)
(0,0,0)
(0,0,0)
(0,0,0)
(0,0,0)
(0,0,0)
(0,0,0)
(0,0,0)
(0,0,0)
(0,0,0)
(0,0,0)
(0,0,0)
(0,0,0)
(0,0,0)
(0,0,0)
(0,0,0)
(0,0,0)
(0,0,0)
(0,0,0)
(0,0,0)
(0,0,0)
(0,0,0)
(0,0,0)
(0,0,0)
(0,0,0)
(0,0,0)
(0,0,0)
(0,0,0)
(-543513.302555533,79188.9509920272,66392.224678891)
(-565978.453226451,74434.6414603122,139664.146393127)
(-616656.808476281,63927.3899520934,227440.843175641)
(-708851.545610215,45894.2612878169,338210.263257545)
(-866718.548713031,18569.5219730253,478787.2916657)
(-1130282.5558263,-16768.4902136225,641740.329191707)
(-1561460.81764369,-49280.3080877649,760895.893628753)
(-2243879.21255792,-56033.6606278423,566390.252425508)
(-3222282.74865366,-38490.4457686035,-929874.809171213)
(-3949809.81825731,-17593.6786482274,-7864211.47518265)
(0,0,0)
(0,0,0)
(0,0,0)
(0,0,0)
(0,0,0)
(0,0,0)
(-567296.822884582,166184.908676404,61647.6490605334)
(-589354.801009908,157213.016274923,129189.864285799)
(-639491.472121181,137034.482964862,209456.345008853)
(-731776.51595927,101212.355912371,310902.866735669)
(-892066.675236511,43470.3805627816,443389.877311442)
(-1162778.70061056,-38723.505447215,609152.782304906)
(-1604015.8095949,-124411.879170228,754096.441513231)
(-2279802.44943101,-138929.398867647,583958.709389805)
(-3240245.12282506,-86246.2177365269,-908915.002361809)
(-3956116.0640028,-36051.7885071832,-7846479.0608028)
(0,0,0)
(0,0,0)
(0,0,0)
(0,0,0)
(0,0,0)
(0,0,0)
(-620225.320928724,268153.701447456,52662.8597953803)
(-641550.236317784,256300.838214796,109071.096058742)
(-690791.261887873,229151.155924053,173665.10854327)
(-783965.643125416,178812.340185061,253156.820024135)
(-952566.819182055,90502.0178807273,361062.899287433)
(-1251189.82763436,-55006.1756745689,523300.895522563)
(-1746385.85697965,-244161.559132202,739499.065337226)
(-2404391.50124846,-270739.403154221,636647.655381778)
(-3294889.34120595,-138666.978479264,-858679.706664786)
(-3973610.01059268,-48540.9829342015,-7810317.67191239)
(0,0,0)
(0,0,0)
(0,0,0)
(0,0,0)
(0,0,0)
(0,0,0)
(-714842.957536885,390278.463784988,40754.3240906787)
(-735082.507847705,377792.018977704,81932.210874445)
(-782965.843859768,349103.483138483,123300.65396412)
(-878083.649601147,294837.409113806,164813.522452248)
(-1065476.79760674,193670.8955334,215428.755226715)
(-1445998.63860494,445.244793689521,333980.17597263)
(-2188983.00059673,-341350.749926217,712873.96260052)
(-2812535.58338762,-395043.466266729,768739.694836806)
(-3431972.56279028,-136935.16459233,-768540.989008589)
(-4011219.62287612,-29843.162773967,-7761702.93278157)
(0,0,0)
(0,0,0)
(0,0,0)
(0,0,0)
(0,0,0)
(0,0,0)
(-873904.453298578,531870.040055231,28195.0260036302)
(-892482.802988005,521206.457076959,53178.1543606338)
(-937711.721013874,497496.424548946,68918.2612416712)
(-1032894.73084642,455393.174141733,63556.0664272612)
(-1242530.48374474,385430.94941719,22133.7871585228)
(-1779468.15508762,278409.723761427,-7912.30844069792)
(-3534796.74817359,156329.69924939,659158.817001543)
(-4193593.24408787,101148.402366284,1026887.57747933)
(-3700994.39565899,88961.8404840746,-661390.371534251)
(-4072927.78723017,56398.7150237955,-7731763.96756116)
(0,0,0)
(0,0,0)
(0,0,0)
(0,0,0)
(0,0,0)
(0,0,0)
(-1136158.34755693,675685.595023087,17461.4609374282)
(-1152425.27630441,668202.729926477,29412.3913828987)
(-1192944.53420511,652529.054998259,26729.675381503)
(-1281485.76214176,627264.546884443,-6478.82758564799)
(-1485347.52816605,589391.42311015,-84906.4319548864)
(-2021053.53731041,532789.993397806,-130032.176795011)
(-3691117.69879868,452581.249777237,603900.284245525)
(-4294444.04272724,406627.275689597,1014721.71214227)
(-3826267.6346872,293756.62320527,-693899.962222049)
(-4134559.7963522,146344.33545982,-7788124.43552585)
(0,0,0)
(0,0,0)
(0,0,0)
(0,0,0)
(0,0,0)
(0,0,0)
(-1564815.22326143,753559.425945927,9914.02232244298)
(-1578219.38595691,749386.139084592,13730.4096279124)
(-1612323.75625773,742111.637228919,1491.79155079014)
(-1689504.37445324,734865.315187585,-44364.168405606)
(-1876713.83195691,733196.637695748,-141534.473186128)
(-2401467.28061247,740688.283243131,-210294.574880325)
(-4143909.10993631,742199.118226791,558017.326006919)
(-4701646.79445367,850648.378004589,901927.63897431)
(-4015540.72015655,475478.765962136,-841185.781896642)
(-4236197.38085951,197390.216435338,-7934398.14511985)
(0,0,0)
(0,0,0)
(0,0,0)
(0,0,0)
(0,0,0)
(0,0,0)
(-2248993.74586068,516280.992735265,5661.71206825715)
(-2259087.114924,514332.996819195,6437.57665402442)
(-2285132.00925456,512822.960086036,-5760.73948457143)
(-2345680.95575683,519284.927582703,-46068.3548618837)
(-2500670.84162769,553573.847382954,-134079.571892627)
(-2982263.54826787,662729.050482144,-208867.893339478)
(-4886112.30644835,896984.910919442,666469.159200815)
(-3981911.32361906,576685.500659338,526798.47769635)
(-4165972.21827681,212762.01766406,-1119167.67363918)
(-4393382.78990048,2119.05941919472,-8131726.89711862)
(0,0,0)
(0,0,0)
(0,0,0)
(0,0,0)
(0,0,0)
(0,0,0)
(-3230447.48719798,-1005933.43189044,3648.59131807729)
(-3236972.33930027,-1007532.10160177,4903.13745464696)
(-3253639.85743432,-1009075.60233666,662.46868356434)
(-3290890.55004026,-1006108.65402603,-11852.359386415)
(-3376307.79201714,-990153.78384809,-24993.4816356239)
(-3580589.91155447,-952507.558272372,25305.9166858275)
(-4027088.33263369,-925016.813717037,346159.661065598)
(-4172921.13459226,-1132745.0965603,162919.267013526)
(-4556469.99966504,-1321064.16096232,-1329720.75869334)
(-4628383.29533849,-1148903.88489225,-8133743.17818176)
(0,0,0)
(0,0,0)
(0,0,0)
(0,0,0)
(0,0,0)
(0,0,0)
(-3956032.94889404,-7950700.83056504,2033.87659734023)
(-3959171.15061959,-7952697.77524156,3369.34378109107)
(-3967136.00309117,-7956048.21305716,3598.15518265245)
(-3984363.59856368,-7959595.66881907,4025.07831101207)
(-4021083.30631536,-7963567.31928346,12560.6726808517)
(-4098040.82092894,-7976018.18366717,52712.790407581)
(-4240151.06796345,-8028613.97117833,138436.451074586)
(-4398087.38553568,-8167063.44919699,-25338.7247350755)
(-4629782.90130756,-8141824.82796667,-1157467.1941489)
(-4467859.96936241,-6984512.22161877,-6984711.41764356)
(0,0,0)
(0,0,0)
(0,0,0)
(0,0,0)
(0,0,0)
(0,0,0)
(0,0,0)
(0,0,0)
(0,0,0)
(0,0,0)
(0,0,0)
(0,0,0)
(0,0,0)
(0,0,0)
(0,0,0)
(0,0,0)
(0,0,0)
(0,0,0)
(0,0,0)
(0,0,0)
(0,0,0)
(0,0,0)
(0,0,0)
(0,0,0)
(0,0,0)
(0,0,0)
(0,0,0)
(0,0,0)
(0,0,0)
(0,0,0)
(0,0,0)
(0,0,0)
(0,0,0)
(0,0,0)
(0,0,0)
(0,0,0)
(0,0,0)
(0,0,0)
(0,0,0)
(0,0,0)
(0,0,0)
(0,0,0)
(0,0,0)
(0,0,0)
(0,0,0)
(0,0,0)
(0,0,0)
(0,0,0)
(0,0,0)
(0,0,0)
(0,0,0)
(0,0,0)
(0,0,0)
(0,0,0)
(0,0,0)
(0,0,0)
(0,0,0)
(0,0,0)
(0,0,0)
(0,0,0)
(0,0,0)
(0,0,0)
(0,0,0)
(0,0,0)
(0,0,0)
(0,0,0)
(0,0,0)
(0,0,0)
(0,0,0)
(0,0,0)
(0,0,0)
(0,0,0)
(0,0,0)
(0,0,0)
(0,0,0)
(0,0,0)
(0,0,0)
(0,0,0)
(0,0,0)
(0,0,0)
(0,0,0)
(0,0,0)
(0,0,0)
(0,0,0)
(0,0,0)
(0,0,0)
(0,0,0)
(0,0,0)
(0,0,0)
(0,0,0)
(0,0,0)
(0,0,0)
(0,0,0)
(0,0,0)
(0,0,0)
(0,0,0)
(0,0,0)
(0,0,0)
(0,0,0)
(0,0,0)
(0,0,0)
(0,0,0)
(-642929.209580704,55434.8469685407,43981.0600566309)
(-661995.746388242,51065.368231471,88932.9849869516)
(-703870.353936944,41092.4645387346,135054.065908881)
(-776921.976249852,23004.2860170079,180120.210531511)
(-894894.402977027,-6706.02746809566,215002.092263603)
(-1076399.10540311,-49220.216113856,210338.857954268)
(-1337460.84378342,-91856.6699592707,78195.5540532721)
(-1661196.79901825,-92027.5692854133,-412459.290200984)
(-1920054.82764568,-56543.9511344948,-1658143.26007446)
(-1668386.76767083,-23986.1019698513,-3915580.2086911)
(0,0,0)
(0,0,0)
(0,0,0)
(0,0,0)
(0,0,0)
(0,0,0)
(-664560.459317707,113089.375327177,39609.1080744879)
(-682531.894361616,104879.018550873,78972.5511067917)
(-722055.606843038,85646.3014352779,116982.848932104)
(-791196.084084968,48993.5204725538,150413.182602257)
(-903799.33398852,-17011.3469311403,172451.160817309)
(-1080076.50026016,-127121.977660283,167650.722013335)
(-1339381.27770358,-266830.401402916,77989.9215656615)
(-1653258.52079906,-263619.267635901,-376962.308715802)
(-1907265.76519469,-140963.804707701,-1625521.81277296)
(-1660523.43718004,-53619.3390920769,-3891481.20247352)
(0,0,0)
(0,0,0)
(0,0,0)
(0,0,0)
(0,0,0)
(0,0,0)
(-711804.927210753,173326.236700119,31342.7449090863)
(-727688.418276685,162622.498428467,59737.4469903925)
(-762595.781861782,136907.356451551,80280.9119480278)
(-823746.523747763,84711.3504537695,84343.9625891601)
(-925081.240924404,-22369.2034357507,62216.2408361175)
(-1094125.50458216,-249784.057149571,27813.9972732066)
(-1379779.46169884,-686759.459002847,81136.6595923282)
(-1653653.6005384,-678916.524828306,-254303.983925329)
(-1876318.65230077,-275766.70025098,-1538071.77728724)
(-1641381.80512091,-86191.6426388914,-3837727.67921221)
(0,0,0)
(0,0,0)
(0,0,0)
(0,0,0)
(0,0,0)
(0,0,0)
(-793194.078672799,231136.927975007,20540.4298610253)
(-806209.532765784,220319.543933463,33970.4092741084)
(-834367.023372513,194297.113611339,27981.8316270663)
(-882591.488272752,140027.016081241,-22825.9953288004)
(-961973.614711561,16639.7571135392,-165338.138773264)
(-1118833.53532255,-332970.104064028,-409317.195141202)
(-1686880.58531725,-1687115.46804677,88936.3986232384)
(-1775319.13746337,-1776061.97382112,148865.401691799)
(-1804537.85611726,-405931.89536644,-1348404.10986577)
(-1602831.0133715,-91581.8542342404,-3751402.50777504)
(0,0,0)
(0,0,0)
(0,0,0)
(0,0,0)
(0,0,0)
(0,0,0)
(-921997.985965473,269584.111441309,9646.34920059221)
(-931617.709393777,261223.144353905,7877.65518592081)
(-951322.030482698,242211.250497781,-26426.172231697)
(-979737.076400261,206769.688280182,-146326.4988768)
(-999785.779140517,142605.345620293,-515036.791987777)
(-900759.963323312,36856.3500840142,-1763571.43790014)
(-3.53213842209175e-05,-7.72175501503905e-06,2.18052265283587e-05)