/*--------------------------------*- C++ -*----------------------------------*\
| =========                 |                                                 |
| \\      /  F ield         | foam-extend: Open Source Cstd::filesystem::create_directory();FD                    |
|  \\    /   O peration     | Version:     4.0                                |
|   \\  /    A nd           | Web:         http://www.foam-extend.org         |
|    \\/     M anipulation  |                                                 |
\*---------------------------------------------------------------------------*/
FoamFile
{
    version 2.0;
    format ascii;
    class volVectorField;
    location "Data/2463";
    object      H;
}
// * * * * * * * * * * * * * * * * * * * * * * * * * * * * * * * * * * * * * //

dimensions      [0 1 -1 0 0 0 0];

internalField   nonuniform List<vector>
4096
(
(0,0,0)
(0,0,0)
(0,0,0)
(0,0,0)
(0,0,0)
(0,0,0)
(0,0,0)
(0,0,0)
(0,0,0)
(0,0,0)
(0,0,0)
(0,0,0)
(0,0,0)
(0,0,0)
(0,0,0)
(0,0,0)
(0,0,0)
(0,0,0)
(0,0,0)
(0,0,0)
(0,0,0)
(0,0,0)
(0,0,0)
(0,0,0)
(0,0,0)
(0,0,0)
(0,0,0)
(0,0,0)
(0,0,0)
(0,0,0)
(0,0,0)
(0,0,0)
(0,0,0)
(0,0,0)
(0,0,0)
(0,0,0)
(0,0,0)
(0,0,0)
(0,0,0)
(0,0,0)
(0,0,0)
(0,0,0)
(0,0,0)
(0,0,0)
(0,0,0)
(0,0,0)
(0,0,0)
(0,0,0)
(0,0,0)
(0,0,0)
(0,0,0)
(0,0,0)
(0,0,0)
(0,0,0)
(0,0,0)
(0,0,0)
(0,0,0)
(0,0,0)
(0,0,0)
(0,0,0)
(0,0,0)
(0,0,0)
(0,0,0)
(0,0,0)
(0,0,0)
(0,0,0)
(0,0,0)
(0,0,0)
(0,0,0)
(0,0,0)
(0,0,0)
(0,0,0)
(0,0,0)
(0,0,0)
(0,0,0)
(0,0,0)
(0,0,0)
(0,0,0)
(0,0,0)
(0,0,0)
(0,0,0)
(0,0,0)
(0,0,0)
(0,0,0)
(0,0,0)
(0,0,0)
(0,0,0)
(0,0,0)
(0,0,0)
(0,0,0)
(0,0,0)
(0,0,0)
(0,0,0)
(0,0,0)
(0,0,0)
(0,0,0)
(0,0,0)
(0,0,0)
(0,0,0)
(0,0,0)
(0,0,0)
(0,0,0)
(0,0,0)
(0,0,0)
(0,0,0)
(0,0,0)
(0,0,0)
(0,0,0)
(0,0,0)
(0,0,0)
(0,0,0)
(0,0,0)
(0,0,0)
(0,0,0)
(0,0,0)
(0,0,0)
(0,0,0)
(0,0,0)
(0,0,0)
(0,0,0)
(0,0,0)
(0,0,0)
(0,0,0)
(0,0,0)
(0,0,0)
(0,0,0)
(0,0,0)
(0,0,0)
(0,0,0)
(0,0,0)
(0,0,0)
(0,0,0)
(0,0,0)
(0,0,0)
(0,0,0)
(0,0,0)
(0,0,0)
(0,0,0)
(0,0,0)
(0,0,0)
(0,0,0)
(0,0,0)
(0,0,0)
(0,0,0)
(0,0,0)
(0,0,0)
(0,0,0)
(0,0,0)
(0,0,0)
(0,0,0)
(0,0,0)
(0,0,0)
(0,0,0)
(0,0,0)
(0,0,0)
(0,0,0)
(0,0,0)
(0,0,0)
(0,0,0)
(0,0,0)
(0,0,0)
(0,0,0)
(0,0,0)
(0,0,0)
(0,0,0)
(0,0,0)
(0,0,0)
(0,0,0)
(0,0,0)
(0,0,0)
(0,0,0)
(0,0,0)
(0,0,0)
(0,0,0)
(0,0,0)
(0,0,0)
(0,0,0)
(0,0,0)
(0,0,0)
(0,0,0)
(0,0,0)
(0,0,0)
(0,0,0)
(0,0,0)
(0,0,0)
(0,0,0)
(0,0,0)
(0,0,0)
(0,0,0)
(0,0,0)
(0,0,0)
(0,0,0)
(0,0,0)
(0,0,0)
(0,0,0)
(0,0,0)
(0,0,0)
(0,0,0)
(0,0,0)
(0,0,0)
(0,0,0)
(0,0,0)
(0,0,0)
(0,0,0)
(0,0,0)
(0,0,0)
(0,0,0)
(0,0,0)
(0,0,0)
(0,0,0)
(0,0,0)
(0,0,0)
(0,0,0)
(0,0,0)
(0,0,0)
(0,0,0)
(0,0,0)
(0,0,0)
(0,0,0)
(0,0,0)
(0,0,0)
(0,0,0)
(0,0,0)
(0,0,0)
(0,0,0)
(0,0,0)
(0,0,0)
(0,0,0)
(0,0,0)
(0,0,0)
(0,0,0)
(0,0,0)
(0,0,0)
(0,0,0)
(0,0,0)
(0,0,0)
(0,0,0)
(0,0,0)
(0,0,0)
(0,0,0)
(0,0,0)
(0,0,0)
(0,0,0)
(0,0,0)
(0,0,0)
(0,0,0)
(0,0,0)
(0,0,0)
(0,0,0)
(0,0,0)
(0,0,0)
(0,0,0)
(0,0,0)
(0,0,0)
(0,0,0)
(0,0,0)
(0,0,0)
(0,0,0)
(0,0,0)
(0,0,0)
(0,0,0)
(0,0,0)
(0,0,0)
(0,0,0)
(0,0,0)
(0,0,0)
(0,0,0)
(0,0,0)
(0,0,0)
(0,0,0)
(0,0,0)
(0,0,0)
(0,0,0)
(0,0,0)
(0,0,0)
(0,0,0)
(0,0,0)
(0,0,0)
(0,0,0)
(0,0,0)
(0,0,0)
(0,0,0)
(0,0,0)
(0,0,0)
(0,0,0)
(0,0,0)
(0,0,0)
(0,0,0)
(0,0,0)
(0,0,0)
(0,0,0)
(0,0,0)
(0,0,0)
(0,0,0)
(0,0,0)
(0,0,0)
(0,0,0)
(0,0,0)
(0,0,0)
(0,0,0)
(0,0,0)
(0,0,0)
(0,0,0)
(0,0,0)
(0,0,0)
(0,0,0)
(0,0,0)
(0,0,0)
(0,0,0)
(0,0,0)
(0,0,0)
(0,0,0)
(0,0,0)
(0,0,0)
(0,0,0)
(0,0,0)
(0,0,0)
(0,0,0)
(0,0,0)
(0,0,0)
(0,0,0)
(0,0,0)
(0,0,0)
(0,0,0)
(0,0,0)
(0,0,0)
(0,0,0)
(0,0,0)
(0,0,0)
(0,0,0)
(0,0,0)
(0,0,0)
(0,0,0)
(0,0,0)
(0,0,0)
(0,0,0)
(0,0,0)
(0,0,0)
(0,0,0)
(0,0,0)
(0,0,0)
(0,0,0)
(0,0,0)
(0,0,0)
(0,0,0)
(0,0,0)
(0,0,0)
(0,0,0)
(0,0,0)
(0,0,0)
(0,0,0)
(0,0,0)
(0,0,0)
(0,0,0)
(0,0,0)
(0,0,0)
(0,0,0)
(0,0,0)
(0,0,0)
(0,0,0)
(0,0,0)
(0,0,0)
(0,0,0)
(0,0,0)
(0,0,0)
(0,0,0)
(0,0,0)
(0,0,0)
(0,0,0)
(0,0,0)
(0,0,0)
(0,0,0)
(0,0,0)
(0,0,0)
(0,0,0)
(0,0,0)
(0,0,0)
(0,0,0)
(0,0,0)
(0,0,0)
(0,0,0)
(0,0,0)
(0,0,0)
(0,0,0)
(0,0,0)
(0,0,0)
(0,0,0)
(0,0,0)
(0,0,0)
(0,0,0)
(0,0,0)
(0,0,0)
(0,0,0)
(0,0,0)
(0,0,0)
(0,0,0)
(0,0,0)
(0,0,0)
(0,0,0)
(0,0,0)
(0,0,0)
(0,0,0)
(0,0,0)
(0,0,0)
(0,0,0)
(0,0,0)
(0,0,0)
(0,0,0)
(0,0,0)
(0,0,0)
(0,0,0)
(0,0,0)
(0,0,0)
(0,0,0)
(0,0,0)
(0,0,0)
(0,0,0)
(0,0,0)
(0,0,0)
(0,0,0)
(0,0,0)
(0,0,0)
(0,0,0)
(0,0,0)
(0,0,0)
(0,0,0)
(0,0,0)
(0,0,0)
(0,0,0)
(0,0,0)
(0,0,0)
(0,0,0)
(0,0,0)
(0,0,0)
(0,0,0)
(0,0,0)
(0,0,0)
(0,0,0)
(0,0,0)
(0,0,0)
(0,0,0)
(0,0,0)
(0,0,0)
(0,0,0)
(0,0,0)
(0,0,0)
(0,0,0)
(0,0,0)
(0,0,0)
(0,0,0)
(0,0,0)
(0,0,0)
(0,0,0)
(0,0,0)
(0,0,0)
(0,0,0)
(0,0,0)
(0,0,0)
(0,0,0)
(0,0,0)
(0,0,0)
(0,0,0)
(0,0,0)
(0,0,0)
(0,0,0)
(0,0,0)
(0,0,0)
(0,0,0)
(0,0,0)
(0,0,0)
(0,0,0)
(0,0,0)
(0,0,0)
(0,0,0)
(0,0,0)
(0,0,0)
(0,0,0)
(0,0,0)
(0,0,0)
(0,0,0)
(0,0,0)
(0,0,0)
(0,0,0)
(0,0,0)
(0,0,0)
(0,0,0)
(0,0,0)
(0,0,0)
(0,0,0)
(0,0,0)
(0,0,0)
(0,0,0)
(0,0,0)
(0,0,0)
(0,0,0)
(0,0,0)
(0,0,0)
(0,0,0)
(0,0,0)
(0,0,0)
(0,0,0)
(0,0,0)
(0,0,0)
(0,0,0)
(0,0,0)
(0,0,0)
(0,0,0)
(0,0,0)
(0,0,0)
(0,0,0)
(0,0,0)
(0,0,0)
(0,0,0)
(0,0,0)
(0,0,0)
(0,0,0)
(0,0,0)
(0,0,0)
(0,0,0)
(0,0,0)
(0,0,0)
(0,0,0)
(0,0,0)
(0,0,0)
(0,0,0)
(0,0,0)
(0,0,0)
(0,0,0)
(0,0,0)
(0,0,0)
(0,0,0)
(0,0,0)
(0,0,0)
(0,0,0)
(0,0,0)
(0,0,0)
(0,0,0)
(0,0,0)
(0,0,0)
(0,0,0)
(0,0,0)
(0,0,0)
(0,0,0)
(0,0,0)
(0,0,0)
(0,0,0)
(0,0,0)
(0,0,0)
(0,0,0)
(0,0,0)
(0,0,0)
(0,0,0)
(0,0,0)
(0,0,0)
(0,0,0)
(0,0,0)
(0,0,0)
(0,0,0)
(0,0,0)
(0,0,0)
(0,0,0)
(0,0,0)
(0,0,0)
(0,0,0)
(0,0,0)
(0,0,0)
(0,0,0)
(0,0,0)
(0,0,0)
(0,0,0)
(0,0,0)
(0,0,0)
(0,0,0)
(0,0,0)
(0,0,0)
(0,0,0)
(0,0,0)
(0,0,0)
(0,0,0)
(0,0,0)
(0,0,0)
(0,0,0)
(0,0,0)
(0,0,0)
(0,0,0)
(0,0,0)
(0,0,0)
(0,0,0)
(0,0,0)
(0,0,0)
(0,0,0)
(0,0,0)
(0,0,0)
(0,0,0)
(0,0,0)
(0,0,0)
(0,0,0)
(0,0,0)
(0,0,0)
(0,0,0)
(0,0,0)
(0,0,0)
(0,0,0)
(0,0,0)
(0,0,0)
(0,0,0)
(0,0,0)
(0,0,0)
(0,0,0)
(0,0,0)
(0,0,0)
(0,0,0)
(0,0,0)
(0,0,0)
(0,0,0)
(0,0,0)
(0,0,0)
(0,0,0)
(0,0,0)
(0,0,0)
(0,0,0)
(0,0,0)
(0,0,0)
(0,0,0)
(0,0,0)
(0,0,0)
(0,0,0)
(0,0,0)
(0,0,0)
(0,0,0)
(0,0,0)
(0,0,0)
(0,0,0)
(0,0,0)
(0,0,0)
(0,0,0)
(0,0,0)
(0,0,0)
(0,0,0)
(0,0,0)
(0,0,0)
(0,0,0)
(0,0,0)
(0,0,0)
(0,0,0)
(0,0,0)
(0,0,0)
(0,0,0)
(0,0,0)
(0,0,0)
(0,0,0)
(0,0,0)
(0,0,0)
(0,0,0)
(0,0,0)
(0,0,0)
(0,0,0)
(0,0,0)
(0,0,0)
(0,0,0)
(0,0,0)
(0,0,0)
(0,0,0)
(0,0,0)
(0,0,0)
(0,0,0)
(0,0,0)
(0,0,0)
(0,0,0)
(0,0,0)
(0,0,0)
(0,0,0)
(0,0,0)
(0,0,0)
(0,0,0)
(0,0,0)
(0,0,0)
(0,0,0)
(0,0,0)
(0,0,0)
(0,0,0)
(0,0,0)
(0,0,0)
(0,0,0)
(0,0,0)
(0,0,0)
(0,0,0)
(0,0,0)
(0,0,0)
(0,0,0)
(0,0,0)
(0,0,0)
(0,0,0)
(0,0,0)
(0,0,0)
(0,0,0)
(0,0,0)
(0,0,0)
(0,0,0)
(0,0,0)
(0,0,0)
(0,0,0)
(0,0,0)
(0,0,0)
(0,0,0)
(0,0,0)
(0,0,0)
(0,0,0)
(0,0,0)
(0,0,0)
(0,0,0)
(0,0,0)
(0,0,0)
(0,0,0)
(0,0,0)
(0,0,0)
(0,0,0)
(0,0,0)
(0,0,0)
(0,0,0)
(0,0,0)
(0,0,0)
(0,0,0)
(0,0,0)
(0,0,0)
(0,0,0)
(0,0,0)
(0,0,0)
(0,0,0)
(0,0,0)
(0,0,0)
(0,0,0)
(0,0,0)
(0,0,0)
(0,0,0)
(0,0,0)
(0,0,0)
(0,0,0)
(0,0,0)
(0,0,0)
(0,0,0)
(0,0,0)
(0,0,0)
(0,0,0)
(0,0,0)
(0,0,0)
(0,0,0)
(0,0,0)
(0,0,0)
(0,0,0)
(0,0,0)
(0,0,0)
(0,0,0)
(0,0,0)
(0,0,0)
(0,0,0)
(0,0,0)
(0,0,0)
(0,0,0)
(0,0,0)
(0,0,0)
(0,0,0)
(0,0,0)
(0,0,0)
(0,0,0)
(0,0,0)
(0,0,0)
(0,0,0)
(0,0,0)
(0,0,0)
(0,0,0)
(0,0,0)
(0,0,0)
(0,0,0)
(0,0,0)
(0,0,0)
(0,0,0)
(0,0,0)
(0,0,0)
(0,0,0)
(0,0,0)
(0,0,0)
(0,0,0)
(0,0,0)
(0,0,0)
(0,0,0)
(0,0,0)
(0,0,0)
(0,0,0)
(0,0,0)
(0,0,0)
(0,0,0)
(0,0,0)
(0,0,0)
(0,0,0)
(0,0,0)
(0,0,0)
(0,0,0)
(0,0,0)
(0,0,0)
(0,0,0)
(0,0,0)
(0,0,0)
(0,0,0)
(0,0,0)
(0,0,0)
(0,0,0)
(0,0,0)
(0,0,0)
(0,0,0)
(0,0,0)
(0,0,0)
(0,0,0)
(0,0,0)
(0,0,0)
(0,0,0)
(0,0,0)
(0,0,0)
(0,0,0)
(-8.77488530598811e-13,9.10998181108811e-12,-1.03037196832849e-11)
(-3.49611803684207e-12,2.18329283994547e-11,-9.86388029213194e-12)
(-4.55336010786198e-12,3.78594984733776e-11,-9.18630875182395e-12)
(-5.32694388500756e-12,5.93685220423969e-11,-8.01858333197959e-12)
(-6.82432999872684e-12,9.05461888411191e-11,-6.01119213987936e-12)
(-9.15296875633127e-12,1.39025043626422e-10,-3.32230561156062e-12)
(-1.03864970797507e-11,2.18402166404637e-10,-1.59953108351923e-12)
(-9.89504122638158e-12,3.51474565658773e-10,-1.18372606208636e-12)
(-9.65552717382929e-12,5.73594387767078e-10,-1.3893537152284e-12)
(-9.89242542013243e-12,8.83282758516574e-10,-1.02814149892104e-12)
(0,0,0)
(0,0,0)
(0,0,0)
(0,0,0)
(0,0,0)
(0,0,0)
(-2.21494856319354e-12,9.04697670571815e-12,-2.16036457750893e-11)
(-6.48430993423032e-12,2.11937352298318e-11,-2.05480470439291e-11)
(-8.40924253584827e-12,3.67411557897165e-11,-1.94050212225248e-11)
(-1.00401129109498e-11,5.75583927126521e-11,-1.7468027763408e-11)
(-1.26256462081301e-11,8.83919490361374e-11,-1.40022305299721e-11)
(-1.5171296732437e-11,1.37264145970603e-10,-9.56411998691447e-12)
(-1.63487590278899e-11,2.17484912567971e-10,-5.92680601434188e-12)
(-1.67030138409589e-11,3.51436871064515e-10,-3.82669049633089e-12)
(-1.67983621322129e-11,5.7333611587437e-10,-2.94614706935915e-12)
(-1.80892856933359e-11,8.82637181719223e-10,-1.68308125324465e-12)
(0,0,0)
(0,0,0)
(0,0,0)
(0,0,0)
(0,0,0)
(0,0,0)
(-3.22998789788801e-12,8.30396421310866e-12,-3.55569335433687e-11)
(-6.59202752884009e-12,1.95752377040711e-11,-3.4441905259413e-11)
(-8.47912153124697e-12,3.42455159010276e-11,-3.26914729114641e-11)
(-1.07321372588885e-11,5.36314026873313e-11,-2.94156631578596e-11)
(-1.49918648506535e-11,8.38645124889432e-11,-2.45725904238305e-11)
(-1.87003409533049e-11,1.33303331200358e-10,-1.89038312151793e-11)
(-2.06034059987109e-11,2.15148200449947e-10,-1.31489278686984e-11)
(-2.23368651713823e-11,3.50795612669952e-10,-9.04210349962298e-12)
(-2.38199244143272e-11,5.72707522576457e-10,-6.42164141428344e-12)
(-2.49856944386522e-11,8.81673535982098e-10,-3.67813099883989e-12)
(0,0,0)
(0,0,0)
(0,0,0)
(0,0,0)
(0,0,0)
(0,0,0)
(-3.64331016742134e-12,7.27163472466151e-12,-5.55901909828157e-11)
(-6.40297569900889e-12,1.72018812141237e-11,-5.48280996888225e-11)
(-7.24606819338444e-12,3.04272761881653e-11,-5.28762260414215e-11)
(-8.83344021600913e-12,4.82287351326976e-11,-4.84967473621106e-11)
(-1.37335778013525e-11,7.72687873133134e-11,-4.22077830137749e-11)
(-1.77001485426894e-11,1.26318261543804e-10,-3.53302208613836e-11)
(-2.1781430755761e-11,2.10255836105906e-10,-2.84033228271361e-11)
(-2.5585445573433e-11,3.48391582840147e-10,-2.21434048479845e-11)
(-2.7082749204657e-11,5.70476360185992e-10,-1.57373020004878e-11)
(-2.73681223738638e-11,8.78858197571543e-10,-8.52342803279378e-12)
(0,0,0)
(0,0,0)
(0,0,0)
(0,0,0)
(0,0,0)
(0,0,0)
(-3.71652361872085e-12,6.18103565073666e-12,-8.46689868074149e-11)
(-5.78716921131564e-12,1.46325391725576e-11,-8.43045198585724e-11)
(-7.49472715176027e-12,2.59530861651715e-11,-8.23213646817575e-11)
(-9.61119399492084e-12,4.16088638061637e-11,-7.79841740544831e-11)
(-1.38702793329334e-11,6.85258892321872e-11,-7.24055085307145e-11)
(-1.76397493012257e-11,1.16642180291192e-10,-6.60186913459591e-11)
(-2.31437032627831e-11,2.01982068391405e-10,-5.8684807088163e-11)
(-2.82669588884669e-11,3.42222899976457e-10,-4.74881986056038e-11)
(-2.97877934880172e-11,5.64361802507792e-10,-3.38387087477091e-11)
(-2.96182355458417e-11,8.72152300899985e-10,-1.79192642367458e-11)
(0,0,0)
(0,0,0)
(0,0,0)
(0,0,0)
(0,0,0)
(0,0,0)
(-3.91823054985548e-12,5.3717373105871e-12,-1.32917967776885e-10)
(-6.19065771846959e-12,1.24009021323819e-11,-1.32552184022168e-10)
(-8.88614245101645e-12,2.148922265395e-11,-1.30414323836002e-10)
(-1.17450102190495e-11,3.48887727009418e-11,-1.26572780789881e-10)
(-1.592490251754e-11,5.90749315493148e-11,-1.21710898370548e-10)
(-1.91788883567385e-11,1.05563428139404e-10,-1.15097688264558e-10)
(-2.3828991814306e-11,1.9116786881897e-10,-1.05054440373954e-10)
(-2.87840934931251e-11,3.29706893784818e-10,-8.79098744682019e-11)
(-3.0165868885797e-11,5.49495410035674e-10,-6.43181747791661e-11)
(-2.99982875219421e-11,8.55649641312037e-10,-3.45332067807855e-11)
(0,0,0)
(0,0,0)
(0,0,0)
(0,0,0)
(0,0,0)
(0,0,0)
(-3.96545702385688e-12,3.955481555874e-12,-2.11400105525305e-10)
(-6.76813575687802e-12,9.4162005384208e-12,-2.11187365066429e-10)
(-1.02069439921827e-11,1.6553178702636e-11,-2.09191105031164e-10)
(-1.36367128780111e-11,2.77038775947937e-11,-2.05667879198037e-10)
(-1.75532836147028e-11,4.91169427965084e-11,-2.01090818383362e-10)
(-2.13838876396901e-11,9.23793283168251e-11,-1.93654412377083e-10)
(-2.44302055459376e-11,1.74152058470027e-10,-1.79115242487762e-10)
(-2.72148167071731e-11,3.06394993469116e-10,-1.54927079366294e-10)
(-2.78810998364793e-11,5.19668117771937e-10,-1.16557063888759e-10)
(-2.75660451728793e-11,8.21350379653946e-10,-6.39668945533704e-11)
(0,0,0)
(0,0,0)
(0,0,0)
(0,0,0)
(0,0,0)
(0,0,0)
(-2.42595328016638e-12,2.62573823526763e-12,-3.42131412268105e-10)
(-5.48436534825808e-12,6.5456638472819e-12,-3.41483717532154e-10)
(-9.11709983076239e-12,1.19515360444218e-11,-3.39418282249811e-10)
(-1.40853918360188e-11,2.11968788890203e-11,-3.36128936747431e-10)
(-1.85467579705734e-11,4.01342788429221e-11,-3.31689110278535e-10)
(-2.18733302902929e-11,7.8537449897876e-11,-3.22930509364332e-10)
(-2.32807505778445e-11,1.49485128642289e-10,-3.03785490156666e-10)
(-2.41280236229685e-11,2.67402479818301e-10,-2.67423182287717e-10)
(-2.53154741566898e-11,4.66684503271917e-10,-2.0722773991822e-10)
(-2.5752798222276e-11,7.57497438159189e-10,-1.17851697333582e-10)
(0,0,0)
(0,0,0)
(0,0,0)
(0,0,0)
(0,0,0)
(0,0,0)
(-1.27787493099717e-13,1.59093528094786e-12,-5.62339605929001e-10)
(-2.97711836286018e-12,4.22626743278297e-12,-5.60995366961331e-10)
(-6.82223695354843e-12,8.0892807839646e-12,-5.58490967781505e-10)
(-1.37245841087394e-11,1.51748214397578e-11,-5.54993867881086e-10)
(-1.85768376177936e-11,2.97197949763061e-11,-5.49645266571216e-10)
(-2.10326824419131e-11,5.87048455142139e-11,-5.37901962926028e-10)
(-2.1805682985744e-11,1.12134901144145e-10,-5.12318840416258e-10)
(-2.27930451138058e-11,2.06218294101801e-10,-4.62513782166478e-10)
(-2.42370335626548e-11,3.76205337756769e-10,-3.74315429586152e-10)
(-2.48840865956363e-11,6.38917950980872e-10,-2.25270418645771e-10)
(0,0,0)
(0,0,0)
(0,0,0)
(0,0,0)
(0,0,0)
(0,0,0)
(1.53813393453444e-12,5.82840343597087e-13,-8.70359495150537e-10)
(-1.09573913454377e-12,2.03842416199801e-12,-8.68954487716199e-10)
(-4.94108427101936e-12,4.13671976460825e-12,-8.66430345949011e-10)
(-1.25581964620143e-11,7.92389157346994e-12,-8.62735779815887e-10)
(-1.70623704564271e-11,1.59615578230712e-11,-8.56563899267544e-10)
(-1.96546063074924e-11,3.17985761593497e-11,-8.42422241944965e-10)
(-2.08530607723848e-11,6.13963300332994e-11,-8.11803304668874e-10)
(-2.17516285427737e-11,1.16879288524869e-10,-7.5139658473401e-10)
(-2.22089861751293e-11,2.25775661123837e-10,-6.36020269696033e-10)
(-2.16195691484265e-11,4.12624711284096e-10,-4.11782122171292e-10)
(0,0,0)
(0,0,0)
(0,0,0)
(0,0,0)
(0,0,0)
(0,0,0)
(0,0,0)
(0,0,0)
(0,0,0)
(0,0,0)
(0,0,0)
(0,0,0)
(0,0,0)
(0,0,0)
(0,0,0)
(0,0,0)
(0,0,0)
(0,0,0)
(0,0,0)
(0,0,0)
(0,0,0)
(0,0,0)
(0,0,0)
(0,0,0)
(0,0,0)
(0,0,0)
(0,0,0)
(0,0,0)
(0,0,0)
(0,0,0)
(0,0,0)
(0,0,0)
(0,0,0)
(0,0,0)
(0,0,0)
(0,0,0)
(0,0,0)
(0,0,0)
(0,0,0)
(0,0,0)
(0,0,0)
(0,0,0)
(0,0,0)
(0,0,0)
(0,0,0)
(0,0,0)
(0,0,0)
(0,0,0)
(0,0,0)
(0,0,0)
(0,0,0)
(0,0,0)
(0,0,0)
(0,0,0)
(0,0,0)
(0,0,0)
(0,0,0)
(0,0,0)
(0,0,0)
(0,0,0)
(0,0,0)
(0,0,0)
(0,0,0)
(0,0,0)
(0,0,0)
(0,0,0)
(0,0,0)
(0,0,0)
(0,0,0)
(0,0,0)
(0,0,0)
(0,0,0)
(0,0,0)
(0,0,0)
(0,0,0)
(0,0,0)
(0,0,0)
(0,0,0)
(0,0,0)
(0,0,0)
(0,0,0)
(0,0,0)
(0,0,0)
(0,0,0)
(0,0,0)
(0,0,0)
(0,0,0)
(0,0,0)
(0,0,0)
(0,0,0)
(0,0,0)
(0,0,0)
(0,0,0)
(0,0,0)
(0,0,0)
(0,0,0)
(0,0,0)
(0,0,0)
(0,0,0)
(0,0,0)
(0,0,0)
(0,0,0)
(-1.25432281638409e-12,1.7934462653386e-11,-1.82780578942582e-11)
(-3.53449640752872e-12,4.0406420777731e-11,-1.77124000223899e-11)
(-4.60274284406443e-12,6.93519135703687e-11,-1.64667082004642e-11)
(-5.52420574736353e-12,1.08354076805271e-10,-1.38939723786759e-11)
(-7.35897672211834e-12,1.63994771318134e-10,-1.01233616403285e-11)
(-9.11484562854286e-12,2.47643791330036e-10,-5.70523034042426e-12)
(-9.88504826444095e-12,3.82491536597982e-10,-2.06740832214167e-12)
(-9.65171897912606e-12,6.13578495987989e-10,-5.63486072489652e-13)
(-9.75846749785329e-12,1.05728820936934e-09,-6.31604403298878e-13)
(-1.02749901221923e-11,2.07303650729139e-09,-6.18801146534345e-13)
(0,0,0)
(0,0,0)
(0,0,0)
(0,0,0)
(0,0,0)
(0,0,0)
(-2.52753480174405e-12,1.7496944314378e-11,-3.8309961669121e-11)
(-6.00883822987013e-12,3.87785860102359e-11,-3.68450726929233e-11)
(-7.8505961062703e-12,6.65640945255782e-11,-3.44449816783329e-11)
(-9.57892011907939e-12,1.04450888021148e-10,-2.98449695565952e-11)
(-1.25363202039918e-11,1.59348741720404e-10,-2.26211380188469e-11)
(-1.48477959347962e-11,2.43592422514167e-10,-1.38139962711976e-11)
(-1.61121624279827e-11,3.8082622641475e-10,-5.99852592103479e-12)
(-1.69422988730979e-11,6.13970100744111e-10,-2.36886571407995e-12)
(-1.74328346501221e-11,1.05767415561259e-09,-1.64175962320115e-12)
(-1.88087212093947e-11,2.07280090852292e-09,-1.14782855195922e-12)
(0,0,0)
(0,0,0)
(0,0,0)
(0,0,0)
(0,0,0)
(0,0,0)
(-3.31268669339561e-12,1.60954823446831e-11,-6.48628004304572e-11)
(-5.96910338683592e-12,3.5801064128458e-11,-6.28099589527402e-11)
(-7.93669157197211e-12,6.17011751013654e-11,-5.90031247247705e-11)
(-1.01725424382793e-11,9.71375660282389e-11,-5.21915377899045e-11)
(-1.40648988837181e-11,1.50355133394536e-10,-4.1596915027745e-11)
(-1.74701746432136e-11,2.35231697616179e-10,-2.81604931375238e-11)
(-1.98178660237716e-11,3.76935453783649e-10,-1.49641978811686e-11)
(-2.25532974270935e-11,6.14067522035898e-10,-9.04859128333737e-12)
(-2.43322724394997e-11,1.05811319317295e-09,-6.79159038716903e-12)
(-2.58484870271877e-11,2.07247419982774e-09,-4.18723289829545e-12)
(0,0,0)
(0,0,0)
(0,0,0)
(0,0,0)
(0,0,0)
(0,0,0)
(-3.3148023874903e-12,1.41689974458852e-11,-1.01998080647992e-10)
(-5.78550730484774e-12,3.13589267789149e-11,-9.95296698407622e-11)
(-7.15135684970956e-12,5.42349298945192e-11,-9.51046929133358e-11)
(-8.50253323780729e-12,8.58913192837181e-11,-8.70487472621349e-11)
(-1.18682418726338e-11,1.3569418183392e-10,-7.43344484981611e-11)
(-1.49509653243245e-11,2.19661737203017e-10,-5.78722965867574e-11)
(-1.97675810204211e-11,3.68240627556846e-10,-4.0833218449833e-11)
(-2.58228655571531e-11,6.12854150686492e-10,-3.14819872726929e-11)
(-2.81820654936041e-11,1.05716982862615e-09,-2.31339784500849e-11)
(-2.91856537342566e-11,2.06996181379262e-09,-1.27100455231278e-11)
(0,0,0)
(0,0,0)
(0,0,0)
(0,0,0)
(0,0,0)
(0,0,0)
(-3.27169222741334e-12,1.19629705251436e-11,-1.55198915666661e-10)
(-5.53868734795637e-12,2.64705882157362e-11,-1.52952196320106e-10)
(-7.36805426781354e-12,4.54247623523241e-11,-1.48457868339995e-10)
(-8.46976841347868e-12,7.17087459267982e-11,-1.40903922529115e-10)
(-1.08061388347964e-11,1.15741305593713e-10,-1.30248334698376e-10)
(-1.38948814072287e-11,1.96206530415538e-10,-1.17365517615124e-10)
(-2.35261121729074e-11,3.49852066880554e-10,-1.06505116662825e-10)
(-2.94004425545134e-11,6.06231722808556e-10,-8.37336291255758e-11)
(-3.08408455269794e-11,1.04983449039552e-09,-5.87591473390725e-11)
(-3.10348401953113e-11,2.06019510995471e-09,-3.07481714052383e-11)
(0,0,0)
(0,0,0)
(0,0,0)
(0,0,0)
(0,0,0)
(0,0,0)
(-2.86775854985955e-12,9.74688786139131e-12,-2.37827296910212e-10)
(-5.34381631067674e-12,2.13117100913738e-11,-2.36078861421278e-10)
(-7.79164154582927e-12,3.60879389194691e-11,-2.31787351731293e-10)
(-9.42199753221662e-12,5.7417258246856e-11,-2.25412567899599e-10)
(-1.25801238707104e-11,9.54901415522172e-11,-2.17339767392734e-10)
(-1.60380364247984e-11,1.73489208823619e-10,-2.06638139438641e-10)
(-2.39577473710798e-11,3.34380226910468e-10,-1.92066574739134e-10)
(-2.90638928664097e-11,5.8788999300645e-10,-1.60282918672261e-10)
(-3.01235446205207e-11,1.02560220749292e-09,-1.15594859229586e-10)
(-3.02322326442786e-11,2.03188054168718e-09,-6.1135962667511e-11)
(0,0,0)
(0,0,0)
(0,0,0)
(0,0,0)
(0,0,0)
(0,0,0)
(-2.84845416212714e-12,7.23193313222587e-12,-3.70062825848984e-10)
(-5.89385910100327e-12,1.58032457635481e-11,-3.68783881783799e-10)
(-9.12852716709348e-12,2.70419160665008e-11,-3.65272075413557e-10)
(-1.17067749869224e-11,4.41526012205734e-11,-3.60423196008633e-10)
(-1.60070256673722e-11,7.60195872017441e-11,-3.54752121953439e-10)
(-2.20811791100372e-11,1.46477377774213e-10,-3.45505480222391e-10)
(-2.39514388396615e-11,3.05448620287168e-10,-3.18856897902989e-10)
(-2.65923185339848e-11,5.47385185989036e-10,-2.80037471526672e-10)
(-2.74876546720708e-11,9.73279069377309e-10,-2.07574936407114e-10)
(-2.76799982311613e-11,1.97194941698379e-09,-1.12325580956917e-10)
(0,0,0)
(0,0,0)
(0,0,0)
(0,0,0)
(0,0,0)
(0,0,0)
(-2.03884506179723e-12,4.82104961961853e-12,-5.96045544995557e-10)
(-5.23040421610133e-12,1.0685339049956e-11,-5.94700883774687e-10)
(-8.54419007268091e-12,1.94885943456565e-11,-5.91753989752946e-10)
(-1.25031608556515e-11,3.4378790097506e-11,-5.87610799331867e-10)
(-1.68908750181905e-11,6.40756247194513e-11,-5.81973259578107e-10)
(-2.11857451142673e-11,1.29537601905629e-10,-5.70665925782156e-10)
(-2.2292830948618e-11,2.6381689211559e-10,-5.40794348601922e-10)
(-2.31392802761366e-11,4.74379416690618e-10,-4.75710361640835e-10)
(-2.42123512260028e-11,8.78039248854478e-10,-3.66872022668157e-10)
(-2.50250083781488e-11,1.85963615937454e-09,-2.0901882843114e-10)
(0,0,0)
(0,0,0)
(0,0,0)
(0,0,0)
(0,0,0)
(0,0,0)
(-4.63931523418855e-13,2.99562535875411e-12,-1.0365781297302e-09)
(-3.29367427190111e-12,6.70695266964736e-12,-1.034609060385e-09)
(-6.36677583460842e-12,1.31723534036486e-11,-1.03107321257644e-09)
(-1.18222555523179e-11,2.50562417127775e-11,-1.02596826919266e-09)
(-1.65619041097314e-11,4.88180449159323e-11,-1.01730802602745e-09)
(-1.97095355968394e-11,9.8827640260653e-11,-9.9882766024239e-10)
(-2.0872170124674e-11,1.95552014716886e-10,-9.57039518133787e-10)
(-2.16523921172116e-11,3.63510405671627e-10,-8.70484354652047e-10)
(-2.28523678701188e-11,7.18702447005397e-10,-7.15993095646262e-10)
(-2.38612655446058e-11,1.64931965875044e-09,-4.48015137656875e-10)
(0,0,0)
(0,0,0)
(0,0,0)
(0,0,0)
(0,0,0)
(0,0,0)
(7.15966843793507e-13,1.17449207240085e-12,-2.04946669738417e-09)
(-1.58145673973381e-12,3.03875194907648e-12,-2.0474799034294e-09)
(-4.49893063953609e-12,6.58884356241358e-12,-2.04409238888878e-09)
(-1.08061854368872e-11,1.3172344566977e-11,-2.0384000125161e-09)
(-1.52424699559427e-11,2.6548210118152e-11,-2.02744540230914e-09)
(-1.84749674242461e-11,5.38221335278763e-11,-2.00368654251923e-09)
(-1.98634506739616e-11,1.06045595305999e-10,-1.95287342138191e-09)
(-2.02486550558391e-11,2.06588364733617e-10,-1.84939668315587e-09)
(-2.06714725760309e-11,4.48544707640612e-10,-1.64489675228685e-09)
(-2.07769800355336e-11,1.19929364126863e-09,-1.19803504584971e-09)
(0,0,0)
(0,0,0)
(0,0,0)
(0,0,0)
(0,0,0)
(0,0,0)
(0,0,0)
(0,0,0)
(0,0,0)
(0,0,0)
(0,0,0)
(0,0,0)
(0,0,0)
(0,0,0)
(0,0,0)
(0,0,0)
(0,0,0)
(0,0,0)
(0,0,0)
(0,0,0)
(0,0,0)
(0,0,0)
(0,0,0)
(0,0,0)
(0,0,0)
(0,0,0)
(0,0,0)
(0,0,0)
(0,0,0)
(0,0,0)
(0,0,0)
(0,0,0)
(0,0,0)
(0,0,0)
(0,0,0)
(0,0,0)
(0,0,0)
(0,0,0)
(0,0,0)
(0,0,0)
(0,0,0)
(0,0,0)
(0,0,0)
(0,0,0)
(0,0,0)
(0,0,0)
(0,0,0)
(0,0,0)
(0,0,0)
(0,0,0)
(0,0,0)
(0,0,0)
(0,0,0)
(0,0,0)
(0,0,0)
(0,0,0)
(0,0,0)
(0,0,0)
(0,0,0)
(0,0,0)
(0,0,0)
(0,0,0)
(0,0,0)
(0,0,0)
(0,0,0)
(0,0,0)
(0,0,0)
(0,0,0)
(0,0,0)
(0,0,0)
(0,0,0)
(0,0,0)
(0,0,0)
(0,0,0)
(0,0,0)
(0,0,0)
(0,0,0)
(0,0,0)
(0,0,0)
(0,0,0)
(0,0,0)
(0,0,0)
(0,0,0)
(0,0,0)
(0,0,0)
(0,0,0)
(0,0,0)
(0,0,0)
(0,0,0)
(0,0,0)
(0,0,0)
(0,0,0)
(0,0,0)
(0,0,0)
(0,0,0)
(0,0,0)
(0,0,0)
(0,0,0)
(0,0,0)
(0,0,0)
(0,0,0)
(0,0,0)
(-1.38246234947167e-12,2.5964761909576e-11,-2.40709928230565e-11)
(-3.15235346248632e-12,5.55376241466679e-11,-2.3084243760695e-11)
(-4.38765962017972e-12,9.27789566637498e-11,-2.09416814756161e-11)
(-5.39162770140776e-12,1.41850425340777e-10,-1.69043851480886e-11)
(-7.13107842477389e-12,2.10782942658821e-10,-1.11155828520137e-11)
(-8.70129883078053e-12,3.08239973701907e-10,-4.09986567533218e-12)
(-9.72366033115787e-12,4.52297195746062e-10,2.01088762601275e-12)
(-9.97520540460449e-12,6.63746981962041e-10,3.66574285689096e-12)
(-1.01572169976346e-11,9.66833273924464e-10,2.62635105070287e-12)
(-1.06581925002346e-11,1.33646294254599e-09,1.06606232498029e-12)
(0,0,0)
(0,0,0)
(0,0,0)
(0,0,0)
(0,0,0)
(0,0,0)
(-2.59096180852897e-12,2.48233916738418e-11,-5.10894941569769e-11)
(-5.43140736317523e-12,5.25723255337064e-11,-4.92703971523451e-11)
(-7.58768880532212e-12,8.81163583751447e-11,-4.52481809573548e-11)
(-9.48942966324181e-12,1.35716682475468e-10,-3.74544174961206e-11)
(-1.23498536250917e-11,2.03490459644463e-10,-2.55556337683203e-11)
(-1.43025413872373e-11,3.02173378379037e-10,-1.01056354631115e-11)
(-1.58510500046988e-11,4.51121874531788e-10,4.54730737421592e-12)
(-1.77668262544422e-11,6.65839243455629e-10,7.59366575785558e-12)
(-1.83658032820664e-11,9.68898219722457e-10,4.81427810034989e-12)
(-1.96298410656891e-11,1.3373091692801e-09,1.8643698105854e-12)
(0,0,0)
(0,0,0)
(0,0,0)
(0,0,0)
(0,0,0)
(0,0,0)
(-3.43904327415716e-12,2.27857058284908e-11,-8.63014044188131e-11)
(-5.33380026411118e-12,4.79594371991384e-11,-8.38754483906195e-11)
(-7.28203329936248e-12,8.01597514621057e-11,-7.79094642655967e-11)
(-9.52091845656856e-12,1.23604513072969e-10,-6.64357668015919e-11)
(-1.28403692131826e-11,1.87804219424936e-10,-4.79540639363362e-11)
(-1.50965094864913e-11,2.87880556289451e-10,-2.17996171916354e-11)
(-1.70386463937456e-11,4.48844976903491e-10,7.04314767287293e-12)
(-2.35969269751675e-11,6.71158695278295e-10,8.96497612114053e-12)
(-2.59932653803908e-11,9.73993876878331e-10,2.93020923528864e-12)
(-2.75233338909502e-11,1.34027553340548e-09,-1.81393835150149e-13)
(0,0,0)
(0,0,0)
(0,0,0)
(0,0,0)
(0,0,0)
(0,0,0)
(-3.57718627465533e-12,2.00977049564765e-11,-1.34593900281376e-10)
(-5.32214566781282e-12,4.14875950907739e-11,-1.312767016242e-10)
(-6.39713495964421e-12,6.8620767881681e-11,-1.24250227153158e-10)
(-7.03425864552885e-12,1.05063837422779e-10,-1.11005660930056e-10)
(-8.37751754355992e-12,1.61249905861465e-10,-8.88632130805063e-11)
(-8.5348366739481e-12,2.58340465899974e-10,-5.47678043486745e-11)
(-1.07302515210013e-11,4.42471477954484e-10,-8.80265572029611e-12)
(-2.75484465016053e-11,6.81933259686115e-10,-1.06492892404805e-11)
(-3.12706601896561e-11,9.8130162295078e-10,-1.45957008443307e-11)
(-3.21289954201358e-11,1.34272573777222e-09,-1.01614969439784e-11)
(0,0,0)
(0,0,0)
(0,0,0)
(0,0,0)
(0,0,0)
(0,0,0)
(-3.30232891067612e-12,1.64487634580707e-11,-2.01765500232997e-10)
(-4.87413720247987e-12,3.36508429133054e-11,-1.9826279893678e-10)
(-5.58517664726393e-12,5.44830050166434e-11,-1.91319385331514e-10)
(-4.83386856418943e-12,8.16111181943859e-11,-1.79418297349689e-10)
(-3.43779187531225e-12,1.23915148121986e-10,-1.61496006094604e-10)
(-2.03796076854918e-12,2.02377603658103e-10,-1.40210483396072e-10)
(-3.08257597408243e-11,3.91437772361508e-10,-1.48503165964157e-10)
(-3.60331945391253e-11,6.93310964134361e-10,-9.79289237523345e-11)
(-3.46195385564711e-11,9.83517005888009e-10,-6.63556477055483e-11)
(-3.34684433333781e-11,1.33625815425757e-09,-3.48098430891239e-11)
(0,0,0)
(0,0,0)
(0,0,0)
(0,0,0)
(0,0,0)
(0,0,0)
(-2.10123930942891e-12,1.26432824339844e-11,-2.97571412020236e-10)
(-4.12686167319265e-12,2.54470629637621e-11,-2.94478379128752e-10)
(-5.12040252465838e-12,4.01380587513695e-11,-2.88359311212664e-10)
(-4.23014101145924e-12,5.89119289699279e-11,-2.79505272884264e-10)
(-3.81119747542786e-12,8.9299355763487e-11,-2.67962413283597e-10)
(-3.59777007472384e-12,1.6179557443437e-10,-2.54182787139647e-10)
(-2.68097968142981e-11,3.94695881834314e-10,-2.564463937784e-10)
(-3.32471452921582e-11,6.83108502378686e-10,-2.04128204637402e-10)
(-3.2259303066354e-11,9.60043664611107e-10,-1.42066856774845e-10)
(-3.14370706095171e-11,1.30472263582178e-09,-7.32979330096167e-11)
(0,0,0)
(0,0,0)
(0,0,0)
(0,0,0)
(0,0,0)
(0,0,0)
(-1.71651471409015e-12,9.21863196985779e-12,-4.37166823365049e-10)
(-4.28775875866736e-12,1.79820371302926e-11,-4.345393188594e-10)
(-6.42408485062048e-12,2.77612411249913e-11,-4.29979950347528e-10)
(-7.60403791929731e-12,3.95383446639107e-11,-4.25601336433731e-10)
(-1.33097049160029e-11,5.61623665288333e-11,-4.24494804912577e-10)
(-3.17899855607548e-11,1.02183936109678e-10,-4.2906232474885e-10)
(-2.11391370442688e-11,3.63989371639069e-10,-3.74547424148266e-10)
(-2.60490843558624e-11,6.36608729583243e-10,-3.61265381654752e-10)
(-2.74971895988278e-11,8.97395275108337e-10,-2.5170581680532e-10)
(-2.76923215783367e-11,1.2337943000357e-09,-1.29712367327114e-10)
(0,0,0)
(0,0,0)
(0,0,0)
(0,0,0)
(0,0,0)
(0,0,0)
(-1.5580820214852e-12,5.87868190151989e-12,-6.40887228533641e-10)
(-4.19891185732403e-12,1.17576426334986e-11,-6.38813826169859e-10)
(-6.37113955271896e-12,1.95222198703736e-11,-6.35536036016362e-10)
(-8.81815222356246e-12,3.12497040504052e-11,-6.32786444839446e-10)
(-1.29406290113575e-11,5.52462543063647e-11,-6.32483673389656e-10)
(-2.03473606490242e-11,1.2508546023107e-10,-6.34847121241984e-10)
(-1.91119405108971e-11,3.27864686283929e-10,-6.18771378660753e-10)
(-2.11086082310245e-11,5.25947975252789e-10,-5.28530486505085e-10)
(-2.27287436135948e-11,7.76089070805836e-10,-3.8589066818632e-10)
(-2.37273361846331e-11,1.10419729705273e-09,-2.08267172700956e-10)
(0,0,0)
(0,0,0)
(0,0,0)
(0,0,0)
(0,0,0)
(0,0,0)
(-6.11867582339777e-13,3.53518942894634e-12,-9.38258295621758e-10)
(-3.16132135983274e-12,7.19188564167619e-12,-9.36163714823443e-10)
(-4.88820937655879e-12,1.34854910416964e-11,-9.3294731985303e-10)
(-8.59860157196316e-12,2.47572885465267e-11,-9.28650543828951e-10)
(-1.27724350964759e-11,4.86202142168674e-11,-9.22398265000627e-10)
(-1.64921709731558e-11,1.07321066407594e-10,-9.09126323375763e-10)
(-1.79209141952664e-11,2.30342681090217e-10,-8.69094641947345e-10)
(-1.9221610186053e-11,3.80500653513879e-10,-7.64199040560024e-10)
(-2.06725864941254e-11,5.96577854996008e-10,-5.92149464643927e-10)
(-2.18503857199211e-11,8.93858752548485e-10,-3.40353045923471e-10)
(0,0,0)
(0,0,0)
(0,0,0)
(0,0,0)
(0,0,0)
(0,0,0)
(-9.63350393101163e-14,1.64982260599671e-12,-1.30438220867615e-09)
(-1.93021933144106e-12,3.34224888846691e-12,-1.30193355744413e-09)
(-3.60246344957454e-12,7.0281535631821e-12,-1.29856740726286e-09)
(-8.58845107697854e-12,1.40025380751965e-11,-1.29276508155499e-09)