/*--------------------------------*- C++ -*----------------------------------*\
| =========                 |                                                 |
| \\      /  F ield         | foam-extend: Open Source CFD                    |
|  \\    /   O peration     | Version:     4.0                                |
|   \\  /    A nd           | Web:         http://www.foam-extend.org         |
|    \\/     M anipulation  |                                                 |
\*---------------------------------------------------------------------------*/
FoamFile
{
    version 2.0;
    format ascii;
    class volVectorField;
    location "Data/2068";
    object      E;
}
// * * * * * * * * * * * * * * * * * * * * * * * * * * * * * * * * * * * * * //

dimensions      [0 1 -1 0 0 0 0];

internalField   nonuniform List<vector>
4096
(
(0,0,0)
(0,0,0)
(0,0,0)
(0,0,0)
(0,0,0)
(0,0,0)
(0,0,0)
(0,0,0)
(0,0,0)
(0,0,0)
(0,0,0)
(0,0,0)
(0,0,0)
(0,0,0)
(0,0,0)
(0,0,0)
(0,0,0)
(0,0,0)
(0,0,0)
(0,0,0)
(0,0,0)
(0,0,0)
(0,0,0)
(0,0,0)
(0,0,0)
(0,0,0)
(0,0,0)
(0,0,0)
(0,0,0)
(0,0,0)
(0,0,0)
(0,0,0)
(0,0,0)
(0,0,0)
(0,0,0)
(0,0,0)
(0,0,0)
(0,0,0)
(0,0,0)
(0,0,0)
(0,0,0)
(0,0,0)
(0,0,0)
(0,0,0)
(0,0,0)
(0,0,0)
(0,0,0)
(0,0,0)
(0,0,0)
(0,0,0)
(0,0,0)
(0,0,0)
(0,0,0)
(0,0,0)
(0,0,0)
(0,0,0)
(0,0,0)
(0,0,0)
(0,0,0)
(0,0,0)
(0,0,0)
(0,0,0)
(0,0,0)
(0,0,0)
(0,0,0)
(0,0,0)
(0,0,0)
(0,0,0)
(0,0,0)
(0,0,0)
(0,0,0)
(0,0,0)
(0,0,0)
(0,0,0)
(0,0,0)
(0,0,0)
(0,0,0)
(0,0,0)
(0,0,0)
(0,0,0)
(0,0,0)
(0,0,0)
(0,0,0)
(0,0,0)
(0,0,0)
(0,0,0)
(0,0,0)
(0,0,0)
(0,0,0)
(0,0,0)
(0,0,0)
(0,0,0)
(0,0,0)
(0,0,0)
(0,0,0)
(0,0,0)
(0,0,0)
(0,0,0)
(0,0,0)
(0,0,0)
(0,0,0)
(0,0,0)
(0,0,0)
(0,0,0)
(0,0,0)
(0,0,0)
(0,0,0)
(0,0,0)
(0,0,0)
(0,0,0)
(0,0,0)
(0,0,0)
(0,0,0)
(0,0,0)
(0,0,0)
(0,0,0)
(0,0,0)
(0,0,0)
(0,0,0)
(0,0,0)
(0,0,0)
(0,0,0)
(0,0,0)
(0,0,0)
(0,0,0)
(0,0,0)
(0,0,0)
(0,0,0)
(0,0,0)
(0,0,0)
(0,0,0)
(0,0,0)
(0,0,0)
(0,0,0)
(0,0,0)
(0,0,0)
(0,0,0)
(0,0,0)
(0,0,0)
(0,0,0)
(0,0,0)
(0,0,0)
(0,0,0)
(0,0,0)
(0,0,0)
(0,0,0)
(0,0,0)
(0,0,0)
(0,0,0)
(0,0,0)
(0,0,0)
(0,0,0)
(0,0,0)
(0,0,0)
(0,0,0)
(0,0,0)
(0,0,0)
(0,0,0)
(0,0,0)
(0,0,0)
(0,0,0)
(0,0,0)
(0,0,0)
(0,0,0)
(0,0,0)
(0,0,0)
(0,0,0)
(0,0,0)
(0,0,0)
(0,0,0)
(0,0,0)
(0,0,0)
(0,0,0)
(0,0,0)
(0,0,0)
(0,0,0)
(0,0,0)
(0,0,0)
(0,0,0)
(0,0,0)
(0,0,0)
(0,0,0)
(0,0,0)
(0,0,0)
(0,0,0)
(0,0,0)
(0,0,0)
(0,0,0)
(0,0,0)
(0,0,0)
(0,0,0)
(0,0,0)
(0,0,0)
(0,0,0)
(0,0,0)
(0,0,0)
(0,0,0)
(0,0,0)
(0,0,0)
(0,0,0)
(0,0,0)
(0,0,0)
(0,0,0)
(0,0,0)
(0,0,0)
(0,0,0)
(0,0,0)
(0,0,0)
(0,0,0)
(0,0,0)
(0,0,0)
(0,0,0)
(0,0,0)
(0,0,0)
(0,0,0)
(0,0,0)
(0,0,0)
(0,0,0)
(0,0,0)
(0,0,0)
(0,0,0)
(0,0,0)
(0,0,0)
(0,0,0)
(0,0,0)
(0,0,0)
(0,0,0)
(0,0,0)
(0,0,0)
(0,0,0)
(0,0,0)
(0,0,0)
(0,0,0)
(0,0,0)
(0,0,0)
(0,0,0)
(0,0,0)
(0,0,0)
(0,0,0)
(0,0,0)
(0,0,0)
(0,0,0)
(0,0,0)
(0,0,0)
(0,0,0)
(0,0,0)
(0,0,0)
(0,0,0)
(0,0,0)
(0,0,0)
(0,0,0)
(0,0,0)
(0,0,0)
(0,0,0)
(0,0,0)
(0,0,0)
(0,0,0)
(0,0,0)
(0,0,0)
(0,0,0)
(0,0,0)
(0,0,0)
(0,0,0)
(0,0,0)
(0,0,0)
(0,0,0)
(0,0,0)
(0,0,0)
(0,0,0)
(0,0,0)
(0,0,0)
(0,0,0)
(0,0,0)
(0,0,0)
(0,0,0)
(0,0,0)
(0,0,0)
(0,0,0)
(0,0,0)
(0,0,0)
(0,0,0)
(0,0,0)
(0,0,0)
(0,0,0)
(0,0,0)
(0,0,0)
(0,0,0)
(0,0,0)
(0,0,0)
(0,0,0)
(0,0,0)
(0,0,0)
(0,0,0)
(0,0,0)
(0,0,0)
(0,0,0)
(0,0,0)
(0,0,0)
(0,0,0)
(0,0,0)
(0,0,0)
(0,0,0)
(0,0,0)
(0,0,0)
(0,0,0)
(0,0,0)
(0,0,0)
(0,0,0)
(0,0,0)
(0,0,0)
(0,0,0)
(0,0,0)
(0,0,0)
(0,0,0)
(0,0,0)
(0,0,0)
(0,0,0)
(0,0,0)
(0,0,0)
(0,0,0)
(0,0,0)
(0,0,0)
(0,0,0)
(0,0,0)
(0,0,0)
(0,0,0)
(0,0,0)
(0,0,0)
(0,0,0)
(0,0,0)
(0,0,0)
(0,0,0)
(0,0,0)
(0,0,0)
(0,0,0)
(0,0,0)
(0,0,0)
(0,0,0)
(0,0,0)
(0,0,0)
(0,0,0)
(0,0,0)
(0,0,0)
(0,0,0)
(0,0,0)
(0,0,0)
(0,0,0)
(0,0,0)
(0,0,0)
(0,0,0)
(0,0,0)
(0,0,0)
(0,0,0)
(0,0,0)
(0,0,0)
(0,0,0)
(0,0,0)
(0,0,0)
(0,0,0)
(0,0,0)
(0,0,0)
(0,0,0)
(0,0,0)
(0,0,0)
(0,0,0)
(0,0,0)
(0,0,0)
(0,0,0)
(0,0,0)
(0,0,0)
(0,0,0)
(0,0,0)
(0,0,0)
(0,0,0)
(0,0,0)
(0,0,0)
(0,0,0)
(0,0,0)
(0,0,0)
(0,0,0)
(0,0,0)
(0,0,0)
(0,0,0)
(0,0,0)
(0,0,0)
(0,0,0)
(0,0,0)
(0,0,0)
(0,0,0)
(0,0,0)
(0,0,0)
(0,0,0)
(0,0,0)
(0,0,0)
(0,0,0)
(0,0,0)
(0,0,0)
(0,0,0)
(0,0,0)
(0,0,0)
(0,0,0)
(0,0,0)
(0,0,0)
(0,0,0)
(0,0,0)
(0,0,0)
(0,0,0)
(0,0,0)
(0,0,0)
(0,0,0)
(0,0,0)
(0,0,0)
(0,0,0)
(0,0,0)
(0,0,0)
(0,0,0)
(0,0,0)
(0,0,0)
(0,0,0)
(0,0,0)
(0,0,0)
(0,0,0)
(0,0,0)
(0,0,0)
(0,0,0)
(0,0,0)
(0,0,0)
(0,0,0)
(0,0,0)
(0,0,0)
(0,0,0)
(0,0,0)
(0,0,0)
(0,0,0)
(0,0,0)
(0,0,0)
(0,0,0)
(0,0,0)
(0,0,0)
(0,0,0)
(0,0,0)
(0,0,0)
(0,0,0)
(0,0,0)
(0,0,0)
(0,0,0)
(0,0,0)
(0,0,0)
(0,0,0)
(0,0,0)
(0,0,0)
(0,0,0)
(0,0,0)
(0,0,0)
(0,0,0)
(0,0,0)
(0,0,0)
(0,0,0)
(0,0,0)
(0,0,0)
(0,0,0)
(0,0,0)
(0,0,0)
(0,0,0)
(0,0,0)
(0,0,0)
(0,0,0)
(0,0,0)
(0,0,0)
(0,0,0)
(0,0,0)
(0,0,0)
(0,0,0)
(0,0,0)
(0,0,0)
(0,0,0)
(0,0,0)
(0,0,0)
(0,0,0)
(0,0,0)
(0,0,0)
(0,0,0)
(0,0,0)
(0,0,0)
(0,0,0)
(0,0,0)
(0,0,0)
(0,0,0)
(0,0,0)
(0,0,0)
(0,0,0)
(0,0,0)
(0,0,0)
(0,0,0)
(0,0,0)
(0,0,0)
(0,0,0)
(0,0,0)
(0,0,0)
(0,0,0)
(0,0,0)
(0,0,0)
(0,0,0)
(0,0,0)
(0,0,0)
(0,0,0)
(0,0,0)
(0,0,0)
(0,0,0)
(0,0,0)
(0,0,0)
(0,0,0)
(0,0,0)
(0,0,0)
(0,0,0)
(0,0,0)
(0,0,0)
(0,0,0)
(0,0,0)
(0,0,0)
(0,0,0)
(0,0,0)
(0,0,0)
(0,0,0)
(0,0,0)
(0,0,0)
(0,0,0)
(0,0,0)
(0,0,0)
(0,0,0)
(0,0,0)
(0,0,0)
(0,0,0)
(0,0,0)
(0,0,0)
(0,0,0)
(0,0,0)
(0,0,0)
(0,0,0)
(0,0,0)
(0,0,0)
(0,0,0)
(0,0,0)
(0,0,0)
(0,0,0)
(0,0,0)
(0,0,0)
(0,0,0)
(0,0,0)
(0,0,0)
(0,0,0)
(0,0,0)
(0,0,0)
(0,0,0)
(0,0,0)
(0,0,0)
(0,0,0)
(0,0,0)
(0,0,0)
(0,0,0)
(0,0,0)
(0,0,0)
(0,0,0)
(0,0,0)
(0,0,0)
(0,0,0)
(0,0,0)
(0,0,0)
(0,0,0)
(0,0,0)
(0,0,0)
(0,0,0)
(0,0,0)
(0,0,0)
(0,0,0)
(0,0,0)
(0,0,0)
(0,0,0)
(0,0,0)
(0,0,0)
(0,0,0)
(0,0,0)
(0,0,0)
(0,0,0)
(0,0,0)
(0,0,0)
(0,0,0)
(0,0,0)
(0,0,0)
(0,0,0)
(0,0,0)
(0,0,0)
(0,0,0)
(0,0,0)
(0,0,0)
(0,0,0)
(0,0,0)
(0,0,0)
(0,0,0)
(0,0,0)
(0,0,0)
(0,0,0)
(0,0,0)
(0,0,0)
(0,0,0)
(0,0,0)
(0,0,0)
(0,0,0)
(0,0,0)
(0,0,0)
(0,0,0)
(0,0,0)
(0,0,0)
(0,0,0)
(0,0,0)
(0,0,0)
(0,0,0)
(0,0,0)
(0,0,0)
(0,0,0)
(0,0,0)
(0,0,0)
(0,0,0)
(0,0,0)
(0,0,0)
(0,0,0)
(0,0,0)
(0,0,0)
(0,0,0)
(0,0,0)
(0,0,0)
(0,0,0)
(0,0,0)
(0,0,0)
(0,0,0)
(0,0,0)
(0,0,0)
(0,0,0)
(0,0,0)
(0,0,0)
(0,0,0)
(0,0,0)
(0,0,0)
(0,0,0)
(0,0,0)
(0,0,0)
(0,0,0)
(0,0,0)
(0,0,0)
(0,0,0)
(0,0,0)
(0,0,0)
(0,0,0)
(0,0,0)
(0,0,0)
(0,0,0)
(0,0,0)
(0,0,0)
(0,0,0)
(0,0,0)
(0,0,0)
(0,0,0)
(0,0,0)
(0,0,0)
(0,0,0)
(0,0,0)
(0,0,0)
(0,0,0)
(0,0,0)
(0,0,0)
(0,0,0)
(0,0,0)
(0,0,0)
(0,0,0)
(0,0,0)
(0,0,0)
(0,0,0)
(0,0,0)
(0,0,0)
(0,0,0)
(0,0,0)
(0,0,0)
(0,0,0)
(0,0,0)
(0,0,0)
(0,0,0)
(0,0,0)
(0,0,0)
(0,0,0)
(0,0,0)
(0,0,0)
(0,0,0)
(0,0,0)
(0,0,0)
(0,0,0)
(0,0,0)
(0,0,0)
(0,0,0)
(0,0,0)
(0,0,0)
(0,0,0)
(0,0,0)
(0,0,0)
(0,0,0)
(0,0,0)
(0,0,0)
(0,0,0)
(0,0,0)
(0,0,0)
(0,0,0)
(0,0,0)
(0,0,0)
(0,0,0)
(0,0,0)
(0,0,0)
(0,0,0)
(0,0,0)
(0,0,0)
(0,0,0)
(0,0,0)
(0,0,0)
(0,0,0)
(0,0,0)
(0,0,0)
(0,0,0)
(0,0,0)
(0,0,0)
(0,0,0)
(0,0,0)
(0,0,0)
(0,0,0)
(0,0,0)
(0,0,0)
(0,0,0)
(0,0,0)
(0,0,0)
(0,0,0)
(0,0,0)
(0,0,0)
(0,0,0)
(0,0,0)
(0,0,0)
(0,0,0)
(0,0,0)
(0,0,0)
(0,0,0)
(0,0,0)
(0,0,0)
(0,0,0)
(0,0,0)
(0,0,0)
(0,0,0)
(0,0,0)
(0,0,0)
(0,0,0)
(0,0,0)
(0,0,0)
(0,0,0)
(0,0,0)
(0,0,0)
(0,0,0)
(0,0,0)
(0,0,0)
(0,0,0)
(0,0,0)
(0,0,0)
(0,0,0)
(0,0,0)
(0,0,0)
(0,0,0)
(0,0,0)
(0,0,0)
(0,0,0)
(0,0,0)
(0,0,0)
(0,0,0)
(0,0,0)
(0,0,0)
(0,0,0)
(0,0,0)
(0,0,0)
(0,0,0)
(0,0,0)
(0,0,0)
(0,0,0)
(0,0,0)
(0,0,0)
(0,0,0)
(0,0,0)
(0,0,0)
(0,0,0)
(0,0,0)
(0,0,0)
(0,0,0)
(0,0,0)
(0,0,0)
(0,0,0)
(0,0,0)
(0,0,0)
(0,0,0)
(0,0,0)
(0,0,0)
(0,0,0)
(0,0,0)
(0,0,0)
(0,0,0)
(0,0,0)
(0,0,0)
(0,0,0)
(0,0,0)
(0,0,0)
(0,0,0)
(0,0,0)
(0,0,0)
(0,0,0)
(0,0,0)
(0,0,0)
(0,0,0)
(0,0,0)
(-50.109299949568,36.6280120212826,13.4812879267048)
(-47.9541161771296,59.2231506937366,2.21225341024501)
(-10.5337382708117,34.7093568105135,-21.9633651292348)
(14.0361145832558,-2.33848881759842,-33.6609908893171)
(-6.56181087489981,-18.4064286282207,-8.69275137637026)
(-76.0920509475351,-27.080934602316,94.480234164602)
(-251.106610459641,-62.5747176810567,408.161562329509)
(-674.155110309906,-83.1038641856322,1165.42053686504)
(-1357.9166348104,-41.4089278917261,2564.74609953808)
(-2063.37199612057,-0.994292490695208,4629.112388179)
(0,0,0)
(0,0,0)
(0,0,0)
(0,0,0)
(0,0,0)
(0,0,0)
(-53.6673658705771,31.0369564977729,59.2584213923692)
(-30.6799099294895,63.6031145748792,85.5583674457141)
(28.1268963509322,39.9825379603895,52.1582899409688)
(25.9561318844846,-11.5027067131899,35.3663759585119)
(-19.0857220084362,-32.3742145497764,68.4198838779458)
(-99.429704347246,-47.0675660037752,187.836219625201)
(-281.349204896186,-103.019946363469,509.630653203367)
(-691.33131837468,-127.898028439151,1245.75613575518)
(-1389.46822592717,-82.0120872576793,2675.82752109551)
(-2093.13800935388,-31.7713656467304,4799.74260354048)
(0,0,0)
(0,0,0)
(0,0,0)
(0,0,0)
(0,0,0)
(0,0,0)
(-27.8364293563954,7.49078850945879,51.3825973443357)
(-11.8353042247106,32.1309113763519,94.6901047706207)
(59.1955101252425,-6.16038059430834,81.6375132047512)
(52.2836503148699,-75.1362528502602,92.9874090294666)
(-27.6529758361246,-75.8850583981962,164.151228702209)
(-128.167327713681,-90.0859742343973,335.336964645758)
(-322.235021217537,-117.485804469462,672.037843984596)
(-711.478165495086,-117.738711295549,1373.35669231112)
(-1398.29155833073,-112.192661373493,2801.82882477824)
(-2102.03093129686,-65.0473418646511,4937.13573235977)
(0,0,0)
(0,0,0)
(0,0,0)
(0,0,0)
(0,0,0)
(0,0,0)
(-70.1216661495666,39.392779368233,38.2196752922036)
(-59.7980579925326,27.8581157742469,102.290528888968)
(0.976298184878554,-16.0236467347453,111.177496837523)
(-4.07162321268465,-83.490328023391,123.60319521487)
(-83.2180418184957,-95.7977146416252,226.733893283961)
(-189.361043132939,-101.655434390451,427.664396576932)
(-387.369297073083,-101.076564013799,798.6244531892)
(-758.13139780117,-78.5958816835416,1517.61302131381)
(-1419.6279939529,-91.6289314970108,2916.67728535538)
(-2112.39162146494,-47.9769728403681,5011.99853792468)
(0,0,0)
(0,0,0)
(0,0,0)
(0,0,0)
(0,0,0)
(0,0,0)
(-112.156715859264,42.9136078341299,108.635887389567)
(-105.820165475977,35.3909305350612,206.923238101448)
(-56.132140571467,16.7335979172391,230.298134022784)
(-65.3791874046883,-19.2469562280995,231.433949630665)
(-150.282468519933,-26.8210441818683,312.739747692185)
(-245.857276249813,-35.7103459169465,492.6519354467)
(-422.668774109521,-52.3903958909471,866.634541433545)
(-785.107508432856,-40.0076392352914,1613.15380742848)
(-1420.94834557033,-56.8879427692801,2999.36116435406)
(-2097.26725194616,-39.9272570649673,5088.57870050258)
(0,0,0)
(0,0,0)
(0,0,0)
(0,0,0)
(0,0,0)
(0,0,0)
(-190.580009720339,117.17934542446,116.314272132794)
(-166.330079275169,132.011122191817,186.024159746716)
(-141.875890710138,141.521531303206,203.112117071587)
(-175.484557039898,133.396730193462,225.952987688034)
(-258.619523470271,125.270999893283,332.480467088429)
(-323.781093221935,114.755924969532,505.795289442767)
(-463.093065359097,78.6418303884004,837.856128534254)
(-804.45181191082,49.2783837666817,1553.02191744352)
(-1420.96239454725,6.24786856496465,2910.84850072836)
(-2096.83297690696,-19.8061933351196,4987.56041374386)
(0,0,0)
(0,0,0)
(0,0,0)
(0,0,0)
(0,0,0)
(0,0,0)
(-341.993446855684,343.536411159729,115.636381119534)
(-321.718208063607,401.446806646956,167.918904738456)
(-334.379086270389,454.361486871059,189.458035446607)
(-370.953741951384,491.150220466894,202.658287127655)
(-430.773142099671,470.229299535685,288.473129580699)
(-472.244376246373,416.029572772251,459.443858019089)
(-581.260931404617,342.684143072883,776.662476750025)
(-904.160108202697,286.127561044903,1443.97340767969)
(-1484.41188286234,192.754782180386,2741.87837687143)
(-2132.29525952983,90.2407229409004,4764.1267202349)
(0,0,0)
(0,0,0)
(0,0,0)
(0,0,0)
(0,0,0)
(0,0,0)
(-721.142127327272,1005.92161932426,58.756919162646)
(-705.57310946212,1068.67919403429,97.09764124281)
(-737.391831150639,1146.41655499226,142.43440428703)
(-765.09826121572,1219.67634234731,179.006543609998)
(-808.492041306417,1201.47182561032,256.256058835511)
(-840.77595855107,1101.91184838443,411.149741756476)
(-908.408478540644,971.783129372796,690.459233977558)
(-1201.70528743518,869.79710180428,1308.49498067399)
(-1717.41563160379,689.68827430517,2528.97712015143)
(-2280.5655892729,398.857376961522,4500.92605534344)
(0,0,0)
(0,0,0)
(0,0,0)
(0,0,0)
(0,0,0)
(0,0,0)
(-1372.72246992436,2362.75352002931,15.8905691875099)
(-1368.80133830766,2403.40873020005,49.9623713477122)
(-1400.16409262104,2494.87071396113,101.672304955167)
(-1424.44336975276,2598.2523668045,147.539650237171)
(-1447.738881418,2590.62754170208,206.122815560004)
(-1462.17525095086,2464.33150106327,305.878413835244)
(-1513.57858560573,2285.37263329424,505.867495529116)
(-1739.0675440051,2119.14734270884,995.584798632368)
(-2132.9099891188,1774.19965222767,2043.98340975116)
(-2510.90371303375,1097.24335164892,3856.5011481085)
(0,0,0)
(0,0,0)
(0,0,0)
(0,0,0)
(0,0,0)
(0,0,0)
(-2041.75406479467,4409.51292504614,-5.00534019477651)
(-2057.24972942637,4429.17724682507,26.4758726106614)
(-2095.70570965151,4546.2785466238,70.7737496281268)
(-2127.72425991126,4667.98069205169,128.769684328709)
(-2137.28994986393,4686.99417051889,169.693005412028)
(-2139.57184819634,4557.80325106932,215.79310358976)
(-2180.24412972911,4360.15598102719,321.253885580069)
(-2293.54057701944,4154.98303439086,578.958770876757)
(-2504.66734070406,3603.84260462343,1253.9831591407)
(-2615.32149131312,2399.05915520527,2567.48884692608)
(0,0,0)
(0,0,0)
(0,0,0)
(0,0,0)
(0,0,0)
(0,0,0)
(0,0,0)
(0,0,0)
(0,0,0)
(0,0,0)
(0,0,0)
(0,0,0)
(0,0,0)
(0,0,0)
(0,0,0)
(0,0,0)
(0,0,0)
(0,0,0)
(0,0,0)
(0,0,0)
(0,0,0)
(0,0,0)
(0,0,0)
(0,0,0)
(0,0,0)
(0,0,0)
(0,0,0)
(0,0,0)
(0,0,0)
(0,0,0)
(0,0,0)
(0,0,0)
(0,0,0)
(0,0,0)
(0,0,0)
(0,0,0)
(0,0,0)
(0,0,0)
(0,0,0)
(0,0,0)
(0,0,0)
(0,0,0)
(0,0,0)
(0,0,0)
(0,0,0)
(0,0,0)
(0,0,0)
(0,0,0)
(0,0,0)
(0,0,0)
(0,0,0)
(0,0,0)
(0,0,0)
(0,0,0)
(0,0,0)
(0,0,0)
(0,0,0)
(0,0,0)
(0,0,0)
(0,0,0)
(0,0,0)
(0,0,0)
(0,0,0)
(0,0,0)
(0,0,0)
(0,0,0)
(0,0,0)
(0,0,0)
(0,0,0)
(0,0,0)
(0,0,0)
(0,0,0)
(0,0,0)
(0,0,0)
(0,0,0)
(0,0,0)
(0,0,0)
(0,0,0)
(0,0,0)
(0,0,0)
(0,0,0)
(0,0,0)
(0,0,0)
(0,0,0)
(0,0,0)
(0,0,0)
(0,0,0)
(0,0,0)
(0,0,0)
(0,0,0)
(0,0,0)
(0,0,0)
(0,0,0)
(0,0,0)
(0,0,0)
(0,0,0)
(0,0,0)
(0,0,0)
(0,0,0)
(0,0,0)
(0,0,0)
(0,0,0)
(21849.3208387998,28.8952598075435,-33.6679488275834)
(21857.465936594,33.5059004828439,-77.936452290725)
(21909.4998949985,-0.193218178939295,-103.119417716515)
(21965.3051753357,-33.1374498206202,-126.593578939149)
(21907.5392521296,-40.0679896783849,-105.969202514686)
(21781.8823989112,-40.0007033472292,-29.2854994204378)
(21466.8900119394,-65.200042957101,212.575370789478)
(20737.1019542734,-73.7539107316562,769.729666678618)
(19117.32980622,-37.9459249392233,2227.0866003545)
(14782.5279977578,-6.56609036372607,7282.41014656395)
(0,0,0)
(0,0,0)
(0,0,0)
(0,0,0)
(0,0,0)
(0,0,0)
(21857.6223795729,37.0262933382873,-24.7633292161791)
(21887.2697650659,25.7590997898517,-40.3087537309601)
(21953.9213979439,-16.3813372826365,-55.2576865175304)
(21961.3579739149,-70.6715511371678,-58.4679775141333)
(21892.973973159,-79.5968585215582,-36.341354080757)
(21753.1361723635,-77.6243754779176,43.3738911392642)
(21427.3385741062,-115.56240611587,279.705925094022)
(20701.9885018746,-128.695935329378,835.985579201851)
(19075.1719880031,-91.9903234838089,2320.04721335062)
(14745.8376971043,-50.87961197497,7420.04247817745)
(0,0,0)
(0,0,0)
(0,0,0)
(0,0,0)
(0,0,0)
(0,0,0)
(21886.9180930905,24.3798897136227,-7.45066914218693)
(21910.4533445149,2.58028965851854,-11.9030580092434)
(21978.3496585024,-42.4147615990314,-10.3663322439191)
(21958.487425874,-106.854272194856,14.2700630526114)
(21857.649291904,-109.291327126868,53.3197136687217)
(21696.3968362559,-119.352838001354,165.141461983841)
(21360.2409534047,-148.965014474151,410.725545512604)
(20659.3752576003,-143.915169254617,949.748806195504)
(19054.9666275639,-122.780291369682,2421.9380378651)
(14717.2230483104,-76.0792257091731,7522.54112178007)
(0,0,0)
(0,0,0)
(0,0,0)
(0,0,0)
(0,0,0)
(0,0,0)
(21845.2505725563,4.33380059845135,-0.668699859310363)
(21853.6535034032,-24.2216775792356,7.33915576254323)
(21897.0347839218,-54.8980535542963,18.4214117207413)
(21870.0125882766,-112.43935230135,44.5797300983722)
(21772.3227510678,-129.854250563216,104.259310450725)
(21597.4522358519,-152.419173011364,245.16981627045)
(21232.6771946431,-166.434145438525,537.249905300846)
(20566.2429347833,-125.162072421598,1088.77992562248)
(19027.3197861813,-104.348405648257,2518.05770939189)
(14702.9939584621,-59.7071366127219,7580.95749023245)
(0,0,0)
(0,0,0)
(0,0,0)
(0,0,0)
(0,0,0)
(0,0,0)
(21759.5879107957,-25.5470892425351,52.7937129064617)
(21765.8447714758,-44.7850696491243,96.3496177336618)
(21798.244930567,-37.9653303240779,119.697273183901)
(21756.2466921447,-53.0565991077739,133.346090151852)
(21644.6195204385,-71.0529941257993,174.300294579044)
(21471.6590560082,-98.7473938347971,297.769632925099)
(21101.8326218401,-112.000831716706,613.492373015982)
(20484.3365824645,-75.9752992213128,1189.51895873602)
(19033.3331037184,-66.0281885548062,2591.57474198369)
(14737.6574426182,-49.6259704044357,7641.22633093569)
(0,0,0)
(0,0,0)
(0,0,0)
(0,0,0)
(0,0,0)
(0,0,0)
(21622.0462964408,5.54970545585301,50.9343488502889)
(21652.9719529275,-3.76212288581531,85.2668196708105)
(21658.3458929099,32.6361914529039,109.10096399311)
(21584.1823138866,49.0736323218356,141.961311500505)
(21474.2495077619,26.8999924976875,205.796743417999)
(21348.8009321304,-0.805198164830171,329.929972109455)
(21056.0208456581,-12.8392653659949,606.31194451758)
(20484.6846856555,-6.32063656438579,1142.17823392533)
(19038.3504025958,-19.8079892061743,2531.30268718631)
(14748.3017851648,-40.9910167348254,7572.19042112237)
(0,0,0)
(0,0,0)
(0,0,0)
(0,0,0)
(0,0,0)
(0,0,0)
(21358.7230034772,147.49313846432,51.9975664079986)
(21377.5370572149,174.772954839517,68.8646731832)
(21339.1411842259,231.218283992596,91.4197600178845)
(21268.6948107162,274.974569515027,120.527719898821)
(21186.9276378411,242.627902818142,181.756479417818)
(21108.7920313863,183.449912043994,311.122411254052)
(20908.2179456156,138.479642268239,564.982076282305)
(20388.5061431891,108.431622816494,1052.2210153137)
(18951.1348486353,71.0349940869066,2420.48875007342)
(14690.8878453559,14.8654255358972,7436.10665278083)
(0,0,0)
(0,0,0)
(0,0,0)
(0,0,0)
(0,0,0)
(0,0,0)
(20696.6958220619,586.345954308641,37.9666845538052)
(20697.4900859474,651.19237473217,53.1415190123544)
(20630.123245556,725.926256861401,85.5759191841258)
(20574.7259811087,791.354347811985,124.029348334598)
(20518.7581107197,743.743955166677,190.320593561571)
(20478.0452385531,649.713254972026,299.893503389693)
(20389.862112677,549.622103166138,485.137900967253)
(19873.7886501667,482.180211119088,930.552824689747)
(18514.5424848586,390.398781300676,2273.88837069498)
(14413.1664720154,228.592175079065,7261.08700960826)
(0,0,0)
(0,0,0)
(0,0,0)
(0,0,0)
(0,0,0)
(0,0,0)
(19125.2372446994,1964.45867648704,18.5850130008041)
(19112.0031883963,2054.25095789773,29.3793529493556)
(19051.8407537102,2134.08819437597,63.8700188501561)
(19013.5335260784,2213.38158853956,98.5233319984424)
(18985.2513785799,2156.81832319873,147.116153689464)
(18970.6296168093,2039.03588539963,219.646105234289)
(18910.2662657036,1902.77301303936,337.3077938609)
(18489.3237417749,1785.43219152556,700.32197747589)
(17324.4503144446,1584.74366126429,1943.27424369231)
(13652.5442764811,1111.57823685211,6791.49764210422)
(0,0,0)
(0,0,0)
(0,0,0)
(0,0,0)
(0,0,0)
(0,0,0)
(14809.6633690693,7005.00849292226,2.69019936014045)
(14789.1957719215,7093.19170443325,11.9614011521903)
(14735.4225723726,7174.35019593294,35.2285673392167)
(14697.2033174499,7244.42467581129,73.9153525733904)
(14682.5519733237,7190.72414158168,114.825060822806)
(14679.2873164113,7080.51774200061,149.141489402931)
(14625.8903405902,6929.97211124963,210.465370642462)
(14392.6954263421,6788.35648846808,415.962520160507)
(13653.0968818502,6419.99496026247,1317.60444837422)
(11067.8912915074,5207.55340469167,5433.07394733651)
(0,0,0)
(0,0,0)
(0,0,0)
(0,0,0)
(0,0,0)
(0,0,0)
(0,0,0)
(0,0,0)
(0,0,0)
(0,0,0)
(0,0,0)
(0,0,0)
(0,0,0)
(0,0,0)
(0,0,0)
(0,0,0)
(0,0,0)
(0,0,0)
(0,0,0)
(0,0,0)
(0,0,0)
(0,0,0)
(0,0,0)
(0,0,0)
(0,0,0)
(0,0,0)
(0,0,0)
(0,0,0)
(0,0,0)
(0,0,0)
(0,0,0)
(0,0,0)
(0,0,0)
(0,0,0)
(0,0,0)
(0,0,0)
(0,0,0)
(0,0,0)
(0,0,0)
(0,0,0)
(0,0,0)
(0,0,0)
(0,0,0)
(0,0,0)
(0,0,0)
(0,0,0)
(0,0,0)
(0,0,0)
(0,0,0)
(0,0,0)
(0,0,0)
(0,0,0)
(0,0,0)
(0,0,0)
(0,0,0)
(0,0,0)
(0,0,0)
(0,0,0)
(0,0,0)
(0,0,0)
(0,0,0)
(0,0,0)
(0,0,0)
(0,0,0)
(0,0,0)
(0,0,0)
(0,0,0)
(0,0,0)
(0,0,0)
(0,0,0)
(0,0,0)
(0,0,0)
(0,0,0)
(0,0,0)
(0,0,0)
(0,0,0)
(0,0,0)
(0,0,0)
(0,0,0)
(0,0,0)
(0,0,0)
(0,0,0)
(0,0,0)
(0,0,0)
(0,0,0)
(0,0,0)
(0,0,0)
(0,0,0)
(0,0,0)
(0,0,0)
(0,0,0)
(0,0,0)
(0,0,0)
(0,0,0)
(0,0,0)
(0,0,0)
(0,0,0)
(0,0,0)
(0,0,0)
(0,0,0)
(0,0,0)
(0,0,0)
(41.143606197497,6.17038640398941,-92.6506035297902)
(42.8305062908161,1.79226680421985,-174.464889826193)
(101.487743806504,-28.8654187151177,-232.244769582924)
(173.263565599309,-54.8141977478235,-280.046411807514)
(114.501990803064,-68.1532779563707,-313.513322270441)
(-49.0625866735384,-82.5436361777815,-294.68215012431)
(-360.852990151951,-114.148115693224,-247.448482026204)
(-873.513454482917,-99.7582411256369,-431.732281875678)
(-1651.02815837393,-47.6912119861305,-1510.34055509404)
(-2345.05650474902,-6.00609209167057,-6271.40741007348)
(0,0,0)
(0,0,0)
(0,0,0)
(0,0,0)
(0,0,0)
(0,0,0)
(52.9805931749067,18.7212432140515,-102.566520170555)
(66.1537046856576,-15.4795333005829,-158.836109475267)
(125.753294323454,-61.0830383844632,-193.107835889648)
(152.20319555535,-118.666284700326,-214.758420297033)
(81.8164059708715,-138.959094204306,-227.452486611567)
(-101.881132010983,-143.777854380304,-205.85841383076)
(-425.549853643712,-182.550912495828,-179.224639056587)
(-941.979273327904,-166.338246898006,-363.334307859775)
(-1702.06507748039,-95.8468139674031,-1432.59908995762)
(-2370.97567209821,-35.5088472295112,-6180.94041528954)
(0,0,0)
(0,0,0)
(0,0,0)
(0,0,0)
(0,0,0)
(0,0,0)
(62.7944507668183,16.0910132541162,-67.903577394426)
(76.9595617542629,-36.7093080607342,-107.837469617043)
(121.859276268195,-82.322451360768,-124.765124237459)
(102.943887357089,-155.543177349715,-127.002142864061)
(-1.16737802830503,-175.74003611148,-126.061980783113)
(-200.174625615247,-182.596900360606,-85.3289226970408)
(-527.531857761438,-225.384036874367,-49.3804369386924)
(-1013.57819245735,-199.980339185585,-237.442344461831)
(-1727.22523371503,-119.844921294317,-1325.90982549757)
(-2398.00567692922,-47.2319866217191,-6093.61541062887)
(0,0,0)
(0,0,0)
(0,0,0)
(0,0,0)
(0,0,0)
(0,0,0)
(37.552927550423,-31.0050681491601,-39.8637233235334)
(31.3130405970732,-80.5253835681401,-68.3646347877757)
(34.1181846362995,-106.399982172275,-76.0279544291733)
(-11.5127088581765,-161.813244963305,-82.8900394449959)
(-112.76150526412,-190.468171142212,-77.7350978777893)
(-317.014649102469,-213.456036725611,-27.0665263384936)
(-729.548086593391,-260.786500550896,75.9037687955159)
(-1155.03557580078,-200.949452182945,-96.5060573362597)
(-1743.06302911594,-98.7219618670417,-1241.90365113979)
(-2409.50993218822,-37.3695709701799,-6033.91962596907)
(0,0,0)
(0,0,0)
(0,0,0)
(0,0,0)
(0,0,0)
(0,0,0)
(-60.4849770189987,-94.6481329112862,-10.9414971507818)
(-65.037649737491,-143.531079244629,-11.7108299743732)
(-70.6924628840355,-139.689446614558,-4.14142190563568)
(-145.559592842795,-144.160794283634,-14.6450373093901)
(-260.894879853329,-160.621210447533,-33.6350475304607)
(-469.165726359448,-165.40999886915,-35.5137527956053)
(-1117.36811782373,-120.826197224614,149.069233751789)
(-1413.36471199069,-66.5761785524187,17.7398048031335)
(-1674.20559729988,-62.5888849343367,-1205.51202077837)
(-2353.21856200426,-47.9317371262405,-5998.73129960596)
(0,0,0)
(0,0,0)
(0,0,0)
(0,0,0)
(0,0,0)
(0,0,0)
(-186.193808850852,-169.645550452462,-11.4199268718034)
(-186.657204615888,-203.221627890993,-6.75767046108092)
(-219.336080022034,-173.118815302193,9.69622143642452)
(-316.031805684126,-148.089024097591,19.1811209588753)
(-420.677826852393,-162.481094068044,21.3108894257272)
(-552.216445007658,-163.814091401159,26.0749093858033)
(-996.961068488788,-97.4024171138797,160.975593632398)
(-1259.1347015114,-39.8111985955737,-16.6274488482699)
(-1635.74170449142,-64.732735869569,-1235.04894061254)
(-2316.43912233232,-79.5898071403099,-6033.30741271629)
(0,0,0)
(0,0,0)
(0,0,0)
(0,0,0)
(0,0,0)
(0,0,0)
(-431.206025894608,-274.614099582561,0.240128739848965)
(-449.810346936009,-269.498926313552,-0.792618459988289)
(-508.404937619772,-233.041360428528,12.0185986221603)
(-588.909074574299,-202.031585984553,28.9075960584676)
(-665.682991310071,-222.063307105742,46.4429884789714)
(-720.176972298282,-245.905373401884,62.8458244970923)
(-940.469056865631,-205.503368559116,124.97632875906)
(-1032.24093734043,-246.941086769231,-141.804152316018)
(-1607.18296353265,-237.444428380099,-1305.43209719257)
(-2346.14810425431,-168.902715726171,-6073.74068888573)
(0,0,0)
(0,0,0)
(0,0,0)
(0,0,0)
(0,0,0)
(0,0,0)
(-899.474963969363,-585.173143465316,12.0723801314429)
(-933.880099588786,-538.73655672161,18.0227463128687)
(-1013.82759257972,-492.160808840054,26.4355831113769)
(-1076.5841918613,-471.234420037413,52.2911403606078)
(-1125.94526460201,-525.868222665656,106.141981637091)
(-1101.97541778362,-597.171289453908,142.771104188268)
(-909.04153013787,-661.971934721955,3.48586347581602)
(-1339.51946988999,-656.583528485426,-268.221024444921)
(-1952.15018879097,-582.795327967586,-1350.83490083278)
(-2529.54080879257,-386.222165813592,-6085.46561962718)
(0,0,0)
(0,0,0)
(0,0,0)
(0,0,0)
(0,0,0)
(0,0,0)
(-1639.72409529563,-1720.63505121823,5.7657979395448)
(-1679.60205189292,-1639.58966884589,3.56670053371585)
(-1755.92272095627,-1604.12260383285,28.6345204599558)
(-1792.29684898708,-1587.55973997685,56.1327657532395)
(-1813.36675654332,-1657.77673190329,92.0019603996649)
(-1773.99145890515,-1759.39783734541,104.192134244032)
(-1640.75445742105,-1849.91503581988,-51.5014913292752)
(-1987.54706975148,-1816.4202296166,-309.451428490613)
(-2491.42524342307,-1651.63278135328,-1319.39586696616)
(-2823.20066942774,-1179.95441032467,-5944.57612628664)
(0,0,0)
(0,0,0)
(0,0,0)
(0,0,0)
(0,0,0)
(0,0,0)
(-2310.17121693899,-6493.45814447594,-1.9997704461444)
(-2342.74201279187,-6403.60679642226,-0.702307944501397)
(-2395.36792772261,-6387.76360069726,19.0717392863165)
(-2421.99893500333,-6383.17154866678,39.2283505504117)
(-2432.95768318932,-6460.47100369936,62.7748291172233)
(-2418.65952402159,-6550.25434359995,56.9207260257701)
(-2402.29475631826,-6631.97458930436,-27.4920732828676)
(-2548.97319932219,-6573.09788385781,-223.803243238816)
(-2819.1949997954,-6294.6167058406,-1003.18488688885)
(-2859.60370945162,-5173.74340877258,-4976.55833718938)
(0,0,0)
(0,0,0)
(0,0,0)
(0,0,0)
(0,0,0)
(0,0,0)
(0,0,0)
(0,0,0)
(0,0,0)
(0,0,0)
(0,0,0)
(0,0,0)
(0,0,0)
(0,0,0)
(0,0,0)
(0,0,0)
(0,0,0)
(0,0,0)
(0,0,0)
(0,0,0)
(0,0,0)
(0,0,0)
(0,0,0)
(0,0,0)
(0,0,0)
(0,0,0)
(0,0,0)
(0,0,0)
(0,0,0)
(0,0,0)
(0,0,0)
(0,0,0)
(0,0,0)
(0,0,0)
(0,0,0)
(0,0,0)
(0,0,0)
(0,0,0)
(0,0,0)
(0,0,0)
(0,0,0)
(0,0,0)
(0,0,0)
(0,0,0)
(0,0,0)
(0,0,0)
(0,0,0)
(0,0,0)
(0,0,0)
(0,0,0)
(0,0,0)
(0,0,0)
(0,0,0)
(0,0,0)
(0,0,0)
(0,0,0)
(0,0,0)
(0,0,0)
(0,0,0)
(0,0,0)
(0,0,0)
(0,0,0)
(0,0,0)
(0,0,0)
(0,0,0)
(0,0,0)
(0,0,0)
(0,0,0)
(0,0,0)
(0,0,0)
(0,0,0)
(0,0,0)
(0,0,0)
(0,0,0)
(0,0,0)
(0,0,0)
(0,0,0)
(0,0,0)
(0,0,0)
(0,0,0)
(0,0,0)
(0,0,0)
(0,0,0)
(0,0,0)
(0,0,0)
(0,0,0)
(0,0,0)
(0,0,0)
(0,0,0)
(0,0,0)
(0,0,0)
(0,0,0)
(0,0,0)
(0,0,0)
(0,0,0)
(0,0,0)
(0,0,0)
(0,0,0)
(0,0,0)
(0,0,0)
(0,0,0)
(0,0,0)
(210.336457167081,-36.2869896813121,-132.905861287799)
(203.621438250438,-42.9772275842574,-250.719565658682)
(251.070325239321,-62.3212513900955,-337.980895699981)
(308.163209473333,-77.5239471024106,-395.356592475241)
(270.562634097797,-80.0803041072819,-471.336931661099)
(95.215606228438,-91.3102968759926,-524.304827684209)
(-175.97339944876,-122.106841770275,-587.077576614821)
(-485.419456951551,-99.1691909893847,-876.002383163974)
(-818.62060332723,-37.7412150516398,-1670.66872313231)
(-858.579762097606,-0.339531292485115,-3156.80593447356)
(0,0,0)
(0,0,0)
(0,0,0)
(0,0,0)
(0,0,0)
(0,0,0)
(221.955595220018,-74.762525965519,-130.499465762293)
(231.924355630202,-101.10583102884,-238.141513261085)
(267.308527810109,-129.666363284115,-312.351634850456)
(283.469250847491,-165.741941838351,-355.399695410972)
(219.639860950382,-176.925602924543,-396.37785157022)
(28.7190673673464,-191.885136119789,-426.403211697597)
(-242.74061545467,-239.094096616207,-492.22519503387)
(-543.337604581071,-196.206570372717,-793.829484394914)
(-848.096250798567,-81.7731839092483,-1603.76634221287)
(-868.084918659143,-11.0152205774967,-3095.98140642018)
(0,0,0)
(0,0,0)
(0,0,0)
(0,0,0)
(0,0,0)
(0,0,0)
(210.428807559099,-109.553619671942,-112.843263081975)
(230.522377987941,-153.159065324351,-214.352845024241)
(227.820972809772,-175.879670757446,-274.101234093769)
(194.674736412759,-224.603338147824,-306.970686836542)
(89.1123350020157,-239.813158246641,-334.362844546673)
(-110.317734375361,-267.297229394411,-348.8076425244)
(-380.20671580725,-381.929669346689,-353.297211746313)
(-611.801682733313,-300.365963610218,-650.914328243505)
(-844.22131871816,-96.2043445860491,-1519.48708254869)
(-868.203302417656,-10.5753957326642,-3049.72928190823)
(0,0,0)
(0,0,0)
(0,0,0)
(0,0,0)
(0,0,0)
(0,0,0)
(181.996123041313,-160.310789287435,-93.6860258681619)
(172.747653942596,-204.134387142614,-184.145317390222)
(109.374301069542,-210.498729857621,-224.78237472094)
(47.959306590744,-234.885209302286,-273.972519016395)
(-42.1649237488229,-253.755946493485,-330.626312282606)
(-215.207114653257,-306.205907297785,-393.525168829798)
(-701.330605128271,-637.751236064824,-165.921083583296)
(-737.707057816129,-463.848690473872,-419.766874700474)
(-758.617044655401,-29.8139298315032,-1470.60327391876)
(-841.191892422361,7.71724205899263,-3057.21395149614)
(0,0,0)
(0,0,0)
(0,0,0)
(0,0,0)
(0,0,0)
(0,0,0)
(87.1444547119182,-217.37613864073,-90.5640823794269)
(60.8756299823011,-264.667089648544,-155.944659593586)
(-7.68163086644109,-262.62953015875,-166.824691308869)