/*--------------------------------*- C++ -*----------------------------------*\
| =========                 |                                                 |
| \\      /  F ield         | foam-extend: Open Source CFD                    |
|  \\    /   O peration     | Version:     4.0                                |
|   \\  /    A nd           | Web:         http://www.foam-extend.org         |
|    \\/     M anipulation  |                                                 |
\*---------------------------------------------------------------------------*/
FoamFile
{
    version 2.0;
    format ascii;
    class volVectorField;
    location "2363";
    object      E;
}
// * * * * * * * * * * * * * * * * * * * * * * * * * * * * * * * * * * * * * //

dimensions      [0 1 -1 0 0 0 0];

internalField   nonuniform List<vector>
4096
(
(0,0,0)
(0,0,0)
(0,0,0)
(0,0,0)
(0,0,0)
(0,0,0)
(0,0,0)
(0,0,0)
(0,0,0)
(0,0,0)
(0,0,0)
(0,0,0)
(0,0,0)
(0,0,0)
(0,0,0)
(0,0,0)
(0,0,0)
(0,0,0)
(0,0,0)
(0,0,0)
(0,0,0)
(0,0,0)
(0,0,0)
(0,0,0)
(0,0,0)
(0,0,0)
(0,0,0)
(0,0,0)
(0,0,0)
(0,0,0)
(0,0,0)
(0,0,0)
(0,0,0)
(0,0,0)
(0,0,0)
(0,0,0)
(0,0,0)
(0,0,0)
(0,0,0)
(0,0,0)
(0,0,0)
(0,0,0)
(0,0,0)
(0,0,0)
(0,0,0)
(0,0,0)
(0,0,0)
(0,0,0)
(0,0,0)
(0,0,0)
(0,0,0)
(0,0,0)
(0,0,0)
(0,0,0)
(0,0,0)
(0,0,0)
(0,0,0)
(0,0,0)
(0,0,0)
(0,0,0)
(0,0,0)
(0,0,0)
(0,0,0)
(0,0,0)
(0,0,0)
(0,0,0)
(0,0,0)
(0,0,0)
(0,0,0)
(0,0,0)
(0,0,0)
(0,0,0)
(0,0,0)
(0,0,0)
(0,0,0)
(0,0,0)
(0,0,0)
(0,0,0)
(0,0,0)
(0,0,0)
(0,0,0)
(0,0,0)
(0,0,0)
(0,0,0)
(0,0,0)
(0,0,0)
(0,0,0)
(0,0,0)
(0,0,0)
(0,0,0)
(0,0,0)
(0,0,0)
(0,0,0)
(0,0,0)
(0,0,0)
(0,0,0)
(0,0,0)
(0,0,0)
(0,0,0)
(0,0,0)
(0,0,0)
(0,0,0)
(0,0,0)
(0,0,0)
(0,0,0)
(0,0,0)
(0,0,0)
(0,0,0)
(0,0,0)
(0,0,0)
(0,0,0)
(0,0,0)
(0,0,0)
(0,0,0)
(0,0,0)
(0,0,0)
(0,0,0)
(0,0,0)
(0,0,0)
(0,0,0)
(0,0,0)
(0,0,0)
(0,0,0)
(0,0,0)
(0,0,0)
(0,0,0)
(0,0,0)
(0,0,0)
(0,0,0)
(0,0,0)
(0,0,0)
(0,0,0)
(0,0,0)
(0,0,0)
(0,0,0)
(0,0,0)
(0,0,0)
(0,0,0)
(0,0,0)
(0,0,0)
(0,0,0)
(0,0,0)
(0,0,0)
(0,0,0)
(0,0,0)
(0,0,0)
(0,0,0)
(0,0,0)
(0,0,0)
(0,0,0)
(0,0,0)
(0,0,0)
(0,0,0)
(0,0,0)
(0,0,0)
(0,0,0)
(0,0,0)
(0,0,0)
(0,0,0)
(0,0,0)
(0,0,0)
(0,0,0)
(0,0,0)
(0,0,0)
(0,0,0)
(0,0,0)
(0,0,0)
(0,0,0)
(0,0,0)
(0,0,0)
(0,0,0)
(0,0,0)
(0,0,0)
(0,0,0)
(0,0,0)
(0,0,0)
(0,0,0)
(0,0,0)
(0,0,0)
(0,0,0)
(0,0,0)
(0,0,0)
(0,0,0)
(0,0,0)
(0,0,0)
(0,0,0)
(0,0,0)
(0,0,0)
(0,0,0)
(0,0,0)
(0,0,0)
(0,0,0)
(0,0,0)
(0,0,0)
(0,0,0)
(0,0,0)
(0,0,0)
(0,0,0)
(0,0,0)
(0,0,0)
(0,0,0)
(0,0,0)
(0,0,0)
(0,0,0)
(0,0,0)
(0,0,0)
(0,0,0)
(0,0,0)
(0,0,0)
(0,0,0)
(0,0,0)
(0,0,0)
(0,0,0)
(0,0,0)
(0,0,0)
(0,0,0)
(0,0,0)
(0,0,0)
(0,0,0)
(0,0,0)
(0,0,0)
(0,0,0)
(0,0,0)
(0,0,0)
(0,0,0)
(0,0,0)
(0,0,0)
(0,0,0)
(0,0,0)
(0,0,0)
(0,0,0)
(0,0,0)
(0,0,0)
(0,0,0)
(0,0,0)
(0,0,0)
(0,0,0)
(0,0,0)
(0,0,0)
(0,0,0)
(0,0,0)
(0,0,0)
(0,0,0)
(0,0,0)
(0,0,0)
(0,0,0)
(0,0,0)
(0,0,0)
(0,0,0)
(0,0,0)
(0,0,0)
(0,0,0)
(0,0,0)
(0,0,0)
(0,0,0)
(0,0,0)
(0,0,0)
(0,0,0)
(0,0,0)
(0,0,0)
(0,0,0)
(0,0,0)
(0,0,0)
(0,0,0)
(0,0,0)
(0,0,0)
(0,0,0)
(0,0,0)
(0,0,0)
(0,0,0)
(0,0,0)
(0,0,0)
(0,0,0)
(0,0,0)
(0,0,0)
(0,0,0)
(0,0,0)
(0,0,0)
(0,0,0)
(0,0,0)
(0,0,0)
(0,0,0)
(0,0,0)
(0,0,0)
(0,0,0)
(0,0,0)
(0,0,0)
(0,0,0)
(0,0,0)
(0,0,0)
(0,0,0)
(0,0,0)
(0,0,0)
(0,0,0)
(0,0,0)
(0,0,0)
(0,0,0)
(0,0,0)
(0,0,0)
(0,0,0)
(0,0,0)
(0,0,0)
(0,0,0)
(0,0,0)
(0,0,0)
(0,0,0)
(0,0,0)
(0,0,0)
(0,0,0)
(0,0,0)
(0,0,0)
(0,0,0)
(0,0,0)
(0,0,0)
(0,0,0)
(0,0,0)
(0,0,0)
(0,0,0)
(0,0,0)
(0,0,0)
(0,0,0)
(0,0,0)
(0,0,0)
(0,0,0)
(0,0,0)
(0,0,0)
(0,0,0)
(0,0,0)
(0,0,0)
(0,0,0)
(0,0,0)
(0,0,0)
(0,0,0)
(0,0,0)
(0,0,0)
(0,0,0)
(0,0,0)
(0,0,0)
(0,0,0)
(0,0,0)
(0,0,0)
(0,0,0)
(0,0,0)
(0,0,0)
(0,0,0)
(0,0,0)
(0,0,0)
(0,0,0)
(0,0,0)
(0,0,0)
(0,0,0)
(0,0,0)
(0,0,0)
(0,0,0)
(0,0,0)
(0,0,0)
(0,0,0)
(0,0,0)
(0,0,0)
(0,0,0)
(0,0,0)
(0,0,0)
(0,0,0)
(0,0,0)
(0,0,0)
(0,0,0)
(0,0,0)
(0,0,0)
(0,0,0)
(0,0,0)
(0,0,0)
(0,0,0)
(0,0,0)
(0,0,0)
(0,0,0)
(0,0,0)
(0,0,0)
(0,0,0)
(0,0,0)
(0,0,0)
(0,0,0)
(0,0,0)
(0,0,0)
(0,0,0)
(0,0,0)
(0,0,0)
(0,0,0)
(0,0,0)
(0,0,0)
(0,0,0)
(0,0,0)
(0,0,0)
(0,0,0)
(0,0,0)
(0,0,0)
(0,0,0)
(0,0,0)
(0,0,0)
(0,0,0)
(0,0,0)
(0,0,0)
(0,0,0)
(0,0,0)
(0,0,0)
(0,0,0)
(0,0,0)
(0,0,0)
(0,0,0)
(0,0,0)
(0,0,0)
(0,0,0)
(0,0,0)
(0,0,0)
(0,0,0)
(0,0,0)
(0,0,0)
(0,0,0)
(0,0,0)
(0,0,0)
(0,0,0)
(0,0,0)
(0,0,0)
(0,0,0)
(0,0,0)
(0,0,0)
(0,0,0)
(0,0,0)
(0,0,0)
(0,0,0)
(0,0,0)
(0,0,0)
(0,0,0)
(0,0,0)
(0,0,0)
(0,0,0)
(0,0,0)
(0,0,0)
(0,0,0)
(0,0,0)
(0,0,0)
(0,0,0)
(0,0,0)
(0,0,0)
(0,0,0)
(0,0,0)
(0,0,0)
(0,0,0)
(0,0,0)
(0,0,0)
(0,0,0)
(0,0,0)
(0,0,0)
(0,0,0)
(0,0,0)
(0,0,0)
(0,0,0)
(0,0,0)
(0,0,0)
(0,0,0)
(0,0,0)
(0,0,0)
(0,0,0)
(0,0,0)
(0,0,0)
(0,0,0)
(0,0,0)
(0,0,0)
(0,0,0)
(0,0,0)
(0,0,0)
(0,0,0)
(0,0,0)
(0,0,0)
(0,0,0)
(0,0,0)
(0,0,0)
(0,0,0)
(0,0,0)
(0,0,0)
(0,0,0)
(0,0,0)
(0,0,0)
(0,0,0)
(0,0,0)
(0,0,0)
(0,0,0)
(0,0,0)
(0,0,0)
(0,0,0)
(0,0,0)
(0,0,0)
(0,0,0)
(0,0,0)
(0,0,0)
(0,0,0)
(0,0,0)
(0,0,0)
(0,0,0)
(0,0,0)
(0,0,0)
(0,0,0)
(0,0,0)
(0,0,0)
(0,0,0)
(0,0,0)
(0,0,0)
(0,0,0)
(0,0,0)
(0,0,0)
(0,0,0)
(0,0,0)
(0,0,0)
(0,0,0)
(0,0,0)
(0,0,0)
(0,0,0)
(0,0,0)
(0,0,0)
(0,0,0)
(0,0,0)
(0,0,0)
(0,0,0)
(0,0,0)
(0,0,0)
(0,0,0)
(0,0,0)
(0,0,0)
(0,0,0)
(0,0,0)
(0,0,0)
(0,0,0)
(0,0,0)
(0,0,0)
(0,0,0)
(0,0,0)
(0,0,0)
(0,0,0)
(0,0,0)
(0,0,0)
(0,0,0)
(0,0,0)
(0,0,0)
(0,0,0)
(0,0,0)
(0,0,0)
(0,0,0)
(0,0,0)
(0,0,0)
(0,0,0)
(0,0,0)
(0,0,0)
(0,0,0)
(0,0,0)
(0,0,0)
(0,0,0)
(0,0,0)
(0,0,0)
(0,0,0)
(0,0,0)
(0,0,0)
(0,0,0)
(0,0,0)
(0,0,0)
(0,0,0)
(0,0,0)
(0,0,0)
(0,0,0)
(0,0,0)
(0,0,0)
(0,0,0)
(0,0,0)
(0,0,0)
(0,0,0)
(0,0,0)
(0,0,0)
(0,0,0)
(0,0,0)
(0,0,0)
(0,0,0)
(0,0,0)
(0,0,0)
(0,0,0)
(0,0,0)
(0,0,0)
(0,0,0)
(0,0,0)
(0,0,0)
(0,0,0)
(0,0,0)
(0,0,0)
(0,0,0)
(0,0,0)
(0,0,0)
(0,0,0)
(0,0,0)
(0,0,0)
(0,0,0)
(0,0,0)
(0,0,0)
(0,0,0)
(0,0,0)
(0,0,0)
(0,0,0)
(0,0,0)
(0,0,0)
(0,0,0)
(0,0,0)
(0,0,0)
(0,0,0)
(0,0,0)
(0,0,0)
(0,0,0)
(0,0,0)
(0,0,0)
(0,0,0)
(0,0,0)
(0,0,0)
(0,0,0)
(0,0,0)
(0,0,0)
(0,0,0)
(0,0,0)
(0,0,0)
(0,0,0)
(0,0,0)
(0,0,0)
(0,0,0)
(0,0,0)
(0,0,0)
(0,0,0)
(0,0,0)
(0,0,0)
(0,0,0)
(0,0,0)
(0,0,0)
(0,0,0)
(0,0,0)
(0,0,0)
(0,0,0)
(0,0,0)
(0,0,0)
(0,0,0)
(0,0,0)
(0,0,0)
(0,0,0)
(0,0,0)
(0,0,0)
(0,0,0)
(0,0,0)
(0,0,0)
(0,0,0)
(0,0,0)
(0,0,0)
(0,0,0)
(0,0,0)
(0,0,0)
(0,0,0)
(0,0,0)
(0,0,0)
(0,0,0)
(0,0,0)
(0,0,0)
(0,0,0)
(0,0,0)
(0,0,0)
(0,0,0)
(0,0,0)
(0,0,0)
(0,0,0)
(0,0,0)
(0,0,0)
(0,0,0)
(0,0,0)
(0,0,0)
(0,0,0)
(0,0,0)
(0,0,0)
(0,0,0)
(0,0,0)
(0,0,0)
(0,0,0)
(0,0,0)
(0,0,0)
(0,0,0)
(0,0,0)
(0,0,0)
(0,0,0)
(0,0,0)
(0,0,0)
(0,0,0)
(0,0,0)
(0,0,0)
(0,0,0)
(0,0,0)
(0,0,0)
(0,0,0)
(0,0,0)
(0,0,0)
(0,0,0)
(0,0,0)
(0,0,0)
(0,0,0)
(0,0,0)
(0,0,0)
(0,0,0)
(0,0,0)
(0,0,0)
(0,0,0)
(0,0,0)
(0,0,0)
(0,0,0)
(0,0,0)
(0,0,0)
(0,0,0)
(0,0,0)
(0,0,0)
(0,0,0)
(0,0,0)
(0,0,0)
(0,0,0)
(0,0,0)
(0,0,0)
(0,0,0)
(0,0,0)
(0,0,0)
(0,0,0)
(0,0,0)
(0,0,0)
(0,0,0)
(0,0,0)
(0,0,0)
(0,0,0)
(0,0,0)
(0,0,0)
(0,0,0)
(0,0,0)
(0,0,0)
(0,0,0)
(0,0,0)
(0,0,0)
(0,0,0)
(0,0,0)
(0,0,0)
(0,0,0)
(0,0,0)
(0,0,0)
(0,0,0)
(0,0,0)
(0,0,0)
(0,0,0)
(0,0,0)
(0,0,0)
(0,0,0)
(0,0,0)
(0,0,0)
(0,0,0)
(0,0,0)
(0,0,0)
(0,0,0)
(0,0,0)
(0,0,0)
(0,0,0)
(0,0,0)
(0,0,0)
(0,0,0)
(0,0,0)
(0,0,0)
(0,0,0)
(0,0,0)
(0,0,0)
(0,0,0)
(0,0,0)
(0,0,0)
(0,0,0)
(0,0,0)
(0,0,0)
(0,0,0)
(0,0,0)
(0,0,0)
(0,0,0)
(0,0,0)
(0,0,0)
(0,0,0)
(0,0,0)
(0,0,0)
(0,0,0)
(0,0,0)
(0,0,0)
(0,0,0)
(0,0,0)
(0,0,0)
(0,0,0)
(0,0,0)
(0,0,0)
(0,0,0)
(0,0,0)
(0,0,0)
(0,0,0)
(0,0,0)
(0,0,0)
(0,0,0)
(0,0,0)
(0,0,0)
(0,0,0)
(0,0,0)
(0,0,0)
(0,0,0)
(0,0,0)
(0,0,0)
(0,0,0)
(0,0,0)
(0,0,0)
(0,0,0)
(0,0,0)
(0,0,0)
(0,0,0)
(0,0,0)
(0,0,0)
(0,0,0)
(-128330.220485664,68515.3701273009,59814.8503583614)
(-135736.392717337,65674.1545807495,129877.088494949)
(-152864.952456543,59785.3913111622,222956.64964033)
(-185160.48616571,50537.0238689495,357580.111937097)
(-243411.300150649,38022.2528487805,562969.159238973)
(-348011.460280199,23689.175142537,887291.444376629)
(-537428.899564942,10667.9548261425,1414052.38911545)
(-879751.890115943,2734.59567150363,2291069.68355993)
(-1450964.87244413,45.5029524286508,3741989.0530516)
(-2021640.38214687,-192.734305394631,5763822.1695039)
(0,0,0)
(0,0,0)
(0,0,0)
(0,0,0)
(0,0,0)
(0,0,0)
(-135747.703030102,147227.746501863,57035.326655538)
(-143224.807593093,141845.97618789,124088.312641496)
(-160615.498570627,130653.315022111,213835.88750117)
(-193671.89673675,112796.705751404,345248.102355472)
(-253551.719883743,88092.9166327915,548729.158455192)
(-360651.612337669,58774.3727702889,874295.573165109)
(-552154.244022287,31035.2943414792,1406082.47767206)
(-893160.481735458,13531.8148879091,2288445.74019103)
(-1459887.77359941,6584.93046020252,3741794.08628272)
(-2025786.63052757,3355.27940983047,5764032.70309499)
(0,0,0)
(0,0,0)
(0,0,0)
(0,0,0)
(0,0,0)
(0,0,0)
(-152664.975170508,248095.158297629,51797.5633747414)
(-160277.036683051,240872.466531609,113048.109714077)
(-178217.259464217,225702.591496415,196216.092703995)
(-212926.697297309,201069.63946229,320869.85629042)
(-276633.385885724,165922.617928622,519673.5408803)
(-390378.415232208,122015.249961731,846811.078921066)
(-588479.043404353,77592.6308533506,1388732.78581356)
(-926599.688630293,47147.5071276208,2281716.78220412)
(-1481404.88814186,31005.1419862653,3738701.45881995)
(-2035513.67055302,16767.8151291387,5760802.59365372)
(0,0,0)
(0,0,0)
(0,0,0)
(0,0,0)
(0,0,0)
(0,0,0)
(-184126.110250899,387459.523899484,44761.7446490454)
(-191852.8369509,379441.333357593,98045.7147739627)
(-210482.318422923,362423.565771519,171807.058921776)
(-247612.250381778,334458.595468078,286030.353297758)
(-317659.847894277,293479.94918052,476132.869940145)
(-444186.118453468,239598.588690369,802735.649664979)
(-658003.019011637,179826.056111611,1358505.24341835)
(-991260.770614963,131075.016263793,2265838.50489708)
(-1520841.36063204,93056.4936074072,3724628.51390793)
(-2052720.22622155,50030.8533391985,5744085.70191956)
(0,0,0)
(0,0,0)
(0,0,0)
(0,0,0)
(0,0,0)
(0,0,0)
(-240558.269290783,591165.413001333,36852.3801889303)
(-248260.858099749,583400.531698376,81154.0399478932)
(-267270.070406253,566882.119219411,143965.556906255)
(-306429.452736073,539596.814441359,245256.790669046)
(-383012.909668635,499193.348353317,422556.301164887)
(-525356.92205035,444286.495609543,743225.316296038)
(-763921.916337647,377026.457745877,1309946.83099942)
(-1089738.69955772,302732.934691091,2228027.61212986)
(-1578161.38632998,217513.881648975,3681731.61041834)
(-2077577.12786761,115248.362187276,5694091.22943785)
(0,0,0)
(0,0,0)
(0,0,0)
(0,0,0)
(0,0,0)
(0,0,0)
(-342555.916020961,904629.399460799,29091.9295614988)
(-349891.581655097,897713.483968079,64670.5589468891)
(-368293.676662619,883011.057476069,116835.29735285)
(-407077.388238726,858453.765776536,205055.734256396)
(-484482.122159315,820848.36820133,367882.836567703)
(-629540.821576916,765468.350588822,676241.80316536)
(-868852.12313487,686195.962109856,1235924.42193626)
(-1179871.08746235,575456.138270671,2143072.30581903)
(-1640293.15165492,421258.14314486,3579621.19597813)
(-2108891.16653226,224870.305016149,5578890.41968136)
(0,0,0)
(0,0,0)
(0,0,0)
(0,0,0)
(0,0,0)
(0,0,0)
(-529816.539341389,1412273.44010081,22172.4987013781)
(-536324.001370486,1406278.02820341,49931.9558365451)
(-552860.56508927,1393457.32974567,92346.2486562238)
(-588307.909710904,1371544.36954391,167563.554599758)
(-660228.317927777,1335946.41532665,312693.825402212)
(-796544.210975223,1277453.23388699,597253.153079267)
(-1021142.830443,1179135.3735315,1125456.57210063)
(-1303940.65816843,1015750.65224157,1989102.71629817)
(-1732886.49533268,759927.279722621,3383320.07505304)
(-2159977.31672,414075.972655305,5354091.72413401)
(0,0,0)
(0,0,0)
(0,0,0)
(0,0,0)
(0,0,0)
(0,0,0)
(-872347.173184319,2268389.26570733,16231.3475777977)
(-877570.091731634,2262955.77534309,37123.6921697578)
(-890918.456320068,2251027.36463997,70472.1135955324)
(-919755.768260636,2229712.60596842,132059.645431642)
(-978863.31341085,2192469.50404567,254399.870123465)
(-1092188.75147685,2124804.1640488,499237.691438486)
(-1280278.19186728,1996300.55135578,962350.705481466)
(-1509201.15854236,1753875.66207145,1733426.85419396)
(-1900934.68344811,1356813.11054809,3037475.7068166)
(-2257625.00656119,769080.163081772,4940096.52295126)
(0,0,0)
(0,0,0)
(0,0,0)
(0,0,0)
(0,0,0)
(0,0,0)
(-1445913.82106377,3703459.48406372,10843.6027073404)
(-1449500.14876467,3698036.91225556,25262.6145595568)
(-1458594.81360211,3685614.13953261,49270.6532689833)
(-1477999.32043967,3662007.80328147,94974.7763955891)
(-1517041.59088153,3617514.19171853,186971.679604253)
(-1590365.78654526,3531088.73633267,371052.893865643)
(-1713475.07472251,3360656.33452288,720172.185421063)
(-1896317.72234306,3033830.00249484,1336535.56734074)
(-2210848.44772618,2454316.49134073,2449880.6342742)
(-2427907.00618143,1475671.49667258,4171196.30686484)
(0,0,0)
(0,0,0)
(0,0,0)
(0,0,0)
(0,0,0)
(0,0,0)
(-2019307.17484376,5717281.43185219,5485.22705532733)
(-2021099.87742551,5711644.90168978,12977.1150466061)
(-2025613.46753858,5698385.72739389,25818.9947239492)
(-2035147.83013444,5672301.31390492,50673.3142349876)
(-2054047.99207045,5621405.93279271,100829.565231282)
(-2089361.79762247,5520307.52808257,200972.571103833)
(-2150974.12999708,5318972.75902532,393630.276598463)
(-2254750.0700514,4924991.4534187,757218.89572596)
(-2427356.22306136,4167514.80991916,1471376.80020885)
(-2444584.87255573,2695908.46309222,2695724.70634498)
(0,0,0)
(0,0,0)
(0,0,0)
(0,0,0)
(0,0,0)
(0,0,0)
(0,0,0)
(0,0,0)
(0,0,0)
(0,0,0)
(0,0,0)
(0,0,0)
(0,0,0)
(0,0,0)
(0,0,0)
(0,0,0)
(0,0,0)
(0,0,0)
(0,0,0)
(0,0,0)
(0,0,0)
(0,0,0)
(0,0,0)
(0,0,0)
(0,0,0)
(0,0,0)
(0,0,0)
(0,0,0)
(0,0,0)
(0,0,0)
(0,0,0)
(0,0,0)
(0,0,0)
(0,0,0)
(0,0,0)
(0,0,0)
(0,0,0)
(0,0,0)
(0,0,0)
(0,0,0)
(0,0,0)
(0,0,0)
(0,0,0)
(0,0,0)
(0,0,0)
(0,0,0)
(0,0,0)
(0,0,0)
(0,0,0)
(0,0,0)
(0,0,0)
(0,0,0)
(0,0,0)
(0,0,0)
(0,0,0)
(0,0,0)
(0,0,0)
(0,0,0)
(0,0,0)
(0,0,0)
(0,0,0)
(0,0,0)
(0,0,0)
(0,0,0)
(0,0,0)
(0,0,0)
(0,0,0)
(0,0,0)
(0,0,0)
(0,0,0)
(0,0,0)
(0,0,0)
(0,0,0)
(0,0,0)
(0,0,0)
(0,0,0)
(0,0,0)
(0,0,0)
(0,0,0)
(0,0,0)
(0,0,0)
(0,0,0)
(0,0,0)
(0,0,0)
(0,0,0)
(0,0,0)
(0,0,0)
(0,0,0)
(0,0,0)
(0,0,0)
(0,0,0)
(0,0,0)
(0,0,0)
(0,0,0)
(0,0,0)
(0,0,0)
(0,0,0)
(0,0,0)
(0,0,0)
(0,0,0)
(0,0,0)
(0,0,0)
(18959671.4667244,61074.4152567512,52413.671473619)
(18947267.0772411,58143.9660933617,112756.009362221)
(18918794.7259686,51971.4164267325,190614.688450643)
(18865680.4220866,41983.9641490716,299279.589989616)
(18771123.0442037,27898.6791239995,458336.340451696)
(18602912.6426921,11057.2038361434,697844.807583511)
(18294295.5671862,-4056.53262924934,1071666.64740197)
(17684358.2709577,-10714.0156733901,1719760.27594211)
(16308028.9639813,-8928.94195131571,3171185.15540838)
(12570141.4993308,-4387.12198528686,7785280.16985638)
(0,0,0)
(0,0,0)
(0,0,0)
(0,0,0)
(0,0,0)
(0,0,0)
(18947041.6088764,130201.020082446,49573.8572082791)
(18934615.8643132,124669.579189685,106697.346146141)
(18905888.7537314,112915.644446907,180738.639764253)
(18851767.0220081,93440.2803900771,285333.17871879)
(18754600.2657588,64979.9543632648,441589.691777391)
(18581672.176346,29037.7864262738,682775.094444099)
(18268327.5359038,-5280.72628371094,1065007.28211294)
(17660939.3147812,-19933.4665008733,1721616.71036422)
(16293487.8845219,-14974.8172013586,3175776.70143316)
(12563793.6056665,-6414.5177445315,7789713.6349387)
(0,0,0)
(0,0,0)
(0,0,0)
(0,0,0)
(0,0,0)
(0,0,0)
(18918423.7409912,216405.900432775,44196.177428281)
(18905951.8412997,209039.379454839,95087.273120789)
(18876663.3120897,193174.434095551,161437.685858752)
(18820177.8563533,166172.561964293,257090.624574421)
(18716288.8560064,124782.360235324,405855.750750669)
(18529181.7666818,68154.8567967236,648668.272406652)
(18197873.1215059,8013.48477135563,1050511.67038176)
(17596277.8381099,-17572.9331038156,1726763.384185)
(16255905.2208524,-8481.01369319165,3184449.24562287)
(12548220.022657,-448.6927088453,7796239.50131765)
(0,0,0)
(0,0,0)
(0,0,0)
(0,0,0)
(0,0,0)
(0,0,0)
(18865964.5507753,330784.345132285,37020.6682146857)
(18853511.5740462,322789.476289239,79395.9343236041)
(18823516.8102352,305421.883256145,134639.130445295)
(18763299.6873899,275470.682574994,215918.846003349)
(18646993.2504811,228013.884752251,349523.997051573)
(18427798.8017785,158351.136346318,588832.571210484)
(18041354.4187647,73844.0365535956,1025134.35559241)
(17449144.8004171,32555.3639325771,1736090.26146437)
(16179971.3210271,35696.711539737,3192589.62851263)
(12519059.8009671,25156.8849874247,7796693.79756829)
(0,0,0)
(0,0,0)
(0,0,0)
(0,0,0)
(0,0,0)
(0,0,0)
(18773538.7456851,489023.596141024,29153.5079557165)
(18761368.1068339,481646.449203459,62157.3440482157)
(18731216.5360403,465775.017483763,104807.377314511)
(18667808.4833241,438899.65074906,168630.247020683)
(18537259.5816241,397711.751097146,280149.663323523)
(18269941.9856048,340095.135525833,504596.530429267)
(17759870.2675999,272103.819556009,984034.337429728)
(17176280.5913876,212615.498263958,1739444.68609354)
(16060923.8333478,155396.673854516,3182149.27804132)
(12475698.2276479,83971.4339950899,7771549.14745861)
(0,0,0)
(0,0,0)
(0,0,0)
(0,0,0)
(0,0,0)
(0,0,0)
(18608917.7756955,717233.086402004,21806.5919629965)
(18597564.8961992,711174.547142697,46311.7901098857)
(18568846.6186984,698375.307951377,78060.9782216465)
(18506571.3530217,677179.01114376,127622.650507006)
(18374465.4667858,645094.586813571,222781.999785923)
(18099460.1363021,598476.897705243,436889.053667904)
(17582899.6258485,533932.270612382,924798.627568619)
(17025125.8470597,451415.934500794,1682491.03075009)
(15959513.2264646,328697.245590602,3110873.85483488)
(12425944.0578112,173823.258349657,7687676.58007716)
(0,0,0)
(0,0,0)
(0,0,0)
(0,0,0)
(0,0,0)
(0,0,0)
(18303501.3264267,1069664.96328489,15740.0312894166)
(18293606.6047562,1064991.30522799,33482.4410179302)
(18268134.338047,1055393.51775107,56959.1020224535)
(18211582.179094,1040069.55924112,95668.2390605957)
(18088374.3627353,1017277.01880321,176372.900348331)
(17825384.3141689,981784.139513559,372626.907336223)
(17324365.1266004,919975.934672399,842565.060173125)
(16821026.8802751,810479.221804563,1560024.00836628)
(15809330.7544818,591876.766744254,2956117.01133838)
(12341040.6831734,316421.031278664,7513991.01245647)
(0,0,0)
(0,0,0)
(0,0,0)
(0,0,0)
(0,0,0)
(0,0,0)
(17692956.820527,1694758.18166268,11092.5618513158)
(17685141.1539912,1690976.93259923,23885.4626976475)
(17664822.3513173,1683315.3547531,41712.5919986955)
(17619127.3384984,1671400.21226743,72988.606153784)
(17517609.3912385,1654194.40731007,141088.286937869)
(17294521.3984107,1626523.90773743,311128.142766994)
(16855980.1909822,1562997.36847869,733338.100051618)
(16527861.463302,1366663.33093932,1341581.14301279)
(15506466.5844204,1046834.35132908,2680712.06449985)
(12144590.5016855,598741.694626338,7197665.66684594)
(0,0,0)
(0,0,0)
(0,0,0)
(0,0,0)
(0,0,0)
(0,0,0)
(16313021.6142529,3129976.13986739,7336.38041912874)
(16307721.5728488,3126320.21399552,16261.1513498307)
(16294112.2289597,3118441.01057246,29918.2269090823)
(16264205.8795219,3104657.17604545,55945.8371098748)
(16200671.3946575,3080269.60116254,113647.431658811)
(16071510.2151307,3031856.49271636,247928.618944371)
(15838724.8855272,2922963.34126124,537252.459852609)
(15511901.9980857,2675264.61852848,1021921.22577521)
(14588907.6843412,2237740.31346263,2232748.90551475)
(11547069.1578356,1458957.14129056,6599047.0687739)
(0,0,0)
(0,0,0)
(0,0,0)
(0,0,0)
(0,0,0)
(0,0,0)
(12571970.0302998,7736456.16728672,3732.54137747673)
(12569334.0681855,7732605.04726079,8503.53644154848)
(12562658.0777214,7723851.78936886,16310.9863256228)
(12548283.7862524,7707248.03272711,31778.2871977007)
(12518744.016243,7675213.76564884,65531.8883384122)
(12460702.8157261,7609432.2655265,139381.276120213)
(12353271.927568,7469758.77351458,289829.560242222)
(12147600.2619034,7179638.22269158,584595.398064797)
(11547516.0596759,6594826.18869905,1454127.01403155)
(9389203.56498104,5140486.42025021,5140299.07147543)
(0,0,0)
(0,0,0)
(0,0,0)
(0,0,0)
(0,0,0)
(0,0,0)
(0,0,0)
(0,0,0)
(0,0,0)
(0,0,0)
(0,0,0)
(0,0,0)
(0,0,0)
(0,0,0)
(0,0,0)
(0,0,0)
(0,0,0)
(0,0,0)
(0,0,0)
(0,0,0)
(0,0,0)
(0,0,0)
(0,0,0)
(0,0,0)
(0,0,0)
(0,0,0)
(0,0,0)
(0,0,0)
(0,0,0)
(0,0,0)
(0,0,0)
(0,0,0)
(0,0,0)
(0,0,0)
(0,0,0)
(0,0,0)
(0,0,0)
(0,0,0)
(0,0,0)
(0,0,0)
(0,0,0)
(0,0,0)
(0,0,0)
(0,0,0)
(0,0,0)
(0,0,0)
(0,0,0)
(0,0,0)
(0,0,0)
(0,0,0)
(0,0,0)
(0,0,0)
(0,0,0)
(0,0,0)
(0,0,0)
(0,0,0)
(0,0,0)
(0,0,0)
(0,0,0)
(0,0,0)
(0,0,0)
(0,0,0)
(0,0,0)
(0,0,0)
(0,0,0)
(0,0,0)
(0,0,0)
(0,0,0)
(0,0,0)
(0,0,0)
(0,0,0)
(0,0,0)
(0,0,0)
(0,0,0)
(0,0,0)
(0,0,0)
(0,0,0)
(0,0,0)
(0,0,0)
(0,0,0)
(0,0,0)
(0,0,0)
(0,0,0)
(0,0,0)
(0,0,0)
(0,0,0)
(0,0,0)
(0,0,0)
(0,0,0)
(0,0,0)
(0,0,0)
(0,0,0)
(0,0,0)
(0,0,0)
(0,0,0)
(0,0,0)
(0,0,0)
(0,0,0)
(0,0,0)
(0,0,0)
(0,0,0)
(0,0,0)
(-330283.753326571,48427.45908528,40037.9870252578)
(-343955.005854443,45466.8689557107,84303.4272246857)
(-374863.077697211,39031.9307326867,137439.526217513)
(-431043.618246157,28039.4625592979,204634.330050618)
(-527135.834021163,11377.5584419026,290025.875893155)
(-687456.542830366,-10174.7964847123,389080.083960065)
(-949676.51268499,-29990.9040218916,461553.293912755)
(-1364711.27066495,-34121.9312937052,343254.992888731)
(-1959835.56414829,-23465.8120917658,-566904.440830322)
(-2402438.46339181,-10732.5071306356,-4785081.74491733)
(0,0,0)
(0,0,0)
(0,0,0)
(0,0,0)
(0,0,0)
(0,0,0)
(-344733.966783675,101544.991995582,37168.2688092967)
(-358183.050979026,95968.9497382905,77975.3293784625)
(-388783.703681002,83640.8880765252,126549.055506711)
(-445010.869550506,61793.7456091349,188082.890075085)
(-542592.675358839,26617.0041142946,268546.611579929)
(-707272.148737209,-23479.8345056776,369306.200743601)
(-975622.290661759,-75699.3959744894,457474.745321313)
(-1386629.68107593,-84561.9180043656,353993.953948631)
(-1970808.12648413,-52534.0382029966,-554131.582874347)
(-2406300.4678043,-21970.4509788036,-4774289.33949575)
(0,0,0)
(0,0,0)
(0,0,0)
(0,0,0)
(0,0,0)
(0,0,0)
(-376965.846068587,163705.678880476,31739.1262345765)
(-389982.263842909,156358.291858437,65794.1153166241)
(-420044.81751029,139784.329827608,104869.029225001)
(-476811.587072343,109088.309793619,153074.134525672)
(-579438.247026187,55325.4955063782,218602.972225738)
(-761102.324058404,-33325.2283320603,317242.682851881)
(-1062307.80373855,-148551.218175091,448785.656356509)
(-1462477.38695082,-164721.72074284,386210.910215197)
(-2004050.92301159,-84406.4304903366,-523450.327573736)
(-2416945.31859397,-29573.4784361297,-4752171.73280589)
(0,0,0)
(0,0,0)
(0,0,0)
(0,0,0)
(0,0,0)
(0,0,0)
(-434434.345941286,238044.771333077,24570.0303235892)
(-446786.869076627,230337.716119169,49399.2752452696)
(-476005.305929923,212833.055308431,74382.8919891627)
(-533964.4425959,179755.131817898,99490.4260102485)
(-648015.317008775,118142.239759678,130192.475306301)
(-879545.990844377,449.319360104187,202272.946296554)
(-1331579.64995844,-207642.227889647,432808.250793749)
(-1710692.90169866,-240293.673757983,466728.131984251)
(-2087322.20716019,-83343.9785378125,-468530.565721354)
(-2439767.91799307,-18199.4504379161,-4722566.64869993)
(0,0,0)
(0,0,0)
(0,0,0)
(0,0,0)
(0,0,0)
(0,0,0)
(-531045.862856757,324134.340649185,17005.2652854034)
(-542408.757532017,317591.285924991,32038.7859051264)
(-570004.983310263,303170.36564392,41433.2209797294)
(-628004.732506092,277491.038850072,38020.7558373363)
(-755619.317726249,234810.421007201,12741.6999996976)
(-1082342.4277204,169553.787688387,-5568.12894379488)
(-2150301.35308803,95143.5388846962,400327.951029348)
(-2550529.94363453,61484.0032554209,623871.035097605)
(-2250739.96471974,54017.5407884727,-403316.460101512)
(-2477211.26947174,34266.5406305524,-4704362.72799066)
(0,0,0)
(0,0,0)
(0,0,0)
(0,0,0)
(0,0,0)
(0,0,0)
(-690506.254297409,411572.518620327,10496.0780813327)
(-700460.748506561,406985.751326304,17637.4834453643)
(-725184.100596831,397487.779967331,15861.0144767891)
(-779163.965018154,382067.863826865,-4470.26640063379)
(-903314.118761053,358890.629991296,-52260.6637783274)
(-1229291.22171115,324295.963253215,-79741.2552703071)
(-2245403.57992397,275375.229395147,366840.486051238)
(-2611987.55556739,247331.529809036,616616.588184305)
(-2326933.50918173,178560.060858351,-422968.970179676)
(-2514691.25723724,88976.726909716,-4738533.61535064)
(0,0,0)
(0,0,0)
(0,0,0)
(0,0,0)
(0,0,0)
(0,0,0)
(-951242.60239303,458928.852897275,5897.82060238236)
(-959446.06310519,456360.117708991,8086.3481405964)
(-980280.715480714,451970.299696093,529.107999041291)
(-1027366.15479393,447509.057785817,-27453.526012384)
(-1141416.32338872,446354.853971883,-86616.8378093903)
(-1460703.03584111,450740.678850426,-128463.977336914)
(-2520716.4595,451493.213583252,339009.850635081)
(-2859475.89375278,517289.375442501,548065.005089073)
(-2442103.63261937,289010.694903614,-512441.015795265)
(-2576546.22908225,119964.974931724,-4827332.12550215)
(0,0,0)
(0,0,0)
(0,0,0)
(0,0,0)
(0,0,0)
(0,0,0)
(-1367559.09468665,314621.18592465,3333.80824584991)
(-1373729.18044584,313400.136071379,3674.35038009645)
(-1389659.26664526,312488.070169776,-3851.57607146749)
(-1426625.88169907,316347.778386649,-28426.8504152587)
(-1521048.49413844,337069.41746324,-81973.3024699736)
(-1814020.96909732,403289.827535503,-127469.857587567)
(-2972094.66966789,545579.467836148,405028.97486924)
(-2421861.00460981,350579.341401689,319971.702881504)
(-2533844.44075237,129175.051417531,-681371.402399993)
(-2672285.23107669,1138.89821991235,-4947159.36686638)
(0,0,0)
(0,0,0)
(0,0,0)
(0,0,0)
(0,0,0)
(0,0,0)
(-1964709.13558943,-611250.645511931,2112.80733838531)
(-1968730.90761563,-612280.247311184,2755.89724490884)
(-1978966.13331426,-613271.727952978,104.283701215646)
(-2001740.16856728,-611563.485496802,-7528.17826653796)
(-2053782.26579918,-601984.915736157,-15509.9585508769)
(-2178024.91614514,-579277.506638639,15102.7329586397)
(-2449585.03940322,-562762.771071683,210265.122856401)
(-2538228.86108011,-689257.41983741,98742.9693207704)
(-2771557.65546069,-803830.616267592,-809275.797132674)
(-2815336.61586923,-699017.124556893,-4948203.77459148)
(0,0,0)
(0,0,0)
(0,0,0)
(0,0,0)
(0,0,0)
(0,0,0)
(-2406217.06815217,-4835703.05341929,1149.73241892602)
(-2408179.67415646,-4836991.15048326,1884.60399251856)
(-2413081.43878457,-4839122.6625458,1985.28115088019)
(-2423624.08786204,-4841419.43561305,2259.33144096809)
(-2446000.51571724,-4843954.32648359,7483.50020825528)
(-2492801.41172232,-4851700.30362677,31920.7507043002)
(-2579219.53168816,-4883892.28796505,84051.9529134663)
(-2675263.43248755,-4968241.33317108,-15590.2133024244)
(-2816212.43499334,-4952906.93493963,-704275.173901609)
(-2717734.01542704,-4248838.31423708,-4249006.17775373)
(0,0,0)
(0,0,0)
(0,0,0)
(0,0,0)
(0,0,0)
(0,0,0)
(0,0,0)
(0,0,0)
(0,0,0)
(0,0,0)
(0,0,0)
(0,0,0)
(0,0,0)
(0,0,0)
(0,0,0)
(0,0,0)
(0,0,0)
(0,0,0)
(0,0,0)
(0,0,0)
(0,0,0)
(0,0,0)
(0,0,0)
(0,0,0)
(0,0,0)
(0,0,0)
(0,0,0)
(0,0,0)
(0,0,0)
(0,0,0)
(0,0,0)
(0,0,0)
(0,0,0)
(0,0,0)
(0,0,0)
(0,0,0)
(0,0,0)
(0,0,0)
(0,0,0)
(0,0,0)
(0,0,0)
(0,0,0)
(0,0,0)
(0,0,0)
(0,0,0)
(0,0,0)
(0,0,0)
(0,0,0)
(0,0,0)
(0,0,0)
(0,0,0)
(0,0,0)
(0,0,0)
(0,0,0)
(0,0,0)
(0,0,0)
(0,0,0)
(0,0,0)
(0,0,0)
(0,0,0)
(0,0,0)
(0,0,0)
(0,0,0)
(0,0,0)
(0,0,0)
(0,0,0)
(0,0,0)
(0,0,0)
(0,0,0)
(0,0,0)
(0,0,0)
(0,0,0)
(0,0,0)
(0,0,0)
(0,0,0)
(0,0,0)
(0,0,0)
(0,0,0)
(0,0,0)
(0,0,0)
(0,0,0)
(0,0,0)
(0,0,0)
(0,0,0)
(0,0,0)
(0,0,0)
(0,0,0)
(0,0,0)
(0,0,0)
(0,0,0)
(0,0,0)
(0,0,0)
(0,0,0)
(0,0,0)
(0,0,0)
(0,0,0)
(0,0,0)
(0,0,0)
(0,0,0)
(0,0,0)
(0,0,0)
(0,0,0)
(-390583.952735575,33921.5169839276,26378.6824250781)
(-402205.00121309,31229.2386271955,53399.4391565339)
(-427792.757149156,25133.5970012498,81195.5216072301)
(-472355.090988431,14081.9414495768,108425.052899924)
(-544195.081332173,-4051.02138242555,129535.32159336)
(-654639.584428016,-29951.4587609607,126669.821951974)
(-813423.726849393,-55902.0682640972,46319.1043804754)
(-1010300.50426961,-56005.7161677831,-252085.945847086)
(-1167729.96696959,-34414.7499087871,-1009776.79311698)
(-1014701.82614685,-14578.6571270505,-2382934.77323488)
(0,0,0)
(0,0,0)
(0,0,0)
(0,0,0)
(0,0,0)
(0,0,0)
(-403723.746793031,69174.4229093494,23736.8740839324)
(-414695.105079785,64091.0678354126,47387.0989764743)
(-438855.584728419,52343.127987036,70249.4490381087)
(-481050.247489704,29952.665475524,90418.1029513556)
(-549651.4331436,-10283.1556320812,103708.994985775)
(-656927.041506171,-77345.8831614152,100758.312155199)
(-814661.738988543,-162384.428977326,46280.1211952191)
(-1005536.92160803,-160386.991970251,-230431.362470211)
(-1159975.82463995,-85757.5626298428,-989920.851593327)
(-1009921.45513519,-32586.7632793006,-2368291.75811024)
(0,0,0)
(0,0,0)
(0,0,0)
(0,0,0)
(0,0,0)
(0,0,0)
(-432457.959761637,105901.813929425,18764.7226729788)
(-442185.038865345,99274.1295629502,35784.4359678732)
(-463544.409754469,83575.0461974171,48052.1100016707)
(-500877.160587376,51721.0469199104,50349.3020723213)
(-562643.368820895,-13491.0512981091,36762.3195330548)
(-665548.308821247,-151957.549203751,15819.9703382216)
(-839371.968816825,-417917.514948023,48417.2213871942)
(-1005835.96262824,-412968.661900235,-155642.533005416)
(-1141129.41984053,-167682.419228681,-936639.179577626)
(-998274.012806799,-52383.7071593035,-2335513.5414848)
(0,0,0)
(0,0,0)
(0,0,0)
(0,0,0)
(0,0,0)
(0,0,0)
(-481873.52335581,141063.889326487,12277.1020174691)
(-489863.454250384,134392.457684496,20235.3590696843)
(-507111.328878079,118516.928402214,16399.4998130466)
(-536576.983007538,85421.9147246564,-14688.8275800634)
(-584988.702418168,10298.8939610738,-101505.387429851)
(-680573.587531676,-202483.960171462,-249951.379774841)
(-1026553.12269234,-1026410.85221885,53515.4302298782)
(-1079872.06382096,-1080088.15607773,89814.0865296865)
(-1097230.80669711,-246719.578577304,-821240.154584779)
(-974724.002165493,-55636.8188427085,-2283030.95872896)
(0,0,0)
(0,0,0)
(0,0,0)
(0,0,0)
(0,0,0)
(0,0,0)
(-560103.074078347,164393.601897732,5727.49865034451)
(-566050.155331142,159262.669291718,4498.68484224666)
(-578148.856663023,147704.109452263,-16544.6228550408)
(-595545.705272534,126072.191635172,-89653.9269991117)
(-607850.107070546,86939.3288675438,-314063.572561289)
(-547756.479969424,22503.3331107159,-1073636.81359445)