/*--------------------------------*- C++ -*----------------------------------*\
| =========                 |                                                 |
| \\      /  F ield         | foam-extend: Open Source CFD                    |
|  \\    /   O peration     | Version:     4.0                                |
|   \\  /    A nd           | Web:         http://www.foam-extend.org         |
|    \\/     M anipulation  |                                                 |
\*---------------------------------------------------------------------------*/
FoamFile
{
    version 2.0;
    format ascii;
    class volVectorField;
    location "Data/3242";
    object      E;
}
// * * * * * * * * * * * * * * * * * * * * * * * * * * * * * * * * * * * * * //

dimensions      [0 1 -1 0 0 0 0];

internalField   nonuniform List<vector>
4096
(
(0,0,0)
(0,0,0)
(0,0,0)
(0,0,0)
(0,0,0)
(0,0,0)
(0,0,0)
(0,0,0)
(0,0,0)
(0,0,0)
(0,0,0)
(0,0,0)
(0,0,0)
(0,0,0)
(0,0,0)
(0,0,0)
(0,0,0)
(0,0,0)
(0,0,0)
(0,0,0)
(0,0,0)
(0,0,0)
(0,0,0)
(0,0,0)
(0,0,0)
(0,0,0)
(0,0,0)
(0,0,0)
(0,0,0)
(0,0,0)
(0,0,0)
(0,0,0)
(0,0,0)
(0,0,0)
(0,0,0)
(0,0,0)
(0,0,0)
(0,0,0)
(0,0,0)
(0,0,0)
(0,0,0)
(0,0,0)
(0,0,0)
(0,0,0)
(0,0,0)
(0,0,0)
(0,0,0)
(0,0,0)
(0,0,0)
(0,0,0)
(0,0,0)
(0,0,0)
(0,0,0)
(0,0,0)
(0,0,0)
(0,0,0)
(0,0,0)
(0,0,0)
(0,0,0)
(0,0,0)
(0,0,0)
(0,0,0)
(0,0,0)
(0,0,0)
(0,0,0)
(0,0,0)
(0,0,0)
(0,0,0)
(0,0,0)
(0,0,0)
(0,0,0)
(0,0,0)
(0,0,0)
(0,0,0)
(0,0,0)
(0,0,0)
(0,0,0)
(0,0,0)
(0,0,0)
(0,0,0)
(0,0,0)
(0,0,0)
(0,0,0)
(0,0,0)
(0,0,0)
(0,0,0)
(0,0,0)
(0,0,0)
(0,0,0)
(0,0,0)
(0,0,0)
(0,0,0)
(0,0,0)
(0,0,0)
(0,0,0)
(0,0,0)
(0,0,0)
(0,0,0)
(0,0,0)
(0,0,0)
(0,0,0)
(0,0,0)
(0,0,0)
(0,0,0)
(0,0,0)
(0,0,0)
(0,0,0)
(0,0,0)
(0,0,0)
(0,0,0)
(0,0,0)
(0,0,0)
(0,0,0)
(0,0,0)
(0,0,0)
(0,0,0)
(0,0,0)
(0,0,0)
(0,0,0)
(0,0,0)
(0,0,0)
(0,0,0)
(0,0,0)
(0,0,0)
(0,0,0)
(0,0,0)
(0,0,0)
(0,0,0)
(0,0,0)
(0,0,0)
(0,0,0)
(0,0,0)
(0,0,0)
(0,0,0)
(0,0,0)
(0,0,0)
(0,0,0)
(0,0,0)
(0,0,0)
(0,0,0)
(0,0,0)
(0,0,0)
(0,0,0)
(0,0,0)
(0,0,0)
(0,0,0)
(0,0,0)
(0,0,0)
(0,0,0)
(0,0,0)
(0,0,0)
(0,0,0)
(0,0,0)
(0,0,0)
(0,0,0)
(0,0,0)
(0,0,0)
(0,0,0)
(0,0,0)
(0,0,0)
(0,0,0)
(0,0,0)
(0,0,0)
(0,0,0)
(0,0,0)
(0,0,0)
(0,0,0)
(0,0,0)
(0,0,0)
(0,0,0)
(0,0,0)
(0,0,0)
(0,0,0)
(0,0,0)
(0,0,0)
(0,0,0)
(0,0,0)
(0,0,0)
(0,0,0)
(0,0,0)
(0,0,0)
(0,0,0)
(0,0,0)
(0,0,0)
(0,0,0)
(0,0,0)
(0,0,0)
(0,0,0)
(0,0,0)
(0,0,0)
(0,0,0)
(0,0,0)
(0,0,0)
(0,0,0)
(0,0,0)
(0,0,0)
(0,0,0)
(0,0,0)
(0,0,0)
(0,0,0)
(0,0,0)
(0,0,0)
(0,0,0)
(0,0,0)
(0,0,0)
(0,0,0)
(0,0,0)
(0,0,0)
(0,0,0)
(0,0,0)
(0,0,0)
(0,0,0)
(0,0,0)
(0,0,0)
(0,0,0)
(0,0,0)
(0,0,0)
(0,0,0)
(0,0,0)
(0,0,0)
(0,0,0)
(0,0,0)
(0,0,0)
(0,0,0)
(0,0,0)
(0,0,0)
(0,0,0)
(0,0,0)
(0,0,0)
(0,0,0)
(0,0,0)
(0,0,0)
(0,0,0)
(0,0,0)
(0,0,0)
(0,0,0)
(0,0,0)
(0,0,0)
(0,0,0)
(0,0,0)
(0,0,0)
(0,0,0)
(0,0,0)
(0,0,0)
(0,0,0)
(0,0,0)
(0,0,0)
(0,0,0)
(0,0,0)
(0,0,0)
(0,0,0)
(0,0,0)
(0,0,0)
(0,0,0)
(0,0,0)
(0,0,0)
(0,0,0)
(0,0,0)
(0,0,0)
(0,0,0)
(0,0,0)
(0,0,0)
(0,0,0)
(0,0,0)
(0,0,0)
(0,0,0)
(0,0,0)
(0,0,0)
(0,0,0)
(0,0,0)
(0,0,0)
(0,0,0)
(0,0,0)
(0,0,0)
(0,0,0)
(0,0,0)
(0,0,0)
(0,0,0)
(0,0,0)
(0,0,0)
(0,0,0)
(0,0,0)
(0,0,0)
(0,0,0)
(0,0,0)
(0,0,0)
(0,0,0)
(0,0,0)
(0,0,0)
(0,0,0)
(0,0,0)
(0,0,0)
(0,0,0)
(0,0,0)
(0,0,0)
(0,0,0)
(0,0,0)
(0,0,0)
(0,0,0)
(0,0,0)
(0,0,0)
(0,0,0)
(0,0,0)
(0,0,0)
(0,0,0)
(0,0,0)
(0,0,0)
(0,0,0)
(0,0,0)
(0,0,0)
(0,0,0)
(0,0,0)
(0,0,0)
(0,0,0)
(0,0,0)
(0,0,0)
(0,0,0)
(0,0,0)
(0,0,0)
(0,0,0)
(0,0,0)
(0,0,0)
(0,0,0)
(0,0,0)
(0,0,0)
(0,0,0)
(0,0,0)
(0,0,0)
(0,0,0)
(0,0,0)
(0,0,0)
(0,0,0)
(0,0,0)
(0,0,0)
(0,0,0)
(0,0,0)
(0,0,0)
(0,0,0)
(0,0,0)
(0,0,0)
(0,0,0)
(0,0,0)
(0,0,0)
(0,0,0)
(0,0,0)
(0,0,0)
(0,0,0)
(0,0,0)
(0,0,0)
(0,0,0)
(0,0,0)
(0,0,0)
(0,0,0)
(0,0,0)
(0,0,0)
(0,0,0)
(0,0,0)
(0,0,0)
(0,0,0)
(0,0,0)
(0,0,0)
(0,0,0)
(0,0,0)
(0,0,0)
(0,0,0)
(0,0,0)
(0,0,0)
(0,0,0)
(0,0,0)
(0,0,0)
(0,0,0)
(0,0,0)
(0,0,0)
(0,0,0)
(0,0,0)
(0,0,0)
(0,0,0)
(0,0,0)
(0,0,0)
(0,0,0)
(0,0,0)
(0,0,0)
(0,0,0)
(0,0,0)
(0,0,0)
(0,0,0)
(0,0,0)
(0,0,0)
(0,0,0)
(0,0,0)
(0,0,0)
(0,0,0)
(0,0,0)
(0,0,0)
(0,0,0)
(0,0,0)
(0,0,0)
(0,0,0)
(0,0,0)
(0,0,0)
(0,0,0)
(0,0,0)
(0,0,0)
(0,0,0)
(0,0,0)
(0,0,0)
(0,0,0)
(0,0,0)
(0,0,0)
(0,0,0)
(0,0,0)
(0,0,0)
(0,0,0)
(0,0,0)
(0,0,0)
(0,0,0)
(0,0,0)
(0,0,0)
(0,0,0)
(0,0,0)
(0,0,0)
(0,0,0)
(0,0,0)
(0,0,0)
(0,0,0)
(0,0,0)
(0,0,0)
(0,0,0)
(0,0,0)
(0,0,0)
(0,0,0)
(0,0,0)
(0,0,0)
(0,0,0)
(0,0,0)
(0,0,0)
(0,0,0)
(0,0,0)
(0,0,0)
(0,0,0)
(0,0,0)
(0,0,0)
(0,0,0)
(0,0,0)
(0,0,0)
(0,0,0)
(0,0,0)
(0,0,0)
(0,0,0)
(0,0,0)
(0,0,0)
(0,0,0)
(0,0,0)
(0,0,0)
(0,0,0)
(0,0,0)
(0,0,0)
(0,0,0)
(0,0,0)
(0,0,0)
(0,0,0)
(0,0,0)
(0,0,0)
(0,0,0)
(0,0,0)
(0,0,0)
(0,0,0)
(0,0,0)
(0,0,0)
(0,0,0)
(0,0,0)
(0,0,0)
(0,0,0)
(0,0,0)
(0,0,0)
(0,0,0)
(0,0,0)
(0,0,0)
(0,0,0)
(0,0,0)
(0,0,0)
(0,0,0)
(0,0,0)
(0,0,0)
(0,0,0)
(0,0,0)
(0,0,0)
(0,0,0)
(0,0,0)
(0,0,0)
(0,0,0)
(0,0,0)
(0,0,0)
(0,0,0)
(0,0,0)
(0,0,0)
(0,0,0)
(0,0,0)
(0,0,0)
(0,0,0)
(0,0,0)
(0,0,0)
(0,0,0)
(0,0,0)
(0,0,0)
(0,0,0)
(0,0,0)
(0,0,0)
(0,0,0)
(0,0,0)
(0,0,0)
(0,0,0)
(0,0,0)
(0,0,0)
(0,0,0)
(0,0,0)
(0,0,0)
(0,0,0)
(0,0,0)
(0,0,0)
(0,0,0)
(0,0,0)
(0,0,0)
(0,0,0)
(0,0,0)
(0,0,0)
(0,0,0)
(0,0,0)
(0,0,0)
(0,0,0)
(0,0,0)
(0,0,0)
(0,0,0)
(0,0,0)
(0,0,0)
(0,0,0)
(0,0,0)
(0,0,0)
(0,0,0)
(0,0,0)
(0,0,0)
(0,0,0)
(0,0,0)
(0,0,0)
(0,0,0)
(0,0,0)
(0,0,0)
(0,0,0)
(0,0,0)
(0,0,0)
(0,0,0)
(0,0,0)
(0,0,0)
(0,0,0)
(0,0,0)
(0,0,0)
(0,0,0)
(0,0,0)
(0,0,0)
(0,0,0)
(0,0,0)
(0,0,0)
(0,0,0)
(0,0,0)
(0,0,0)
(0,0,0)
(0,0,0)
(0,0,0)
(0,0,0)
(0,0,0)
(0,0,0)
(0,0,0)
(0,0,0)
(0,0,0)
(0,0,0)
(0,0,0)
(0,0,0)
(0,0,0)
(0,0,0)
(0,0,0)
(0,0,0)
(0,0,0)
(0,0,0)
(0,0,0)
(0,0,0)
(0,0,0)
(0,0,0)
(0,0,0)
(0,0,0)
(0,0,0)
(0,0,0)
(0,0,0)
(0,0,0)
(0,0,0)
(0,0,0)
(0,0,0)
(0,0,0)
(0,0,0)
(0,0,0)
(0,0,0)
(0,0,0)
(0,0,0)
(0,0,0)
(0,0,0)
(0,0,0)
(0,0,0)
(0,0,0)
(0,0,0)
(0,0,0)
(0,0,0)
(0,0,0)
(0,0,0)
(0,0,0)
(0,0,0)
(0,0,0)
(0,0,0)
(0,0,0)
(0,0,0)
(0,0,0)
(0,0,0)
(0,0,0)
(0,0,0)
(0,0,0)
(0,0,0)
(0,0,0)
(0,0,0)
(0,0,0)
(0,0,0)
(0,0,0)
(0,0,0)
(0,0,0)
(0,0,0)
(0,0,0)
(0,0,0)
(0,0,0)
(0,0,0)
(0,0,0)
(0,0,0)
(0,0,0)
(0,0,0)
(0,0,0)
(0,0,0)
(0,0,0)
(0,0,0)
(0,0,0)
(0,0,0)
(0,0,0)
(0,0,0)
(0,0,0)
(0,0,0)
(0,0,0)
(0,0,0)
(0,0,0)
(0,0,0)
(0,0,0)
(0,0,0)
(0,0,0)
(0,0,0)
(0,0,0)
(0,0,0)
(0,0,0)
(0,0,0)
(0,0,0)
(0,0,0)
(0,0,0)
(0,0,0)
(0,0,0)
(0,0,0)
(0,0,0)
(0,0,0)
(0,0,0)
(0,0,0)
(0,0,0)
(0,0,0)
(0,0,0)
(0,0,0)
(0,0,0)
(0,0,0)
(0,0,0)
(0,0,0)
(0,0,0)
(0,0,0)
(0,0,0)
(0,0,0)
(0,0,0)
(0,0,0)
(0,0,0)
(0,0,0)
(0,0,0)
(0,0,0)
(0,0,0)
(0,0,0)
(0,0,0)
(0,0,0)
(0,0,0)
(0,0,0)
(0,0,0)
(0,0,0)
(0,0,0)
(0,0,0)
(0,0,0)
(0,0,0)
(0,0,0)
(0,0,0)
(0,0,0)
(0,0,0)
(0,0,0)
(0,0,0)
(0,0,0)
(0,0,0)
(0,0,0)
(0,0,0)
(0,0,0)
(0,0,0)
(0,0,0)
(0,0,0)
(0,0,0)
(0,0,0)
(0,0,0)
(0,0,0)
(0,0,0)
(0,0,0)
(0,0,0)
(0,0,0)
(0,0,0)
(0,0,0)
(0,0,0)
(0,0,0)
(0,0,0)
(0,0,0)
(0,0,0)
(0,0,0)
(0,0,0)
(0,0,0)
(0,0,0)
(0,0,0)
(0,0,0)
(0,0,0)
(0,0,0)
(0,0,0)
(0,0,0)
(0,0,0)
(0,0,0)
(0,0,0)
(0,0,0)
(0,0,0)
(0,0,0)
(0,0,0)
(0,0,0)
(0,0,0)
(0,0,0)
(0,0,0)
(0,0,0)
(0,0,0)
(0,0,0)
(0,0,0)
(0,0,0)
(0,0,0)
(0,0,0)
(0,0,0)
(0,0,0)
(0,0,0)
(0,0,0)
(0,0,0)
(0,0,0)
(0,0,0)
(0,0,0)
(0,0,0)
(0,0,0)
(0,0,0)
(0,0,0)
(0,0,0)
(0,0,0)
(0,0,0)
(0,0,0)
(0,0,0)
(0,0,0)
(0,0,0)
(0,0,0)
(0,0,0)
(0,0,0)
(0,0,0)
(0,0,0)
(0,0,0)
(0,0,0)
(0,0,0)
(0,0,0)
(0,0,0)
(0,0,0)
(0,0,0)
(0,0,0)
(0,0,0)
(0,0,0)
(0,0,0)
(0,0,0)
(0,0,0)
(0,0,0)
(0,0,0)
(0,0,0)
(0,0,0)
(0,0,0)
(0,0,0)
(0,0,0)
(0,0,0)
(0,0,0)
(0,0,0)
(0,0,0)
(0,0,0)
(0,0,0)
(0,0,0)
(0,0,0)
(0,0,0)
(0,0,0)
(0,0,0)
(0,0,0)
(0,0,0)
(0,0,0)
(0,0,0)
(0,0,0)
(-30379.1439529222,16224.8122677253,14154.331685196)
(-32209.4069483214,15564.4676176498,30799.2710158668)
(-36441.741136541,14153.0740945734,53087.9380578309)
(-44314.6940067282,11969.3100177134,85433.3220468563)
(-58460.5595593162,9019.78426833866,134874.097337833)
(-83802.154332405,5588.99539295658,213087.256277286)
(-129632.38713119,2475.32299427269,340244.320414227)
(-212374.223620274,558.476338889533,552060.067695622)
(-350466.659959833,-80.7440719199041,902607.47172734)
(-488489.319203949,-106.330764014523,1391203.12169538)
(0,0,0)
(0,0,0)
(0,0,0)
(0,0,0)
(0,0,0)
(0,0,0)
(-32236.8904872146,34962.504756003,13499.1979989352)
(-34077.0210569159,33701.1833803643,29439.503293139)
(-38353.925608104,31005.5535517723,50940.9494440412)
(-46403.9921470617,26779.168156827,82535.0834519899)
(-60935.6361575228,20961.8989009844,131528.604976864)
(-86881.6306067275,13962.8783990315,210036.352577505)
(-133199.522681678,7335.27072098485,338375.927532463)
(-215625.790859024,3092.62356534188,551467.571164993)
(-352650.195004481,1436.09613812728,902600.925959473)
(-489505.575838469,722.6061999893,1391277.56483384)
(0,0,0)
(0,0,0)
(0,0,0)
(0,0,0)
(0,0,0)
(0,0,0)
(-36399.3631982358,59115.1904525135,12246.6775017255)
(-38272.9105748081,57414.3003793133,26806.4710775883)
(-42666.4309147035,53761.2519576733,46717.2035863959)
(-51098.4208019603,47895.9397985806,76698.8527466035)
(-66545.4531624116,39590.215248078,124615.989561909)
(-94071.8592097348,29106.9428354474,203543.78433523)
(-141961.024039379,18515.9393687504,334324.139726856)
(-223692.880216995,11196.3126021373,549913.330906996)
(-357847.26184469,7341.59430132273,901855.094588566)
(-491849.391917608,3978.0381004886,1390449.05460567)
(0,0,0)
(0,0,0)
(0,0,0)
(0,0,0)
(0,0,0)
(0,0,0)
(-44047.5971453303,92587.0472046647,10575.7403931802)
(-45951.6209411135,90702.1905735581,23239.471140051)
(-50494.1854837515,86618.9867827694,40875.9217986986)
(-59497.5948167956,79924.167136298,68345.289277769)
(-76454.5751574208,70190.2711054901,114199.808577789)
(-107021.544830968,57314.9537675865,193013.342476609)
(-158690.126325861,43080.8002801873,327138.60789103)
(-239257.06607266,31429.767060472,546162.219505332)
(-367334.510792562,22344.9702222473,898493.354376904)
(-495979.91480991,12035.045474803,1386416.26181267)
(0,0,0)
(0,0,0)
(0,0,0)
(0,0,0)
(0,0,0)
(0,0,0)
(-57755.8267479624,141619.827148031,8723.04680458962)
(-59661.7258210619,139797.949902156,19289.013297052)
(-64261.5619818007,135840.171610978,34329.3904506421)
(-73720.5500666595,129298.804919256,58675.3027343453)
(-92226.3999909006,119679.629847668,101412.343983067)
(-126583.201204513,106557.518026474,178752.980928673)
(-184198.580538089,90545.443653008,315486.918093939)
(-262964.573951419,72794.1991229006,537087.059982971)
(-381137.946281914,52385.8874497049,888184.089037536)
(-501989.214321252,27800.8204647325,1374407.52836885)
(0,0,0)
(0,0,0)
(0,0,0)
(0,0,0)
(0,0,0)
(0,0,0)
(-82479.1580507978,217178.52088721,6920.4643116247)
(-84280.858316308,215568.904932263,15430.3675978182)
(-88711.1852392813,212049.602817696,27932.1216303853)
(-98048.3104208515,206146.964488229,49132.2724822542)
(-116718.040053382,197162.02073821,88367.9216451029)
(-151697.188674,183916.117196637,162706.511148949)
(-209462.484061414,165001.3340156,297713.104847765)
(-284650.707048406,138481.774700868,516676.236318216)
(-396076.053697576,101501.72809493,863636.449370621)
(-509530.186240532,54237.28766116,1346730.16841466)
(0,0,0)
(0,0,0)
(0,0,0)
(0,0,0)
(0,0,0)
(0,0,0)
(-127798.085030071,339664.495112449,5312.11080482407)
(-129379.118929209,338281.002527883,11979.1321384206)
(-133342.77617134,335205.127746138,22166.3833813192)
(-141841.65456528,329894.768785869,40260.2336489573)
(-159163.431401086,321355.407489483,75230.27829877)
(-192013.43103066,307327.659539193,143832.166986886)
(-246181.234487821,283803.552385615,271211.183104706)
(-314569.134118739,244609.658853464,479652.433070845)
(-418417.370688686,183156.925268245,816414.606586158)
(-521854.374837821,99861.9928539335,1292644.2762313)
(0,0,0)
(0,0,0)
(0,0,0)
(0,0,0)
(0,0,0)
(0,0,0)
(-210595.956230934,546347.516322988,3912.93502039223)
(-211846.914209409,545086.507731215,8954.34402648087)
(-215033.87111914,542188.221406107,17005.1214856753)
(-221932.731417113,536988.601315034,31844.0203736072)
(-236148.948435012,528028.492876008,61319.8834220944)
(-263443.731986178,511752.690275541,120338.584671912)
(-308787.214169298,480938.762297732,231990.588929051)
(-364205.20347578,422715.227869402,418090.223388914)
(-459070.680506312,327179.703097357,733138.126066108)
(-545475.799437717,185534.743197203,1192941.17516051)
(0,0,0)
(0,0,0)
(0,0,0)
(0,0,0)
(0,0,0)
(0,0,0)
(-349227.37370226,892966.506838619,2608.38318662436)
(-350076.940594817,891678.344649466,6093.48686318356)
(-352243.67410363,888630.874933859,11894.5074390015)
(-356880.064145742,882875.29316432,22887.8797354419)
(-366275.094195273,872127.828973771,45063.6378329556)
(-383955.751919806,851319.844631946,89452.2353963659)
(-413665.482651367,810402.544229277,173653.936116195)
(-457917.756888272,731848.678915072,322438.241958828)
(-534066.057442743,592228.66071714,591455.341781675)
(-586673.614459071,356186.159557409,1007477.53988055)
(0,0,0)
(0,0,0)
(0,0,0)
(0,0,0)
(0,0,0)
(0,0,0)
(-487895.926968093,1379553.97731622,1308.45649048801)
(-488324.449780522,1378184.28297566,3126.9679448103)
(-489408.638722438,1374918.59026366,6247.89133747059)
(-491689.759421844,1368588.68986017,12224.2540635078)
(-496238.846723487,1356282.49385742,24308.4359033596)
(-504751.609293672,1331923.98886967,48455.900959267)
(-519639.030553723,1283541.90378752,94955.5719547259)
(-544739.568440447,1188804.02244477,182739.796865457)
(-586502.675507127,1006185.97207104,355285.161018619)
(-590749.090161613,651049.145904617,651171.264833079)
(0,0,0)
(0,0,0)
(0,0,0)
(0,0,0)
(0,0,0)
(0,0,0)
(0,0,0)
(0,0,0)
(0,0,0)
(0,0,0)
(0,0,0)
(0,0,0)
(0,0,0)
(0,0,0)
(0,0,0)
(0,0,0)
(0,0,0)
(0,0,0)
(0,0,0)
(0,0,0)
(0,0,0)
(0,0,0)
(0,0,0)
(0,0,0)
(0,0,0)
(0,0,0)
(0,0,0)
(0,0,0)
(0,0,0)
(0,0,0)
(0,0,0)
(0,0,0)
(0,0,0)
(0,0,0)
(0,0,0)
(0,0,0)
(0,0,0)
(0,0,0)
(0,0,0)
(0,0,0)
(0,0,0)
(0,0,0)
(0,0,0)
(0,0,0)
(0,0,0)
(0,0,0)
(0,0,0)
(0,0,0)
(0,0,0)
(0,0,0)
(0,0,0)
(0,0,0)
(0,0,0)
(0,0,0)
(0,0,0)
(0,0,0)
(0,0,0)
(0,0,0)
(0,0,0)
(0,0,0)
(0,0,0)
(0,0,0)
(0,0,0)
(0,0,0)
(0,0,0)
(0,0,0)
(0,0,0)
(0,0,0)
(0,0,0)
(0,0,0)
(0,0,0)
(0,0,0)
(0,0,0)
(0,0,0)
(0,0,0)
(0,0,0)
(0,0,0)
(0,0,0)
(0,0,0)
(0,0,0)
(0,0,0)
(0,0,0)
(0,0,0)
(0,0,0)
(0,0,0)
(0,0,0)
(0,0,0)
(0,0,0)
(0,0,0)
(0,0,0)
(0,0,0)
(0,0,0)
(0,0,0)
(0,0,0)
(0,0,0)
(0,0,0)
(0,0,0)
(0,0,0)
(0,0,0)
(0,0,0)
(0,0,0)
(0,0,0)
(4584075.59894473,14441.2908099803,12421.1493726801)
(4581006.76428451,13775.6787799101,26746.4824403805)
(4573974.99679958,12277.8632848728,45369.0642996221)
(4561033.4594461,9886.63015302811,71451.4637740528)
(4538033.13398724,6562.54326414738,109712.41004361)
(4497224.09632004,2555.03183718797,167448.310634239)
(4422553.22335758,-1055.62891480298,257635.512140459)
(4275096.40452658,-2665.50498289002,414147.572056829)
(3942363.44350032,-2237.93234297633,764872.584020007)
(3038745.343542,-1119.84678569131,1880074.95114012)
(0,0,0)
(0,0,0)
(0,0,0)
(0,0,0)
(0,0,0)
(0,0,0)
(4580895.33767974,30871.0590870578,11755.186636323)
(4577837.45348376,29598.4155144407,25335.158441494)
(4570770.89767318,26760.0655004321,43045.3160249951)
(4557582.50973101,22109.5230628652,68153.1043174581)
(4533982.46081547,15367.6260729675,105747.107616016)
(4492058.62951928,6786.27360751806,163892.788800032)
(4416269.65480909,-1410.99870924486,256096.164184144)
(4269432.00943813,-4951.68453247964,414641.726516852)
(3938811.77313991,-3751.43014793997,766010.439257683)
(3037183.18453206,-1628.63970035429,1881147.65488199)
(0,0,0)
(0,0,0)
(0,0,0)
(0,0,0)
(0,0,0)
(0,0,0)
(4573881.11434418,51452.0941855353,10455.6704393129)
(4570817.61464863,49728.1938206288,22552.5499899794)
(4563631.69854704,45917.8556258682,38413.8134831788)
(4549885.49730509,39471.2360084774,61385.3655109807)
(4524679.27196591,29626.804177284,97218.6453586953)
(4479385.05567205,16083.9000560229,155781.287108813)
(4399281.88742182,1725.96504923766,252718.594969503)
(4253827.11335037,-4394.12575566917,415958.225705757)
(3929724.23596688,-2173.03563292269,768125.51645932)
(3033423.08997391,-178.021959661093,1882719.59990753)
(0,0,0)
(0,0,0)
(0,0,0)
(0,0,0)
(0,0,0)
(0,0,0)
(4561098.00562591,78874.7347319784,8748.93976260223)
(4558053.64413069,76983.1201452426,18805.9314465366)
(4550723.8504121,72826.8596167174,31996.0746401717)
(4536100.75481524,65666.7089163858,51519.4351806192)
(4507923.17828834,54352.0772206524,83733.5917718857)
(4454957.12419834,37707.0616924644,141448.944186457)
(4361581.01660275,17531.892588783,246689.056798701)
(4218388.95476728,7698.04246241599,418268.050821111)
(3911422.60029943,8527.39920204052,770127.687974354)
(3026403.84216141,6030.16509374666,1882852.92703017)
(0,0,0)
(0,0,0)
(0,0,0)
(0,0,0)
(0,0,0)
(0,0,0)
(4538636.61178719,116902.224814641,6897.25446251348)
(4535644.84732639,115151.129386317,14739.8551542911)
(4528324.44471004,111350.628355327,24947.2628043032)
(4512995.53961403,104929.361047963,40285.7040723111)
(4481437.95530066,95125.279540825,67165.3295410406)
(4416935.17994324,81399.0182418508,121272.174924345)
(4293829.80591912,65230.0127951474,236862.851341153)
(4152762.52449681,51055.3810213217,419095.597414412)
(3882768.68604963,37397.9417276635,767635.605637457)
(3015935.65351549,20233.8858989624,1876824.20007572)
(0,0,0)
(0,0,0)
(0,0,0)
(0,0,0)
(0,0,0)
(0,0,0)
(4498700.73817422,171856.278616885,5183.2330529753)
(4495918.1205099,170439.941273669,11012.6254197192)
(4488969.70445907,167377.513068904,18622.0340881555)
(4473972.88990771,162309.109898284,30538.2679897602)
(4442121.35276967,154662.012784283,53479.325003586)
(4375845.13658403,143567.957688361,105085.243379322)
(4251275.31072649,128235.754536022,222658.889930953)
(4116432.723588,108547.175721924,405400.847674267)
(3858426.07171345,79140.8500048279,750472.997066453)
(3003970.53544286,41886.8270540553,1856636.51730819)
(0,0,0)
(0,0,0)
(0,0,0)
(0,0,0)
(0,0,0)
(0,0,0)
(4424777.70034843,256854.922362745,3742.75395597075)
(4422367.45382295,255778.054388848,7975.25116894902)
(4416226.32477996,253476.928795529,13623.9175714271)
(4402656.31670694,249786.062806815,22966.1764709573)
(4373006.51178934,244327.393731969,42448.0354131945)
(4309700.04090342,235867.584961925,89752.1192857894)
(4189035.81287319,221172.55272065,202915.456820414)
(4067341.56875453,194955.204987403,375913.907762026)
(3822263.59473666,142493.127853588,713197.847568131)
(2983511.32605111,76231.4740137808,1814804.68279987)
(0,0,0)
(0,0,0)
(0,0,0)
(0,0,0)
(0,0,0)
(0,0,0)
(4277192.25798373,407762.003459153,2621.88776930057)
(4275306.14987016,406869.033133865,5695.02802501342)
(4270427.0473217,404994.923943998,10033.2975160723)
(4259488.34639522,402097.581543615,17617.8840472369)
(4235102.09136761,397947.60369798,34063.8173588267)
(4181465.6147641,391312.530117557,75026.7085333783)
(4075982.43433375,376144.346752927,176602.449078415)
(3996318.09648313,329034.9091025,323316.628084589)
(3748969.37374625,252188.091014903,646898.793751053)
(2935985.20029743,144337.663989832,1738648.78712015)
(0,0,0)
(0,0,0)
(0,0,0)
(0,0,0)
(0,0,0)
(0,0,0)
(3943602.86804948,754512.441638877,1736.5031489468)
(3942342.26967211,753611.165944445,3892.34315181384)
(3939099.42332694,751652.503148509,7208.84959703557)
(3931958.59232693,748288.362797245,13496.5949510201)
(3916695.66263127,742359.599232394,27431.0256703335)
(3885630.25998487,730699.474343894,59775.2526197802)
(3829586.23859946,704583.024944751,129402.036257569)
(3750388.29751089,645100.052076369,246348.021964947)
(3527010.66548323,539825.012962528,538951.560171723)
(2791499.18858347,352129.852749431,1594303.75144993)
(0,0,0)
(0,0,0)
(0,0,0)
(0,0,0)
(0,0,0)
(0,0,0)
(3039217.88838252,1867839.77444523,876.034923307045)
(3038589.36587104,1866855.91069067,2034.65760575275)
(3036999.28090295,1864661.35532238,3935.06888687254)
(3033564.57465814,1860619.70127653,7666.57940806595)
(3026470.67119479,1852825.39799185,15808.4458107533)
(3012506.95123473,1836962.24806364,33604.2946430253)
(2986600.46945836,1803413.88088694,69851.1217691349)
(2936818.58045039,1733712.89344761,140997.314587567)
(2791670.57723276,1592854.91685276,351111.341037852)
(2269841.00243813,1241915.41127745,1242052.87299042)
(0,0,0)
(0,0,0)
(0,0,0)
(0,0,0)
(0,0,0)
(0,0,0)
(0,0,0)
(0,0,0)
(0,0,0)
(0,0,0)
(0,0,0)
(0,0,0)
(0,0,0)
(0,0,0)
(0,0,0)
(0,0,0)
(0,0,0)
(0,0,0)
(0,0,0)
(0,0,0)
(0,0,0)
(0,0,0)
(0,0,0)
(0,0,0)
(0,0,0)
(0,0,0)
(0,0,0)
(0,0,0)
(0,0,0)
(0,0,0)
(0,0,0)
(0,0,0)
(0,0,0)
(0,0,0)
(0,0,0)
(0,0,0)
(0,0,0)
(0,0,0)
(0,0,0)
(0,0,0)
(0,0,0)
(0,0,0)
(0,0,0)
(0,0,0)
(0,0,0)
(0,0,0)
(0,0,0)
(0,0,0)
(0,0,0)
(0,0,0)
(0,0,0)
(0,0,0)
(0,0,0)
(0,0,0)
(0,0,0)
(0,0,0)
(0,0,0)
(0,0,0)
(0,0,0)
(0,0,0)
(0,0,0)
(0,0,0)
(0,0,0)
(0,0,0)
(0,0,0)
(0,0,0)
(0,0,0)
(0,0,0)
(0,0,0)
(0,0,0)
(0,0,0)
(0,0,0)
(0,0,0)
(0,0,0)
(0,0,0)
(0,0,0)
(0,0,0)
(0,0,0)
(0,0,0)
(0,0,0)
(0,0,0)
(0,0,0)
(0,0,0)
(0,0,0)
(0,0,0)
(0,0,0)
(0,0,0)
(0,0,0)
(0,0,0)
(0,0,0)
(0,0,0)
(0,0,0)
(0,0,0)
(0,0,0)
(0,0,0)
(0,0,0)
(0,0,0)
(0,0,0)
(0,0,0)
(0,0,0)
(0,0,0)
(0,0,0)
(-78131.5593074027,11411.7741167395,9478.20105508163)
(-81549.5479280119,10735.3763955739,19981.9537915844)
(-89235.2564298405,9175.5939102246,32699.4300305476)
(-102957.550140483,6544.9279166512,48828.3286201891)
(-126345.277066629,2589.44656990943,69300.1100238977)
(-165313.216585464,-2558.49839964359,93078.7382487721)
(-228841.569779053,-7303.00419860218,110459.352503785)
(-329248.545791522,-8307.76177313162,81794.8815146726)
(-473211.666580815,-5752.40355949175,-138194.787925035)
(-580399.254588074,-2659.66378744271,-1157707.70908781)
(0,0,0)
(0,0,0)
(0,0,0)
(0,0,0)
(0,0,0)
(0,0,0)
(-81789.4685966599,23963.9356477936,8815.46166498721)
(-85130.1618230027,22690.133363592,18511.1369233534)
(-92689.5682426496,19712.3492956489,30117.6643734131)
(-106419.256690915,14485.6324199885,44861.5432116321)
(-130140.67675537,6099.09863268979,64157.8456393367)
(-170135.887390535,-5899.99637207613,88376.6774412284)
(-235124.651766352,-18405.6342264713,109556.430964119)
(-334553.777592034,-20528.2025778403,84445.4757186804)
(-475905.35691056,-12818.7193516561,-135088.261518921)
(-581373.810620922,-5390.89948294892,-1155117.21375062)
(0,0,0)
(0,0,0)
(0,0,0)
(0,0,0)
(0,0,0)
(0,0,0)
(-89748.3211963734,38780.3870138394,7495.80109430223)
(-92962.0522137779,37057.7243016879,15590.6939383179)
(-100360.466787102,33062.7283117673,24915.2971759588)
(-114204.403415878,25718.3654056179,36455.2818308432)
(-139123.442772894,12851.8888826329,52188.0232393413)
(-183160.077596941,-8402.15232414923,75918.1293799977)
(-256064.215749706,-36017.8931210099,107559.308365687)
(-352895.578365655,-39835.8001905776,92272.4146140357)
(-483987.681257573,-20483.7947296038,-127667.775863708)
(-583963.773971201,-7219.46586777415,-1149769.5286142)
(0,0,0)
(0,0,0)
(0,0,0)
(0,0,0)
(0,0,0)
(0,0,0)
(-103775.545523534,56546.6991438618,5790.05593913005)
(-106798.925390757,54707.4205100273,11675.7461718881)
(-113967.598926321,50500.666065667,17612.0746760687)
(-128078.555755788,42587.1492821503,23605.4182901705)
(-155743.271748007,27834.1667536532,30972.4073751119)
(-211748.287816177,-348.00908691268,48306.4930720948)
(-321008.201682814,-50251.8521709691,103812.487327208)
(-412722.960432199,-57955.1584342151,111726.5776899)
(-504133.547828557,-20142.5244516277,-114375.727540301)
(-589494.471768908,-4431.71250404739,-1142582.35005417)
(0,0,0)
(0,0,0)
(0,0,0)
(0,0,0)
(0,0,0)
(0,0,0)
(-127267.939675152,77127.5605800648,4006.50694580664)
(-130073.539178024,75559.5991129071,7555.53176703178)
(-136817.041840145,72101.6651578742,9778.8361445414)
(-150869.956703242,65980.7329387927,8933.56572489792)
(-181746.240393493,55817.6400008906,2817.10509135499)
(-260602.619751492,40313.799304273,-1624.08668553177)
(-518153.743565029,22668.4763236198,96121.9512236128)
(-614617.643507072,14678.1159683994,149551.661744527)
(-543491.989467073,12986.4803950699,-98633.8506656896)
(-598544.81931579,8241.96656146089,-1138144.2399802)
(0,0,0)
(0,0,0)
(0,0,0)
(0,0,0)
(0,0,0)
(0,0,0)
(-166021.060677415,98053.3753999125,2478.80095155441)
(-168475.287019064,96975.9498410068,4138.67467212718)
(-174489.488840161,94698.1177244287,3684.2323244346)
(-187510.97860208,91041.4062021134,-1209.75550957921)
(-217457.25833896,85573.0828138004,-12703.7702941862)
(-295998.062555659,77454.3390150857,-19318.2939455814)
(-540788.101927585,65975.6274206702,88120.7845310109)
(-629319.428615513,59427.2078963491,147806.661726188)
(-561646.137484323,42935.7834455356,-103387.615206951)
(-607513.576697677,21392.2376038966,-1146370.95718905)
(0,0,0)
(0,0,0)
(0,0,0)
(0,0,0)
(0,0,0)
(0,0,0)
(-229211.207518671,109350.533798875,1374.56638779177)
(-231216.72297955,108751.404975694,1866.10497528828)
(-236255.305330419,107690.048490353,38.621239319622)
(-247567.334061293,106643.558426252,-6657.06329686201)
(-275004.982527582,106432.043372807,-20821.7126192918)
(-351777.476582114,107652.030792816,-30859.0699917172)
(-606675.1714705,108099.069520163,81411.2891722294)
(-688210.840463074,123907.661594067,131166.061611802)
(-589126.560786184,69197.7447394847,-125022.927239448)
(-622349.544436986,28708.8643766662,-1167795.86660452)
(0,0,0)
(0,0,0)
(0,0,0)
(0,0,0)
(0,0,0)
(0,0,0)
(-329893.368273362,74361.6707227675,757.306252830221)
(-331393.363764759,74058.3253746138,832.716408533948)
(-335234.493923315,73807.6146335455,-940.491570016037)
(-344078.750211149,74731.0278565898,-6778.04747429318)
(-366722.894498026,79710.6136917556,-19548.8150078247)
(-436995.151838086,95677.5708374525,-30430.7715307185)
(-714685.896023991,129934.801281685,97084.6439851411)
(-583488.763410169,83224.1235313718,76257.8588608701)
(-611514.999681531,30272.7194331417,-165649.925485268)
(-645530.969443069,-163.98130061723,-1196578.0931477)
(0,0,0)
(0,0,0)
(0,0,0)
(0,0,0)
(0,0,0)
(0,0,0)
(-474339.778643522,-149501.896117504,489.030452862916)
(-475304.01700341,-149769.395181413,645.854604039571)
(-477751.198664728,-150049.194069093,36.1022180467063)
(-483175.791883331,-149665.365653528,-1750.30314186874)
(-495631.32015533,-147438.312913463,-3591.57683032338)
(-525355.958937719,-142004.630219864,3759.66006911285)
(-590305.708753991,-138016.511397412,50285.7370212649)
(-612352.230539153,-168216.62534361,23149.8308658772)
(-669231.258188204,-195392.879114767,-196259.829995112)
(-680176.422824678,-169490.062931432,-1196575.32003653)
(0,0,0)
(0,0,0)
(0,0,0)
(0,0,0)
(0,0,0)
(0,0,0)
(-581264.923626979,-1170600.35681305,264.089624718522)
(-581732.27195666,-1170939.5058135,438.655004123009)
(-582910.878211689,-1171491.8377381,474.274707457921)
(-585426.587110379,-1172079.96497071,562.852712701447)
(-590767.963276776,-1172806.03560055,1852.02679100034)
(-601966.838352088,-1174712.40050239,7716.40357991704)
(-622701.098011185,-1182410.06312903,20094.3397007237)
(-646085.673062222,-1202457.78254076,-4077.43267003784)
(-680328.373561806,-1198261.58813822,-170526.955932417)
(-656697.792278486,-1027509.92013619,-1027285.48709147)
(0,0,0)
(0,0,0)
(0,0,0)
(0,0,0)
(0,0,0)
(0,0,0)
(0,0,0)
(0,0,0)
(0,0,0)
(0,0,0)
(0,0,0)
(0,0,0)
(0,0,0)
(0,0,0)
(0,0,0)
(0,0,0)
(0,0,0)
(0,0,0)
(0,0,0)
(0,0,0)
(0,0,0)
(0,0,0)
(0,0,0)
(0,0,0)
(0,0,0)
(0,0,0)
(0,0,0)
(0,0,0)
(0,0,0)
(0,0,0)
(0,0,0)
(0,0,0)
(0,0,0)
(0,0,0)
(0,0,0)
(0,0,0)
(0,0,0)
(0,0,0)
(0,0,0)
(0,0,0)
(0,0,0)
(0,0,0)
(0,0,0)
(0,0,0)
(0,0,0)
(0,0,0)
(0,0,0)
(0,0,0)
(0,0,0)
(0,0,0)
(0,0,0)
(0,0,0)
(0,0,0)
(0,0,0)
(0,0,0)
(0,0,0)
(0,0,0)
(0,0,0)
(0,0,0)
(0,0,0)
(0,0,0)
(0,0,0)
(0,0,0)
(0,0,0)
(0,0,0)
(0,0,0)
(0,0,0)
(0,0,0)
(0,0,0)
(0,0,0)
(0,0,0)
(0,0,0)
(0,0,0)
(0,0,0)
(0,0,0)
(0,0,0)
(0,0,0)
(0,0,0)
(0,0,0)
(0,0,0)
(0,0,0)
(0,0,0)
(0,0,0)
(0,0,0)
(0,0,0)
(0,0,0)
(0,0,0)
(0,0,0)
(0,0,0)
(0,0,0)
(0,0,0)
(0,0,0)
(0,0,0)
(0,0,0)
(0,0,0)
(0,0,0)
(0,0,0)
(0,0,0)
(0,0,0)
(0,0,0)
(0,0,0)
(0,0,0)
(-92401.4299855851,7990.63852780931,6279.23215037251)
(-95319.5550858838,7344.92298883737,12704.3163194113)
(-101738.460164073,5849.11464535996,19358.4054082857)
(-112669.226815698,3212.24604477634,25857.836038721)
(-130176.317314178,-1116.0256299073,30804.9019161766)
(-157127.8381079,-7340.0433628637,29959.5668014769)
(-195738.352086928,-13586.9053449065,10443.2544542584)
(-243468.392362482,-13628.8369201872,-61708.0620545931)
(-281711.895504464,-8430.22269880178,-244777.610432107)
(-244981.861779092,-3592.79796476034,-576602.205276305)
(0,0,0)
(0,0,0)
(0,0,0)
(0,0,0)
(0,0,0)
(0,0,0)
(-95733.6281714233,16268.6638113428,5666.13429122801)
(-98469.2132579486,15074.2209248995,11275.8877901134)
(-104488.071684231,12204.8895736321,16718.6163034264)
(-114836.731756988,6843.69101595081,21504.6463983185)
(-131553.144365201,-2788.47955910449,24589.5679373411)
(-157722.262082061,-18913.8084338769,23749.7076998851)
(-196069.336622127,-39384.7247201683,10492.2119309228)
(-242375.067064863,-38883.5957495823,-56431.7397668512)
(-279912.330410959,-20895.4768756103,-239959.512089626)
(-243878.46141174,-7978.05499062474,-573069.604273024)
(0,0,0)
(0,0,0)
(0,0,0)
(0,0,0)
(0,0,0)
(0,0,0)
(-102865.534346391,24928.4672641938,4457.4096971717)
(-105273.793470822,23351.4454307129,8491.92644840056)
(-110584.710279938,19540.4205310995,11380.6389837674)
(-119746.805586378,11909.9696712074,11856.7624990111)
(-134821.466784105,-3731.49378612523,8497.80073724097)
(-159915.769651108,-37011.8332133073,3351.51757082294)
(-202173.426919704,-101025.714494619,11101.7185152724)
(-242630.781805803,-99695.7467465826,-38350.9270475956)
(-275519.996627033,-40635.3305475001,-227078.758006242)
(-241128.74557229,-12759.3824931381,-565132.45890266)
(0,0,0)
(0,0,0)
(0,0,0)
(0,0,0)
(0,0,0)
(0,0,0)
(-114954.215682523,33213.2540353704,2893.88338782151)
(-116918.618417998,31607.9191987782,4757.10264700147)
(-121209.37160385,27776.2167370303,3763.07911860439)
(-128461.650835424,19860.4546822592,-3804.31081280996)
(-140340.04185457,1847.04613206086,-24786.0806244308)
(-163685.02545118,-49229.826950275,-60631.3492524668)
(-247668.075829069,-247501.76125156,12504.5716507257)
(-260777.04028033,-259956.107170609,20819.0119228747)
(-265208.145397742,-59554.3750798249,-199187.345975629)
(-235555.419000777,-13485.0377069002,-552400.743530061)
(0,0,0)
(0,0,0)
(0,0,0)
(0,0,0)
(0,0,0)
(0,0,0)
(-134020.316708422,38628.2382623475,1337.39280629309)
(-135516.383520971,37392.1574289048,995.998919115434)
(-138544.327473538,34620.2007181786,-4120.69942863299)
(-142841.077557159,29490.2889991046,-21779.41289156)
(-145975.558111423,20190.0789268207,-75893.1279683965)
(-131714.846030901,4944.89484752243,-258955.623486792)
(-6.17577126301009e-05,-1.68471594755915e-05,4.16769819503478e-05)