/*--------------------------------*- C++ -*----------------------------------*\
| =========                 |                                                 |
| \\      /  F ield         | foam-extend: Open Source CFD                    |
|  \\    /   O peration     | Version:     4.0                                |
|   \\  /    A nd           | Web:         http://www.foam-extend.org         |
|    \\/     M anipulation  |                                                 |
\*---------------------------------------------------------------------------*/
FoamFile
{
    version 2.0;
    format ascii;
    class volVectorField;
    location "1775";
    object      E;
}
// * * * * * * * * * * * * * * * * * * * * * * * * * * * * * * * * * * * * * //

dimensions      [0 1 -1 0 0 0 0];

internalField   nonuniform List<vector>
4096
(
(0,0,0)
(0,0,0)
(0,0,0)
(0,0,0)
(0,0,0)
(0,0,0)
(0,0,0)
(0,0,0)
(0,0,0)
(0,0,0)
(0,0,0)
(0,0,0)
(0,0,0)
(0,0,0)
(0,0,0)
(0,0,0)
(0,0,0)
(0,0,0)
(0,0,0)
(0,0,0)
(0,0,0)
(0,0,0)
(0,0,0)
(0,0,0)
(0,0,0)
(0,0,0)
(0,0,0)
(0,0,0)
(0,0,0)
(0,0,0)
(0,0,0)
(0,0,0)
(0,0,0)
(0,0,0)
(0,0,0)
(0,0,0)
(0,0,0)
(0,0,0)
(0,0,0)
(0,0,0)
(0,0,0)
(0,0,0)
(0,0,0)
(0,0,0)
(0,0,0)
(0,0,0)
(0,0,0)
(0,0,0)
(0,0,0)
(0,0,0)
(0,0,0)
(0,0,0)
(0,0,0)
(0,0,0)
(0,0,0)
(0,0,0)
(0,0,0)
(0,0,0)
(0,0,0)
(0,0,0)
(0,0,0)
(0,0,0)
(0,0,0)
(0,0,0)
(0,0,0)
(0,0,0)
(0,0,0)
(0,0,0)
(0,0,0)
(0,0,0)
(0,0,0)
(0,0,0)
(0,0,0)
(0,0,0)
(0,0,0)
(0,0,0)
(0,0,0)
(0,0,0)
(0,0,0)
(0,0,0)
(0,0,0)
(0,0,0)
(0,0,0)
(0,0,0)
(0,0,0)
(0,0,0)
(0,0,0)
(0,0,0)
(0,0,0)
(0,0,0)
(0,0,0)
(0,0,0)
(0,0,0)
(0,0,0)
(0,0,0)
(0,0,0)
(0,0,0)
(0,0,0)
(0,0,0)
(0,0,0)
(0,0,0)
(0,0,0)
(0,0,0)
(0,0,0)
(0,0,0)
(0,0,0)
(0,0,0)
(0,0,0)
(0,0,0)
(0,0,0)
(0,0,0)
(0,0,0)
(0,0,0)
(0,0,0)
(0,0,0)
(0,0,0)
(0,0,0)
(0,0,0)
(0,0,0)
(0,0,0)
(0,0,0)
(0,0,0)
(0,0,0)
(0,0,0)
(0,0,0)
(0,0,0)
(0,0,0)
(0,0,0)
(0,0,0)
(0,0,0)
(0,0,0)
(0,0,0)
(0,0,0)
(0,0,0)
(0,0,0)
(0,0,0)
(0,0,0)
(0,0,0)
(0,0,0)
(0,0,0)
(0,0,0)
(0,0,0)
(0,0,0)
(0,0,0)
(0,0,0)
(0,0,0)
(0,0,0)
(0,0,0)
(0,0,0)
(0,0,0)
(0,0,0)
(0,0,0)
(0,0,0)
(0,0,0)
(0,0,0)
(0,0,0)
(0,0,0)
(0,0,0)
(0,0,0)
(0,0,0)
(0,0,0)
(0,0,0)
(0,0,0)
(0,0,0)
(0,0,0)
(0,0,0)
(0,0,0)
(0,0,0)
(0,0,0)
(0,0,0)
(0,0,0)
(0,0,0)
(0,0,0)
(0,0,0)
(0,0,0)
(0,0,0)
(0,0,0)
(0,0,0)
(0,0,0)
(0,0,0)
(0,0,0)
(0,0,0)
(0,0,0)
(0,0,0)
(0,0,0)
(0,0,0)
(0,0,0)
(0,0,0)
(0,0,0)
(0,0,0)
(0,0,0)
(0,0,0)
(0,0,0)
(0,0,0)
(0,0,0)
(0,0,0)
(0,0,0)
(0,0,0)
(0,0,0)
(0,0,0)
(0,0,0)
(0,0,0)
(0,0,0)
(0,0,0)
(0,0,0)
(0,0,0)
(0,0,0)
(0,0,0)
(0,0,0)
(0,0,0)
(0,0,0)
(0,0,0)
(0,0,0)
(0,0,0)
(0,0,0)
(0,0,0)
(0,0,0)
(0,0,0)
(0,0,0)
(0,0,0)
(0,0,0)
(0,0,0)
(0,0,0)
(0,0,0)
(0,0,0)
(0,0,0)
(0,0,0)
(0,0,0)
(0,0,0)
(0,0,0)
(0,0,0)
(0,0,0)
(0,0,0)
(0,0,0)
(0,0,0)
(0,0,0)
(0,0,0)
(0,0,0)
(0,0,0)
(0,0,0)
(0,0,0)
(0,0,0)
(0,0,0)
(0,0,0)
(0,0,0)
(0,0,0)
(0,0,0)
(0,0,0)
(0,0,0)
(0,0,0)
(0,0,0)
(0,0,0)
(0,0,0)
(0,0,0)
(0,0,0)
(0,0,0)
(0,0,0)
(0,0,0)
(0,0,0)
(0,0,0)
(0,0,0)
(0,0,0)
(0,0,0)
(0,0,0)
(0,0,0)
(0,0,0)
(0,0,0)
(0,0,0)
(0,0,0)
(0,0,0)
(0,0,0)
(0,0,0)
(0,0,0)
(0,0,0)
(0,0,0)
(0,0,0)
(0,0,0)
(0,0,0)
(0,0,0)
(0,0,0)
(0,0,0)
(0,0,0)
(0,0,0)
(0,0,0)
(0,0,0)
(0,0,0)
(0,0,0)
(0,0,0)
(0,0,0)
(0,0,0)
(0,0,0)
(0,0,0)
(0,0,0)
(0,0,0)
(0,0,0)
(0,0,0)
(0,0,0)
(0,0,0)
(0,0,0)
(0,0,0)
(0,0,0)
(0,0,0)
(0,0,0)
(0,0,0)
(0,0,0)
(0,0,0)
(0,0,0)
(0,0,0)
(0,0,0)
(0,0,0)
(0,0,0)
(0,0,0)
(0,0,0)
(0,0,0)
(0,0,0)
(0,0,0)
(0,0,0)
(0,0,0)
(0,0,0)
(0,0,0)
(0,0,0)
(0,0,0)
(0,0,0)
(0,0,0)
(0,0,0)
(0,0,0)
(0,0,0)
(0,0,0)
(0,0,0)
(0,0,0)
(0,0,0)
(0,0,0)
(0,0,0)
(0,0,0)
(0,0,0)
(0,0,0)
(0,0,0)
(0,0,0)
(0,0,0)
(0,0,0)
(0,0,0)
(0,0,0)
(0,0,0)
(0,0,0)
(0,0,0)
(0,0,0)
(0,0,0)
(0,0,0)
(0,0,0)
(0,0,0)
(0,0,0)
(0,0,0)
(0,0,0)
(0,0,0)
(0,0,0)
(0,0,0)
(0,0,0)
(0,0,0)
(0,0,0)
(0,0,0)
(0,0,0)
(0,0,0)
(0,0,0)
(0,0,0)
(0,0,0)
(0,0,0)
(0,0,0)
(0,0,0)
(0,0,0)
(0,0,0)
(0,0,0)
(0,0,0)
(0,0,0)
(0,0,0)
(0,0,0)
(0,0,0)
(0,0,0)
(0,0,0)
(0,0,0)
(0,0,0)
(0,0,0)
(0,0,0)
(0,0,0)
(0,0,0)
(0,0,0)
(0,0,0)
(0,0,0)
(0,0,0)
(0,0,0)
(0,0,0)
(0,0,0)
(0,0,0)
(0,0,0)
(0,0,0)
(0,0,0)
(0,0,0)
(0,0,0)
(0,0,0)
(0,0,0)
(0,0,0)
(0,0,0)
(0,0,0)
(0,0,0)
(0,0,0)
(0,0,0)
(0,0,0)
(0,0,0)
(0,0,0)
(0,0,0)
(0,0,0)
(0,0,0)
(0,0,0)
(0,0,0)
(0,0,0)
(0,0,0)
(0,0,0)
(0,0,0)
(0,0,0)
(0,0,0)
(0,0,0)
(0,0,0)
(0,0,0)
(0,0,0)
(0,0,0)
(0,0,0)
(0,0,0)
(0,0,0)
(0,0,0)
(0,0,0)
(0,0,0)
(0,0,0)
(0,0,0)
(0,0,0)
(0,0,0)
(0,0,0)
(0,0,0)
(0,0,0)
(0,0,0)
(0,0,0)
(0,0,0)
(0,0,0)
(0,0,0)
(0,0,0)
(0,0,0)
(0,0,0)
(0,0,0)
(0,0,0)
(0,0,0)
(0,0,0)
(0,0,0)
(0,0,0)
(0,0,0)
(0,0,0)
(0,0,0)
(0,0,0)
(0,0,0)
(0,0,0)
(0,0,0)
(0,0,0)
(0,0,0)
(0,0,0)
(0,0,0)
(0,0,0)
(0,0,0)
(0,0,0)
(0,0,0)
(0,0,0)
(0,0,0)
(0,0,0)
(0,0,0)
(0,0,0)
(0,0,0)
(0,0,0)
(0,0,0)
(0,0,0)
(0,0,0)
(0,0,0)
(0,0,0)
(0,0,0)
(0,0,0)
(0,0,0)
(0,0,0)
(0,0,0)
(0,0,0)
(0,0,0)
(0,0,0)
(0,0,0)
(0,0,0)
(0,0,0)
(0,0,0)
(0,0,0)
(0,0,0)
(0,0,0)
(0,0,0)
(0,0,0)
(0,0,0)
(0,0,0)
(0,0,0)
(0,0,0)
(0,0,0)
(0,0,0)
(0,0,0)
(0,0,0)
(0,0,0)
(0,0,0)
(0,0,0)
(0,0,0)
(0,0,0)
(0,0,0)
(0,0,0)
(0,0,0)
(0,0,0)
(0,0,0)
(0,0,0)
(0,0,0)
(0,0,0)
(0,0,0)
(0,0,0)
(0,0,0)
(0,0,0)
(0,0,0)
(0,0,0)
(0,0,0)
(0,0,0)
(0,0,0)
(0,0,0)
(0,0,0)
(0,0,0)
(0,0,0)
(0,0,0)
(0,0,0)
(0,0,0)
(0,0,0)
(0,0,0)
(0,0,0)
(0,0,0)
(0,0,0)
(0,0,0)
(0,0,0)
(0,0,0)
(0,0,0)
(0,0,0)
(0,0,0)
(0,0,0)
(0,0,0)
(0,0,0)
(0,0,0)
(0,0,0)
(0,0,0)
(0,0,0)
(0,0,0)
(0,0,0)
(0,0,0)
(0,0,0)
(0,0,0)
(0,0,0)
(0,0,0)
(0,0,0)
(0,0,0)
(0,0,0)
(0,0,0)
(0,0,0)
(0,0,0)
(0,0,0)
(0,0,0)
(0,0,0)
(0,0,0)
(0,0,0)
(0,0,0)
(0,0,0)
(0,0,0)
(0,0,0)
(0,0,0)
(0,0,0)
(0,0,0)
(0,0,0)
(0,0,0)
(0,0,0)
(0,0,0)
(0,0,0)
(0,0,0)
(0,0,0)
(0,0,0)
(0,0,0)
(0,0,0)
(0,0,0)
(0,0,0)
(0,0,0)
(0,0,0)
(0,0,0)
(0,0,0)
(0,0,0)
(0,0,0)
(0,0,0)
(0,0,0)
(0,0,0)
(0,0,0)
(0,0,0)
(0,0,0)
(0,0,0)
(0,0,0)
(0,0,0)
(0,0,0)
(0,0,0)
(0,0,0)
(0,0,0)
(0,0,0)
(0,0,0)
(0,0,0)
(0,0,0)
(0,0,0)
(0,0,0)
(0,0,0)
(0,0,0)
(0,0,0)
(0,0,0)
(0,0,0)
(0,0,0)
(0,0,0)
(0,0,0)
(0,0,0)
(0,0,0)
(0,0,0)
(0,0,0)
(0,0,0)
(0,0,0)
(0,0,0)
(0,0,0)
(0,0,0)
(0,0,0)
(0,0,0)
(0,0,0)
(0,0,0)
(0,0,0)
(0,0,0)
(0,0,0)
(0,0,0)
(0,0,0)
(0,0,0)
(0,0,0)
(0,0,0)
(0,0,0)
(0,0,0)
(0,0,0)
(0,0,0)
(0,0,0)
(0,0,0)
(0,0,0)
(0,0,0)
(0,0,0)
(0,0,0)
(0,0,0)
(0,0,0)
(0,0,0)
(0,0,0)
(0,0,0)
(0,0,0)
(0,0,0)
(0,0,0)
(0,0,0)
(0,0,0)
(0,0,0)
(0,0,0)
(0,0,0)
(0,0,0)
(0,0,0)
(0,0,0)
(0,0,0)
(0,0,0)
(0,0,0)
(0,0,0)
(0,0,0)
(0,0,0)
(0,0,0)
(0,0,0)
(0,0,0)
(0,0,0)
(0,0,0)
(0,0,0)
(0,0,0)
(0,0,0)
(0,0,0)
(0,0,0)
(0,0,0)
(0,0,0)
(0,0,0)
(0,0,0)
(0,0,0)
(0,0,0)
(0,0,0)
(0,0,0)
(0,0,0)
(0,0,0)
(0,0,0)
(0,0,0)
(0,0,0)
(0,0,0)
(0,0,0)
(0,0,0)
(0,0,0)
(0,0,0)
(0,0,0)
(0,0,0)
(0,0,0)
(0,0,0)
(0,0,0)
(0,0,0)
(0,0,0)
(0,0,0)
(0,0,0)
(0,0,0)
(0,0,0)
(0,0,0)
(0,0,0)
(0,0,0)
(0,0,0)
(0,0,0)
(0,0,0)
(0,0,0)
(0,0,0)
(0,0,0)
(0,0,0)
(0,0,0)
(0,0,0)
(0,0,0)
(0,0,0)
(0,0,0)
(0,0,0)
(0,0,0)
(0,0,0)
(0,0,0)
(0,0,0)
(0,0,0)
(0,0,0)
(0,0,0)
(0,0,0)
(0,0,0)
(0,0,0)
(0,0,0)
(0,0,0)
(0,0,0)
(0,0,0)
(0,0,0)
(0,0,0)
(0,0,0)
(0,0,0)
(0,0,0)
(0,0,0)
(0,0,0)
(0,0,0)
(0,0,0)
(0,0,0)
(0,0,0)
(0,0,0)
(0,0,0)
(0,0,0)
(0,0,0)
(0,0,0)
(0,0,0)
(0,0,0)
(0,0,0)
(0,0,0)
(0,0,0)
(0,0,0)
(0,0,0)
(0,0,0)
(0,0,0)
(0,0,0)
(0,0,0)
(0,0,0)
(0,0,0)
(0,0,0)
(0,0,0)
(0,0,0)
(0,0,0)
(0,0,0)
(0,0,0)
(0,0,0)
(0,0,0)
(0,0,0)
(0,0,0)
(0,0,0)
(0,0,0)
(0,0,0)
(0,0,0)
(0,0,0)
(0,0,0)
(0,0,0)
(0,0,0)
(0,0,0)
(0,0,0)
(0,0,0)
(0,0,0)
(0,0,0)
(0,0,0)
(0,0,0)
(0,0,0)
(0,0,0)
(0,0,0)
(0,0,0)
(0,0,0)
(0,0,0)
(0,0,0)
(0,0,0)
(0,0,0)
(0,0,0)
(0,0,0)
(0,0,0)
(0,0,0)
(0,0,0)
(0,0,0)
(0,0,0)
(0,0,0)
(0,0,0)
(0,0,0)
(0,0,0)
(0,0,0)
(0,0,0)
(0,0,0)
(-137924.482237567,73258.0842699381,64666.3979676275)
(-145908.235060968,70239.350462715,140335.28256588)
(-164419.991035393,63949.4752971662,240805.798304108)
(-199278.547747819,54056.0831483783,386028.262903553)
(-262085.553576571,40703.2483846386,607410.568095494)
(-374739.230262811,25376.33880438,956773.459553918)
(-578690.94044437,11425.1078857803,1524039.29211253)
(-947235.635526428,2882.46926042083,2468392.45837858)
(-1562221.11285312,36.5744205211545,4030576.99681114)
(-2176648.44480909,-203.516255386072,6207428.95787567)
(0,0,0)
(0,0,0)
(0,0,0)
(0,0,0)
(0,0,0)
(0,0,0)
(-145872.19941571,157477.741822283,61652.5418633631)
(-153957.534488135,151793.450012686,134055.976801532)
(-172747.205268902,139818.589717444,230934.067650153)
(-208412.197661828,120717.437145727,372684.911314638)
(-272976.275794663,94331.9411534501,592032.494340478)
(-388353.461839278,62967.3599717919,942794.935012343)
(-594549.407543033,33272.7402416947,1515496.71019946)
(-961688.294207489,14486.7871370404,2465580.68653026)
(-1571851.1751993,7094.83445338891,4030373.60169673)
(-2181138.12248178,3627.63828516981,6207680.56963791)
(0,0,0)
(0,0,0)
(0,0,0)
(0,0,0)
(0,0,0)
(0,0,0)
(-164126.341095982,265604.485449613,55999.5974686526)
(-172346.461161633,257988.346447237,122151.162195737)
(-191709.961267699,241776.14359544,211903.569585444)
(-229160.422767885,215450.784308081,346330.645190978)
(-297829.954858152,177863.652903868,560628.8882987)
(-420352.504527319,130889.772128552,913058.980669257)
(-633646.979499183,83287.4238910181,1496691.27651913)
(-997683.326298476,50616.0808910195,2458245.3090636)
(-1595034.60027538,33384.250382028,4026990.49341038)
(-2191630.90702735,18112.3108892411,6204136.72783371)
(0,0,0)
(0,0,0)
(0,0,0)
(0,0,0)
(0,0,0)
(0,0,0)
(-198117.695160343,415373.860483809,48348.3201261477)
(-206477.695393488,406909.103608102,105905.258358773)
(-226574.583171357,388760.675569326,185495.309556237)
(-266613.22838389,358895.782365668,308663.539882531)
(-342062.657260786,315060.161517671,513529.688529521)
(-478296.893065708,257362.667805816,865353.685917967)
(-708517.426382566,193227.838632634,1463930.69755891)
(-1067327.67845257,140909.152904383,2440965.30399806)
(-1637506.28029855,100167.446223269,4011688.38845533)
(-2210130.68384528,53907.1866929152,6186024.19649707)
(0,0,0)
(0,0,0)
(0,0,0)
(0,0,0)
(0,0,0)
(0,0,0)
(-258988.789129789,634573.809738129,39788.8398754645)
(-267310.119530161,626365.458090851,87642.6049228745)
(-287800.527506644,608738.304948269,155465.503050578)
(-329973.927854542,579639.092167669,264696.121103117)
(-412423.53041321,536458.615025199,455721.198008804)
(-565668.694395921,477612.869786952,801139.690423566)
(-822512.346894389,405422.356537679,1411457.51941291)
(-1173346.30498538,325643.173123597,2400069.80417909)
(-1699221.07496608,234120.587030237,3965337.73833828)
(-2236894.56919688,124091.441896588,6132048.05233148)
(0,0,0)
(0,0,0)
(0,0,0)
(0,0,0)
(0,0,0)
(0,0,0)
(-368861.008563449,971973.913855162,31460.9044464207)
(-376743.257447397,964687.256910706,69882.3630739566)
(-396562.315452462,949006.545408758,126176.43806593)
(-438303.3882244,922818.649353971,221300.269104024)
(-521609.862620332,882628.14193809,396740.60481147)
(-677759.529754378,823255.93309072,728857.071262098)
(-935380.842868675,738175.177523356,1331485.09314511)
(-1270326.28004955,619191.95605266,2308262.59026559)
(-1766083.39451714,453404.636629971,3855061.93518308)
(-2270595.59992202,242038.357159299,6007710.61984222)
(0,0,0)
(0,0,0)
(0,0,0)
(0,0,0)
(0,0,0)
(0,0,0)
(-570510.906033253,1518414.57107672,24070.2488116972)
(-577489.522439646,1512139.36585485,54107.6623072108)
(-595267.465429761,1498515.97876493,99865.6943808048)
(-633390.866717571,1475127.57469795,180947.635754401)
(-710756.900100748,1437045.71106625,337286.966726981)
(-857469.045391085,1374314.70286797,643697.24234081)
(-1099227.64929174,1268779.09593118,1212320.97322474)
(-1403800.50338023,1093129.74035799,2142183.69229965)
(-1865718.53978104,817920.317190512,3643386.55152008)
(-2325577.80906084,445663.344576665,5765339.37316366)
(0,0,0)
(0,0,0)
(0,0,0)
(0,0,0)
(0,0,0)
(0,0,0)
(-939249.846501214,2440004.49512844,17659.9224494889)
(-944846.38991976,2434287.93539704,40357.7428270684)
(-959156.008846246,2421640.85387422,76388.8765640345)
(-990154.520922697,2398901.82500354,142769.147181122)
(-1053739.72741026,2359053.81163578,274500.774021852)
(-1175715.91095542,2286452.99014391,538078.397701312)
(-1378171.36588316,2148418.34502636,1036610.51448928)
(-1624737.93086852,1887664.05950701,1866814.12620879)
(-2046594.73506006,1460424.69248092,3270904.48597844)
(-2430676.20501834,827819.145791737,5319424.88978165)
(0,0,0)
(0,0,0)
(0,0,0)
(0,0,0)
(0,0,0)
(0,0,0)
(-1556728.45692906,3984876.69728835,11856.254769112)
(-1560564.20730446,3979126.20875152,27582.1887191078)
(-1570303.70301282,3965995.6124887,53531.1331174162)
(-1591151.75070888,3940814.96738091,102769.741448917)
(-1633150.00057016,3893162.2028955,201811.350759361)
(-1712087.67020206,3800385.20586469,399966.805240649)
(-1844626.83038051,3617234.81994517,775777.16070237)
(-2041563.76903111,3265661.51597319,1439343.4732673)
(-2380278.98460685,2642009.51016467,2638037.64019033)
(-2614028.18728726,1588581.80228899,4491303.17098034)
(0,0,0)
(0,0,0)
(0,0,0)
(0,0,0)
(0,0,0)
(0,0,0)
(-2174060.62460597,6152887.51920848,6049.8026858752)
(-2175989.11809519,6146928.16878623,14236.9607463481)
(-2180836.62903154,6132962.55540372,28106.6468628886)
(-2191067.84759417,6105145.62948368,54843.8323543265)
(-2211398.65349193,6050577.55598908,108827.132752718)
(-2249421.08616583,5942019.34978701,216614.074996224)
(-2315749.29973219,5725577.59994311,424020.594730458)
(-2427528.36881517,5301756.06020908,815454.41930969)
(-2613414.08644217,4486535.58712786,1584342.42878862)
(-2631996.3106346,2902422.77999764,2902497.76171459)
(0,0,0)
(0,0,0)
(0,0,0)
(0,0,0)
(0,0,0)
(0,0,0)
(0,0,0)
(0,0,0)
(0,0,0)
(0,0,0)
(0,0,0)
(0,0,0)
(0,0,0)
(0,0,0)
(0,0,0)
(0,0,0)
(0,0,0)
(0,0,0)
(0,0,0)
(0,0,0)
(0,0,0)
(0,0,0)
(0,0,0)
(0,0,0)
(0,0,0)
(0,0,0)
(0,0,0)
(0,0,0)
(0,0,0)
(0,0,0)
(0,0,0)
(0,0,0)
(0,0,0)
(0,0,0)
(0,0,0)
(0,0,0)
(0,0,0)
(0,0,0)
(0,0,0)
(0,0,0)
(0,0,0)
(0,0,0)
(0,0,0)
(0,0,0)
(0,0,0)
(0,0,0)
(0,0,0)
(0,0,0)
(0,0,0)
(0,0,0)
(0,0,0)
(0,0,0)
(0,0,0)
(0,0,0)
(0,0,0)
(0,0,0)
(0,0,0)
(0,0,0)
(0,0,0)
(0,0,0)
(0,0,0)
(0,0,0)
(0,0,0)
(0,0,0)
(0,0,0)
(0,0,0)
(0,0,0)
(0,0,0)
(0,0,0)
(0,0,0)
(0,0,0)
(0,0,0)
(0,0,0)
(0,0,0)
(0,0,0)
(0,0,0)
(0,0,0)
(0,0,0)
(0,0,0)
(0,0,0)
(0,0,0)
(0,0,0)
(0,0,0)
(0,0,0)
(0,0,0)
(0,0,0)
(0,0,0)
(0,0,0)
(0,0,0)
(0,0,0)
(0,0,0)
(0,0,0)
(0,0,0)
(0,0,0)
(0,0,0)
(0,0,0)
(0,0,0)
(0,0,0)
(0,0,0)
(0,0,0)
(0,0,0)
(0,0,0)
(20413230.0852434,65305.2023942863,56721.6727219052)
(20399841.3171263,62205.0333980387,121948.529733802)
(20369084.7103751,55620.8530452159,206004.417875155)
(20311752.1332025,44913.7668581815,323241.412663785)
(20209812.4867236,29814.9544018011,494709.860558924)
(20028637.2075014,11788.291046535,752726.574345202)
(19696297.1797144,-4420.26989065889,1155340.16667422)
(19039601.237217,-11572.3955411373,1853257.13206906)
(17557792.355761,-9596.53282051491,3416021.63887259)
(13533429.7264547,-4725.3174624113,8383850.22766835)
(0,0,0)
(0,0,0)
(0,0,0)
(0,0,0)
(0,0,0)
(0,0,0)
(20399651.2607311,139339.810459204,53623.3743854501)
(20386216.1473438,133485.748430123,115350.420118645)
(20355198.0462773,120903.558139694,195303.906075103)
(20296800.5348192,100029.276768196,308157.106281206)
(20192059.700489,69500.6880075893,476616.838988875)
(20005783.3627276,30970.234571226,736479.513494518)
(19668354.7039856,-5832.59255108943,1148169.16722356)
(19014399.0291224,-21539.8209380918,1855230.71188777)
(17542149.1455532,-16105.7056938029,3420921.00660547)
(13526593.3132101,-6906.95562586633,8388552.6516741)
(0,0,0)
(0,0,0)
(0,0,0)
(0,0,0)
(0,0,0)
(0,0,0)
(20368826.4958765,231762.668624795,47805.747459023)
(20355346.9779104,223966.219302279,102813.280112002)
(20323737.8367734,206989.500762372,174460.982045492)
(20262786.0978308,178078.043162833,277647.137649347)
(20150810.8420246,133655.201538553,438033.269832809)
(19949267.4335494,72932.9758172649,699632.033107237)
(19592502.6595703,8402.16314806221,1132429.0809358)
(18944778.5933084,-19053.2956908649,1860662.07867891)
(17501665.9149495,-9138.92416836858,3430176.22452565)
(13509818.0728612,-465.083446789958,8395466.81505525)
(0,0,0)
(0,0,0)
(0,0,0)
(0,0,0)
(0,0,0)
(0,0,0)
(20312200.9218334,354608.503133058,40016.9910951501)
(20298722.2794486,346143.325762556,85821.3523900041)
(20266366.198957,327578.87452595,145472.639095217)
(20201433.228091,295521.004657166,233164.663723142)
(20076124.1716875,244633.414505662,377181.064404956)
(19840073.9802691,169936.886256495,634987.723228174)
(19423959.2988113,79191.4552615467,1104903.14851803)
(18786305.0752733,34865.0060270022,1870533.53567145)
(17419853.7067225,38400.0869844603,3438815.9800946)
(13478426.3312041,27085.4135756743,8395889.91061997)
(0,0,0)
(0,0,0)
(0,0,0)
(0,0,0)
(0,0,0)
(0,0,0)
(20212517.41739,524792.157986464,31491.5812239336)
(20199370.9566501,516969.669553465,67165.6038499053)
(20166856.8807789,499981.976531199,113286.536156382)
(20098566.9692207,471266.933932024,182181.152403419)
(19958005.3542465,427197.849516372,302369.275330246)
(19670203.1261491,365472.304450184,544143.47918871)
(19121025.4007596,292531.686677909,1060446.94271551)
(18492560.6579908,228658.361561276,1873928.06680228)
(17291681.1955026,167235.315833262,3427372.01008178)
(13431728.6716325,90367.0649298784,8368648.56049533)
(0,0,0)
(0,0,0)
(0,0,0)
(0,0,0)
(0,0,0)
(0,0,0)
(20035171.1113451,770358.455385097,23583.0252899984)
(20022955.375768,763942.074773859,50093.4294513904)
(19991991.9120418,750253.176733598,84449.4443518445)
(19924989.1214551,727648.961451206,137956.349750455)
(19782843.8419953,693371.89411927,240510.043129124)
(19486830.8048623,643463.642604373,471109.812955404)
(18930748.0318649,574260.148774012,996433.918722889)
(18330010.8343939,485648.522260757,1812288.08617697)
(17182604.3978481,353719.622786338,3350297.42945584)
(13378197.4704285,187025.336299666,8278027.53033267)
(0,0,0)
(0,0,0)
(0,0,0)
(0,0,0)
(0,0,0)
(0,0,0)
(19706273.9169021,1149653.79692058,17101.2781262999)
(19695638.6643365,1144743.71001026,36352.8987109163)
(19668217.3196769,1134531.3469565,61771.3859786755)
(19607433.3272953,1118218.66773884,103558.928275363)
(19474951.831665,1093889.68749907,190513.845727011)
(19191934.4757812,1055920.78827024,401834.62148594)
(18652672.0754729,989709.577952722,907666.910139692)
(18110510.0114136,872079.266881332,1680107.0933225)
(17021024.2127754,636939.056321795,3183326.34982762)
(13286832.5531859,340481.922192109,8090640.84428574)
(0,0,0)
(0,0,0)
(0,0,0)
(0,0,0)
(0,0,0)
(0,0,0)
(19048994.8913882,1822498.67152083,12091.8301075124)
(19040597.3458448,1818524.23072996,26049.0162204743)
(19018776.8621762,1810414.51455701,45414.4201946987)
(18969684.8387084,1797778.18261662,79196.9882830018)
(18860539.9227439,1779459.08016243,152529.388062523)
(18620488.5638953,1749880.33440003,335546.809679291)
(18148556.8640676,1681789.39132756,789920.208950811)
(17794940.9304392,1470708.64053443,1444793.41658702)
(16695016.9681682,1126642.12702379,2886660.08525385)
(13075370.902888,644402.641337513,7749873.70079931)
(0,0,0)
(0,0,0)
(0,0,0)
(0,0,0)
(0,0,0)
(0,0,0)
(17563343.7853183,3367550.02944786,8057.84242274857)
(17557662.919206,3363685.01961345,17851.3696259854)
(17543064.6411438,3355385.47869018,32693.5039333328)
(17510955.6887524,3340774.10577314,60771.583912602)
(17442655.1659481,3314735.02897341,122871.911180446)
(17303657.9136788,3262826.78827421,267361.31602252)
(17053106.2195155,3145892.07565092,578707.024400329)
(16701012.4153345,2879525.12020143,1100495.80296492)
(15707108.7373974,2408757.1756802,2404174.47490138)
(12432034.237253,1570528.2872165,7105167.84707921)
(0,0,0)
(0,0,0)
(0,0,0)
(0,0,0)
(0,0,0)
(0,0,0)
(13535553.1940151,8326982.42774276,4135.2256810451)
(13532718.3098254,8322904.75376003,9389.50621097387)
(13525547.5536439,8313703.10588194,17869.1389409353)
(13510143.9250033,8296097.76999285,34515.1447210349)
(13478398.0535652,8261824.48726131,70810.4219732211)
(13415935.475958,8191208.93805416,150253.15266665)
(13300285.310256,8041110.42973076,312181.631195826)
(13078729.2848517,7729099.89156225,629530.648765365)
(12432550.6783805,7099782.21431751,1565722.28790254)
(10108759.6500923,5534255.96188488,5534420.09510428)
(0,0,0)
(0,0,0)
(0,0,0)
(0,0,0)
(0,0,0)
(0,0,0)
(0,0,0)
(0,0,0)
(0,0,0)
(0,0,0)
(0,0,0)
(0,0,0)
(0,0,0)
(0,0,0)
(0,0,0)
(0,0,0)
(0,0,0)
(0,0,0)
(0,0,0)
(0,0,0)
(0,0,0)
(0,0,0)
(0,0,0)
(0,0,0)
(0,0,0)
(0,0,0)
(0,0,0)
(0,0,0)
(0,0,0)
(0,0,0)
(0,0,0)
(0,0,0)
(0,0,0)
(0,0,0)
(0,0,0)
(0,0,0)
(0,0,0)
(0,0,0)
(0,0,0)
(0,0,0)
(0,0,0)
(0,0,0)
(0,0,0)
(0,0,0)
(0,0,0)
(0,0,0)
(0,0,0)
(0,0,0)
(0,0,0)
(0,0,0)
(0,0,0)
(0,0,0)
(0,0,0)
(0,0,0)
(0,0,0)
(0,0,0)
(0,0,0)
(0,0,0)
(0,0,0)
(0,0,0)
(0,0,0)
(0,0,0)
(0,0,0)
(0,0,0)
(0,0,0)
(0,0,0)
(0,0,0)
(0,0,0)
(0,0,0)
(0,0,0)
(0,0,0)
(0,0,0)
(0,0,0)
(0,0,0)
(0,0,0)
(0,0,0)
(0,0,0)
(0,0,0)
(0,0,0)
(0,0,0)
(0,0,0)
(0,0,0)
(0,0,0)
(0,0,0)
(0,0,0)
(0,0,0)
(0,0,0)
(0,0,0)
(0,0,0)
(0,0,0)
(0,0,0)
(0,0,0)
(0,0,0)
(0,0,0)
(0,0,0)
(0,0,0)
(0,0,0)
(0,0,0)
(0,0,0)
(0,0,0)
(0,0,0)
(0,0,0)
(-355144.394885803,51766.2000953086,43426.8374367369)
(-369931.148555226,48638.6295538476,91379.230967208)
(-403299.834906798,41772.7718814878,148809.561770557)
(-463944.648582909,29968.5417597376,221356.359199098)
(-567547.453417048,12070.7080249822,313464.148717658)
(-740267.544810449,-11062.7812876967,420250.239720168)
(-1022678.30074515,-32361.6198958362,498405.89747838)
(-1469534.66734321,-36773.6685096572,371134.027951126)
(-2110271.83885529,-25267.1615984169,-608716.058431329)
(-2586764.33372414,-11592.9702544389,-5150110.47059503)
(0,0,0)
(0,0,0)
(0,0,0)
(0,0,0)
(0,0,0)
(0,0,0)
(-370677.487511128,108621.379332894,40292.1264074646)
(-385226.774986997,102713.417151644,84478.8185432489)
(-418248.968969518,89518.1508795589,136999.012194856)
(-478944.22601674,66077.8745362847,203452.997657101)
(-584126.770972415,28273.7751505378,290254.959395847)
(-761534.399339712,-25546.0873927114,398874.584970965)
(-1050564.56127516,-81676.0640680467,493926.851806708)
(-1493100.31307845,-91161.8822967556,382632.965197479)
(-2122060.6727745,-56599.1778281155,-595006.642842056)
(-2590914.63923858,-23708.8931553242,-5138564.21008954)
(0,0,0)
(0,0,0)
(0,0,0)
(0,0,0)
(0,0,0)
(0,0,0)
(-405386.892824625,175239.434757804,34413.8906791188)
(-419460.034378073,167446.885900374,71305.9916216915)
(-451879.94278732,149688.533325812,113571.946138886)
(-513150.542633097,116752.221043403,165652.797498492)
(-623763.141110029,58950.3408615223,236368.772324952)
(-819454.88381596,-36297.0923234958,342660.652023907)
(-1143880.74084049,-160179.557365463,484366.103134922)
(-1574791.6480751,-177552.817834598,417145.837459043)
(-2157890.88324681,-90975.3416415441,-562102.643128239)
(-2602372.701726,-31895.3260066711,-5114906.8782869)
(0,0,0)
(0,0,0)
(0,0,0)
(0,0,0)
(0,0,0)
(0,0,0)
(-467420.379890541,255035.489461591,26643.8044229984)
(-480782.152646612,246858.349632186,53555.3301891822)
(-512277.365331875,228103.961388863,80602.0238178601)
(-574777.214892034,192588.537626335,107794.70762081)
(-697689.969246283,126392.269541962,140985.47727695)
(-947037.053546353,-47.340559426487,218665.316731092)
(-1433812.30233476,-223857.803860351,466933.721774831)
(-1842183.27221018,-258977.89640939,503665.705235984)
(-2247694.85778262,-89855.4392626628,-503087.075234855)
(-2626988.43008819,-19657.6395031199,-5083091.44304331)
(0,0,0)
(0,0,0)
(0,0,0)
(0,0,0)
(0,0,0)
(0,0,0)
(-571606.689768814,347557.543886359,18420.6101369109)
(-583857.281291214,340592.346807277,34733.4083059876)
(-613625.25148864,325112.439790915,45025.6195742006)
(-676112.351252828,297588.153431343,41523.8816455835)
(-813543.293098311,251866.000479585,14417.3554555284)
(-1165295.64271815,181928.559444013,-5241.21827782967)
(-2315079.41045111,102103.890913111,431720.455562239)
(-2746519.5691097,65990.4216515,672650.922004675)
(-2423736.89856796,58071.7324888855,-433039.598273335)
(-2667339.49012844,36810.5363142009,-5063621.05492674)
(0,0,0)
(0,0,0)
(0,0,0)
(0,0,0)
(0,0,0)
(0,0,0)
(-743370.306587029,441516.206595931,11401.3126253803)
(-754089.549615728,436643.732154408,19213.410064801)
(-780769.511588726,426441.290640889,17464.5402482358)
(-838840.557057535,409976.888494644,-4275.95889972153)
(-972418.492414306,385289.097784988,-55618.1643927123)
(-1323277.30611626,348378.578372943,-85141.514940224)
(-2416987.18697166,296019.968683061,395496.183529204)
(-2812216.1333983,265995.090903655,664537.039472188)
(-2505518.3449352,192044.914372205,-454494.842225052)
(-2707623.33138516,95627.0807819128,-5100672.02747618)
(0,0,0)
(0,0,0)
(0,0,0)
(0,0,0)
(0,0,0)
(0,0,0)
(-1024212.33046307,492332.809621686,6488.20174226733)
(-1033035.80781197,489635.110479944,8989.85296804733)
(-1055458.00733995,484940.368568266,984.659460183031)
(-1106036.59948925,480260.941036858,-29010.9088946634)
(-1228632.16446216,479253.971295234,-92573.228874932)
(-1572173.65757486,484265.63960277,-137533.599345767)
(-2712800.21368144,485406.48947636,365370.726418188)
(-3078017.73849504,556336.061562623,590376.063070676)
(-2629352.34096623,310802.41035234,-551186.321764837)
(-2774169.15435924,128953.865752154,-5196692.84178726)
(0,0,0)
(0,0,0)
(0,0,0)
(0,0,0)
(0,0,0)
(0,0,0)
(-1472389.94985427,336799.878736899,3736.32953008322)
(-1479027.62153226,335542.725401196,4272.23938866361)
(-1496124.23578739,334610.352821183,-3678.08949785146)
(-1535799.23423874,338893.743582961,-30008.2616940028)
(-1637244.71995138,361390.78114313,-87541.8714436614)
(-1952370.50753523,432839.49218671,-136438.095194324)
(-3197974.72407666,586122.936288105,436195.603541064)
(-2606923.31462768,376559.917677278,344654.549896198)
(-2728008.02619604,138576.936596049,-733276.424580305)
(-2877167.71420676,1001.72726296949,-5325967.1115935)
(0,0,0)
(0,0,0)
(0,0,0)
(0,0,0)
(0,0,0)
(0,0,0)
(-2115234.56999718,-660237.463990009,2434.25544524483)
(-2119583.63489534,-661261.992485113,3304.08483571076)
(-2130557.34723807,-662224.521238372,579.504680005493)
(-2154951.01276003,-660226.432455791,-7575.06036588261)
(-2210818.6609901,-649753.964404464,-16137.9304771692)
(-2344429.61073435,-625173.487140988,16781.13066654)
(-2636459.35579889,-607240.543569297,226528.743241157)
(-2732432.66561524,-743069.646703113,106421.945974085)
(-2983937.94171179,-866023.016938098,-871112.863979682)
(-3031168.0864532,-752862.364872679,-5327227.89073496)
(0,0,0)
(0,0,0)
(0,0,0)
(0,0,0)
(0,0,0)
(0,0,0)
(-2590605.50119522,-5208600.70917105,1340.49779429407)
(-2592732.37495833,-5209904.49442637,2252.24192207317)
(-2597994.3575111,-5212059.25935021,2447.44859181001)
(-2609245.76512558,-5214324.08668438,2753.35035198518)
(-2633242.81479893,-5216888.82740459,8347.63911908505)
(-2683579.9457148,-5225086.98649649,34595.1175501861)
(-2776584.88637221,-5259555.01038559,90598.3383975504)
(-2880196.24552887,-5350020.48705975,-16706.73346251)
(-3032075.91396243,-5333125.61385731,-758158.986797537)
(-2926095.12713155,-4574784.67663007,-4574563.34041339)
(0,0,0)
(0,0,0)
(0,0,0)
(0,0,0)
(0,0,0)
(0,0,0)
(0,0,0)
(0,0,0)
(0,0,0)
(0,0,0)
(0,0,0)
(0,0,0)
(0,0,0)
(0,0,0)
(0,0,0)
(0,0,0)
(0,0,0)
(0,0,0)
(0,0,0)
(0,0,0)
(0,0,0)
(0,0,0)
(0,0,0)
(0,0,0)
(0,0,0)
(0,0,0)
(0,0,0)
(0,0,0)
(0,0,0)
(0,0,0)
(0,0,0)
(0,0,0)
(0,0,0)
(0,0,0)
(0,0,0)
(0,0,0)
(0,0,0)
(0,0,0)
(0,0,0)
(0,0,0)
(0,0,0)
(0,0,0)
(0,0,0)
(0,0,0)
(0,0,0)
(0,0,0)
(0,0,0)
(0,0,0)
(0,0,0)
(0,0,0)
(0,0,0)
(0,0,0)
(0,0,0)
(0,0,0)
(0,0,0)
(0,0,0)
(0,0,0)
(0,0,0)
(0,0,0)
(0,0,0)
(0,0,0)
(0,0,0)
(0,0,0)
(0,0,0)
(0,0,0)
(0,0,0)
(0,0,0)
(0,0,0)
(0,0,0)
(0,0,0)
(0,0,0)
(0,0,0)
(0,0,0)
(0,0,0)
(0,0,0)
(0,0,0)
(0,0,0)
(0,0,0)
(0,0,0)
(0,0,0)
(0,0,0)
(0,0,0)
(0,0,0)
(0,0,0)
(0,0,0)
(0,0,0)
(0,0,0)
(0,0,0)
(0,0,0)
(0,0,0)
(0,0,0)
(0,0,0)
(0,0,0)
(0,0,0)
(0,0,0)
(0,0,0)
(0,0,0)
(0,0,0)
(0,0,0)
(0,0,0)
(0,0,0)
(0,0,0)
(-420148.843750014,36261.4214084381,28743.0274557742)
(-432705.713184883,33355.8439630445,58161.7481223903)
(-460299.234454851,26814.5358751059,88346.6117953388)
(-508391.99237301,14953.4773986334,117840.478186804)
(-585863.9018609,-4513.90255944539,140670.829190105)
(-704888.070217649,-32382.1264785494,137673.481075858)
(-875938.511766792,-60316.8394126807,51250.5315101879)
(-1087937.97376048,-60395.7435071313,-269950.418565416)
(-1257475.96166236,-37126.3629488469,-1085619.93280948)
(-1092679.50528032,-15786.5484100236,-2563918.21284327)
(0,0,0)
(0,0,0)
(0,0,0)
(0,0,0)
(0,0,0)
(0,0,0)
(-434237.450485018,73948.9280843295,25872.4562979975)
(-446095.450961077,68484.7934346679,51612.1828004547)
(-472160.688851328,55873.7242426084,76464.7143147659)
(-517725.180149117,31853.9084164651,98345.2374293079)
(-591682.230644323,-11383.1797806163,112769.97432239)
(-707290.794752214,-83528.7053804719,109672.948636822)
(-877241.394135855,-175051.904418592,51084.8465034388)
(-1082803.32381329,-172905.688702109,-246702.197566732)
(-1249115.56876592,-92497.3397593802,-1064276.32476478)
(-1087522.26097327,-35234.1351765589,-2548221.1162636)
(0,0,0)
(0,0,0)
(0,0,0)
(0,0,0)
(0,0,0)
(0,0,0)
(-465148.941788053,113234.541652373,20476.4353953888)
(-475658.155610864,106143.68037542,39015.6696874226)
(-498701.074111418,89288.1191204876,52422.40613364)
(-539042.421751186,55092.5068282756,55075.686839922)
(-605640.601221983,-15002.7944370393,40572.761608298)
(-716531.677659424,-163934.745339372,18055.5954106488)
(-903830.630108745,-450192.093716219,53145.6739765307)
(-1083208.95585059,-445003.475599514,-166339.231350583)
(-1228892.289418,-180811.782731599,-1007023.38220716)
(-1074980.79517908,-56558.59781222,-2513090.82611842)
(0,0,0)
(0,0,0)
(0,0,0)
(0,0,0)
(0,0,0)
(0,0,0)
(-518503.325192518,150885.929488496,13431.5574658614)
(-527125.132092481,143758.126575048,22160.0907121075)
(-545732.498823847,126723.514356437,18179.8289681329)
(-577563.518051949,91189.6584742293,-15131.0195179064)
(-629780.01966438,10452.2060816217,-108495.969618468)
(-732729.198813505,-218424.599783822,-268313.969906864)
(-1105324.17023005,-1105251.8771264,58257.6813986043)
(-1163274.34851911,-1163405.67680274,97750.9589107693)
(-1181927.6382291,-265961.760196676,-882866.283177678)
(-1049721.60850274,-60049.4687622036,-2456642.23381315)
(0,0,0)
(0,0,0)
(0,0,0)
(0,0,0)
(0,0,0)
(0,0,0)
(-602889.744284555,175885.847287274,6283.13671696172)
(-609270.113226115,170378.994531587,5075.10069532351)
(-622353.658163369,157941.469706615,-17414.4479801251)
(-641152.688284137,134777.913450263,-95962.3659248477)
(-654447.05754753,92859.8869617642,-337466.282355774)
(-589741.543458799,23774.8668846603,-1155219.84828361)
(8.38962221350565e-05,2.23060641564898e-05,-5.56704617170072e-05)