/*--------------------------------*- C++ -*----------------------------------*\
| =========                 |                                                 |
| \\      /  F ield         | foam-extend: Open Source CFD                    |
|  \\    /   O peration     | Version:     4.0                                |
|   \\  /    A nd           | Web:         http://www.foam-extend.org         |
|    \\/     M anipulation  |                                                 |
\*---------------------------------------------------------------------------*/
FoamFile
{
    version 2.0;
    format ascii;
    class volVectorField;
    location "1775";
    object      H;
}
// * * * * * * * * * * * * * * * * * * * * * * * * * * * * * * * * * * * * * //

dimensions      [0 1 -1 0 0 0 0];

internalField   nonuniform List<vector>
4096
(
(0,0,0)
(0,0,0)
(0,0,0)
(0,0,0)
(0,0,0)
(0,0,0)
(0,0,0)
(0,0,0)
(0,0,0)
(0,0,0)
(0,0,0)
(0,0,0)
(0,0,0)
(0,0,0)
(0,0,0)
(0,0,0)
(0,0,0)
(0,0,0)
(0,0,0)
(0,0,0)
(0,0,0)
(0,0,0)
(0,0,0)
(0,0,0)
(0,0,0)
(0,0,0)
(0,0,0)
(0,0,0)
(0,0,0)
(0,0,0)
(0,0,0)
(0,0,0)
(0,0,0)
(0,0,0)
(0,0,0)
(0,0,0)
(0,0,0)
(0,0,0)
(0,0,0)
(0,0,0)
(0,0,0)
(0,0,0)
(0,0,0)
(0,0,0)
(0,0,0)
(0,0,0)
(0,0,0)
(0,0,0)
(0,0,0)
(0,0,0)
(0,0,0)
(0,0,0)
(0,0,0)
(0,0,0)
(0,0,0)
(0,0,0)
(0,0,0)
(0,0,0)
(0,0,0)
(0,0,0)
(0,0,0)
(0,0,0)
(0,0,0)
(0,0,0)
(0,0,0)
(0,0,0)
(0,0,0)
(0,0,0)
(0,0,0)
(0,0,0)
(0,0,0)
(0,0,0)
(0,0,0)
(0,0,0)
(0,0,0)
(0,0,0)
(0,0,0)
(0,0,0)
(0,0,0)
(0,0,0)
(0,0,0)
(0,0,0)
(0,0,0)
(0,0,0)
(0,0,0)
(0,0,0)
(0,0,0)
(0,0,0)
(0,0,0)
(0,0,0)
(0,0,0)
(0,0,0)
(0,0,0)
(0,0,0)
(0,0,0)
(0,0,0)
(0,0,0)
(0,0,0)
(0,0,0)
(0,0,0)
(0,0,0)
(0,0,0)
(0,0,0)
(0,0,0)
(0,0,0)
(0,0,0)
(0,0,0)
(0,0,0)
(0,0,0)
(0,0,0)
(0,0,0)
(0,0,0)
(0,0,0)
(0,0,0)
(0,0,0)
(0,0,0)
(0,0,0)
(0,0,0)
(0,0,0)
(0,0,0)
(0,0,0)
(0,0,0)
(0,0,0)
(0,0,0)
(0,0,0)
(0,0,0)
(0,0,0)
(0,0,0)
(0,0,0)
(0,0,0)
(0,0,0)
(0,0,0)
(0,0,0)
(0,0,0)
(0,0,0)
(0,0,0)
(0,0,0)
(0,0,0)
(0,0,0)
(0,0,0)
(0,0,0)
(0,0,0)
(0,0,0)
(0,0,0)
(0,0,0)
(0,0,0)
(0,0,0)
(0,0,0)
(0,0,0)
(0,0,0)
(0,0,0)
(0,0,0)
(0,0,0)
(0,0,0)
(0,0,0)
(0,0,0)
(0,0,0)
(0,0,0)
(0,0,0)
(0,0,0)
(0,0,0)
(0,0,0)
(0,0,0)
(0,0,0)
(0,0,0)
(0,0,0)
(0,0,0)
(0,0,0)
(0,0,0)
(0,0,0)
(0,0,0)
(0,0,0)
(0,0,0)
(0,0,0)
(0,0,0)
(0,0,0)
(0,0,0)
(0,0,0)
(0,0,0)
(0,0,0)
(0,0,0)
(0,0,0)
(0,0,0)
(0,0,0)
(0,0,0)
(0,0,0)
(0,0,0)
(0,0,0)
(0,0,0)
(0,0,0)
(0,0,0)
(0,0,0)
(0,0,0)
(0,0,0)
(0,0,0)
(0,0,0)
(0,0,0)
(0,0,0)
(0,0,0)
(0,0,0)
(0,0,0)
(0,0,0)
(0,0,0)
(0,0,0)
(0,0,0)
(0,0,0)
(0,0,0)
(0,0,0)
(0,0,0)
(0,0,0)
(0,0,0)
(0,0,0)
(0,0,0)
(0,0,0)
(0,0,0)
(0,0,0)
(0,0,0)
(0,0,0)
(0,0,0)
(0,0,0)
(0,0,0)
(0,0,0)
(0,0,0)
(0,0,0)
(0,0,0)
(0,0,0)
(0,0,0)
(0,0,0)
(0,0,0)
(0,0,0)
(0,0,0)
(0,0,0)
(0,0,0)
(0,0,0)
(0,0,0)
(0,0,0)
(0,0,0)
(0,0,0)
(0,0,0)
(0,0,0)
(0,0,0)
(0,0,0)
(0,0,0)
(0,0,0)
(0,0,0)
(0,0,0)
(0,0,0)
(0,0,0)
(0,0,0)
(0,0,0)
(0,0,0)
(0,0,0)
(0,0,0)
(0,0,0)
(0,0,0)
(0,0,0)
(0,0,0)
(0,0,0)
(0,0,0)
(0,0,0)
(0,0,0)
(0,0,0)
(0,0,0)
(0,0,0)
(0,0,0)
(0,0,0)
(0,0,0)
(0,0,0)
(0,0,0)
(0,0,0)
(0,0,0)
(0,0,0)
(0,0,0)
(0,0,0)
(0,0,0)
(0,0,0)
(0,0,0)
(0,0,0)
(0,0,0)
(0,0,0)
(0,0,0)
(0,0,0)
(0,0,0)
(0,0,0)
(0,0,0)
(0,0,0)
(0,0,0)
(0,0,0)
(0,0,0)
(0,0,0)
(0,0,0)
(0,0,0)
(0,0,0)
(0,0,0)
(0,0,0)
(0,0,0)
(0,0,0)
(0,0,0)
(0,0,0)
(0,0,0)
(0,0,0)
(0,0,0)
(0,0,0)
(0,0,0)
(0,0,0)
(0,0,0)
(0,0,0)
(0,0,0)
(0,0,0)
(0,0,0)
(0,0,0)
(0,0,0)
(0,0,0)
(0,0,0)
(0,0,0)
(0,0,0)
(0,0,0)
(0,0,0)
(0,0,0)
(0,0,0)
(0,0,0)
(0,0,0)
(0,0,0)
(0,0,0)
(0,0,0)
(0,0,0)
(0,0,0)
(0,0,0)
(0,0,0)
(0,0,0)
(0,0,0)
(0,0,0)
(0,0,0)
(0,0,0)
(0,0,0)
(0,0,0)
(0,0,0)
(0,0,0)
(0,0,0)
(0,0,0)
(0,0,0)
(0,0,0)
(0,0,0)
(0,0,0)
(0,0,0)
(0,0,0)
(0,0,0)
(0,0,0)
(0,0,0)
(0,0,0)
(0,0,0)
(0,0,0)
(0,0,0)
(0,0,0)
(0,0,0)
(0,0,0)
(0,0,0)
(0,0,0)
(0,0,0)
(0,0,0)
(0,0,0)
(0,0,0)
(0,0,0)
(0,0,0)
(0,0,0)
(0,0,0)
(0,0,0)
(0,0,0)
(0,0,0)
(0,0,0)
(0,0,0)
(0,0,0)
(0,0,0)
(0,0,0)
(0,0,0)
(0,0,0)
(0,0,0)
(0,0,0)
(0,0,0)
(0,0,0)
(0,0,0)
(0,0,0)
(0,0,0)
(0,0,0)
(0,0,0)
(0,0,0)
(0,0,0)
(0,0,0)
(0,0,0)
(0,0,0)
(0,0,0)
(0,0,0)
(0,0,0)
(0,0,0)
(0,0,0)
(0,0,0)
(0,0,0)
(0,0,0)
(0,0,0)
(0,0,0)
(0,0,0)
(0,0,0)
(0,0,0)
(0,0,0)
(0,0,0)
(0,0,0)
(0,0,0)
(0,0,0)
(0,0,0)
(0,0,0)
(0,0,0)
(0,0,0)
(0,0,0)
(0,0,0)
(0,0,0)
(0,0,0)
(0,0,0)
(0,0,0)
(0,0,0)
(0,0,0)
(0,0,0)
(0,0,0)
(0,0,0)
(0,0,0)
(0,0,0)
(0,0,0)
(0,0,0)
(0,0,0)
(0,0,0)
(0,0,0)
(0,0,0)
(0,0,0)
(0,0,0)
(0,0,0)
(0,0,0)
(0,0,0)
(0,0,0)
(0,0,0)
(0,0,0)
(0,0,0)
(0,0,0)
(0,0,0)
(0,0,0)
(0,0,0)
(0,0,0)
(0,0,0)
(0,0,0)
(0,0,0)
(0,0,0)
(0,0,0)
(0,0,0)
(0,0,0)
(0,0,0)
(0,0,0)
(0,0,0)
(0,0,0)
(0,0,0)
(0,0,0)
(0,0,0)
(0,0,0)
(0,0,0)
(0,0,0)
(0,0,0)
(0,0,0)
(0,0,0)
(0,0,0)
(0,0,0)
(0,0,0)
(0,0,0)
(0,0,0)
(0,0,0)
(0,0,0)
(0,0,0)
(0,0,0)
(0,0,0)
(0,0,0)
(0,0,0)
(0,0,0)
(0,0,0)
(0,0,0)
(0,0,0)
(0,0,0)
(0,0,0)
(0,0,0)
(0,0,0)
(0,0,0)
(0,0,0)
(0,0,0)
(0,0,0)
(0,0,0)
(0,0,0)
(0,0,0)
(0,0,0)
(0,0,0)
(0,0,0)
(0,0,0)
(0,0,0)
(0,0,0)
(0,0,0)
(0,0,0)
(0,0,0)
(0,0,0)
(0,0,0)
(0,0,0)
(0,0,0)
(0,0,0)
(0,0,0)
(0,0,0)
(0,0,0)
(0,0,0)
(0,0,0)
(0,0,0)
(0,0,0)
(0,0,0)
(0,0,0)
(0,0,0)
(0,0,0)
(0,0,0)
(0,0,0)
(0,0,0)
(0,0,0)
(0,0,0)
(0,0,0)
(0,0,0)
(0,0,0)
(0,0,0)
(0,0,0)
(0,0,0)
(0,0,0)
(0,0,0)
(0,0,0)
(0,0,0)
(0,0,0)
(0,0,0)
(0,0,0)
(0,0,0)
(0,0,0)
(0,0,0)
(0,0,0)
(0,0,0)
(0,0,0)
(0,0,0)
(0,0,0)
(0,0,0)
(0,0,0)
(0,0,0)
(0,0,0)
(0,0,0)
(0,0,0)
(0,0,0)
(0,0,0)
(0,0,0)
(0,0,0)
(0,0,0)
(0,0,0)
(0,0,0)
(0,0,0)
(0,0,0)
(0,0,0)
(0,0,0)
(0,0,0)
(0,0,0)
(0,0,0)
(0,0,0)
(0,0,0)
(0,0,0)
(0,0,0)
(0,0,0)
(0,0,0)
(0,0,0)
(0,0,0)
(0,0,0)
(0,0,0)
(0,0,0)
(0,0,0)
(0,0,0)
(0,0,0)
(0,0,0)
(0,0,0)
(0,0,0)
(0,0,0)
(0,0,0)
(0,0,0)
(0,0,0)
(0,0,0)
(0,0,0)
(0,0,0)
(0,0,0)
(0,0,0)
(0,0,0)
(0,0,0)
(0,0,0)
(0,0,0)
(0,0,0)
(0,0,0)
(0,0,0)
(0,0,0)
(0,0,0)
(0,0,0)
(0,0,0)
(0,0,0)
(0,0,0)
(0,0,0)
(0,0,0)
(0,0,0)
(0,0,0)
(0,0,0)
(0,0,0)
(0,0,0)
(0,0,0)
(0,0,0)
(0,0,0)
(0,0,0)
(0,0,0)
(0,0,0)
(0,0,0)
(0,0,0)
(0,0,0)
(0,0,0)
(0,0,0)
(0,0,0)
(0,0,0)
(0,0,0)
(0,0,0)
(0,0,0)
(0,0,0)
(0,0,0)
(0,0,0)
(0,0,0)
(0,0,0)
(0,0,0)
(0,0,0)
(0,0,0)
(0,0,0)
(0,0,0)
(0,0,0)
(0,0,0)
(0,0,0)
(0,0,0)
(0,0,0)
(0,0,0)
(0,0,0)
(0,0,0)
(0,0,0)
(0,0,0)
(0,0,0)
(0,0,0)
(0,0,0)
(0,0,0)
(0,0,0)
(0,0,0)
(0,0,0)
(0,0,0)
(0,0,0)
(0,0,0)
(0,0,0)
(0,0,0)
(0,0,0)
(0,0,0)
(0,0,0)
(0,0,0)
(0,0,0)
(0,0,0)
(0,0,0)
(0,0,0)
(0,0,0)
(0,0,0)
(0,0,0)
(0,0,0)
(0,0,0)
(0,0,0)
(0,0,0)
(0,0,0)
(0,0,0)
(0,0,0)
(0,0,0)
(0,0,0)
(0,0,0)
(0,0,0)
(0,0,0)
(0,0,0)
(0,0,0)
(0,0,0)
(0,0,0)
(0,0,0)
(0,0,0)
(0,0,0)
(0,0,0)
(0,0,0)
(0,0,0)
(0,0,0)
(0,0,0)
(0,0,0)
(0,0,0)
(0,0,0)
(0,0,0)
(0,0,0)
(0,0,0)
(0,0,0)
(0,0,0)
(0,0,0)
(0,0,0)
(0,0,0)
(0,0,0)
(0,0,0)
(0,0,0)
(0,0,0)
(0,0,0)
(0,0,0)
(0,0,0)
(0,0,0)
(0,0,0)
(0,0,0)
(0,0,0)
(0,0,0)
(0,0,0)
(0,0,0)
(0,0,0)
(0,0,0)
(0,0,0)
(0,0,0)
(0,0,0)
(0,0,0)
(0,0,0)
(0,0,0)
(0,0,0)
(0,0,0)
(0,0,0)
(0,0,0)
(0,0,0)
(0,0,0)
(0,0,0)
(0,0,0)
(0,0,0)
(0,0,0)
(0,0,0)
(0,0,0)
(0,0,0)
(0,0,0)
(0,0,0)
(0,0,0)
(0,0,0)
(0,0,0)
(0,0,0)
(0,0,0)
(0,0,0)
(0,0,0)
(0,0,0)
(0,0,0)
(0,0,0)
(0,0,0)
(0,0,0)
(0,0,0)
(0,0,0)
(0,0,0)
(0,0,0)
(0,0,0)
(0,0,0)
(0,0,0)
(0,0,0)
(0,0,0)
(0,0,0)
(0,0,0)
(0,0,0)
(0,0,0)
(0,0,0)
(0,0,0)
(0,0,0)
(0,0,0)
(0,0,0)
(0,0,0)
(0,0,0)
(0,0,0)
(0,0,0)
(0,0,0)
(0,0,0)
(0,0,0)
(0,0,0)
(0,0,0)
(0,0,0)
(0,0,0)
(0,0,0)
(0,0,0)
(0,0,0)
(0,0,0)
(0,0,0)
(0,0,0)
(0,0,0)
(0,0,0)
(0,0,0)
(0,0,0)
(0,0,0)
(0,0,0)
(0,0,0)
(0,0,0)
(0,0,0)
(0,0,0)
(0,0,0)
(0,0,0)
(0,0,0)
(0,0,0)
(0,0,0)
(0,0,0)
(0,0,0)
(0,0,0)
(0,0,0)
(0,0,0)
(0,0,0)
(0,0,0)
(0,0,0)
(0,0,0)
(0,0,0)
(0,0,0)
(0,0,0)
(0,0,0)
(0,0,0)
(0,0,0)
(0,0,0)
(0,0,0)
(1.37808761420738e-13,-1.3476307242898e-11,1.36901475320287e-11)
(-1.00579631917803e-13,-2.93543258677295e-11,1.35735839066923e-11)
(-2.97030536210868e-14,-4.88779842268518e-11,1.26338140621286e-11)
(-4.90120097626804e-14,-7.64111292917996e-11,1.0985417218632e-11)
(5.14872741871233e-13,-1.17824704999735e-10,8.62822213376155e-12)
(3.24822079351414e-12,-1.8315829336803e-10,5.78160932747672e-12)
(6.55653055865538e-12,-2.89382523790885e-10,3.01386394960105e-12)
(8.54979437831128e-12,-4.68014152596739e-10,1.40271514702048e-12)
(8.21393647507884e-12,-7.64692042718723e-10,6.18257143484299e-13)
(7.7206937002701e-12,-1.17870141585867e-09,7.22280370895234e-14)
(0,0,0)
(0,0,0)
(0,0,0)
(0,0,0)
(0,0,0)
(0,0,0)
(-8.67593828941182e-15,-1.32677650400423e-11,2.98045060725409e-11)
(1.40419066755637e-13,-2.7905673854163e-11,2.88800231245334e-11)
(1.50323987004596e-13,-4.69124821731675e-11,2.69643542039574e-11)
(2.04572558139659e-13,-7.43649058283647e-11,2.3711467525125e-11)
(1.68099071341451e-12,-1.15680212708217e-10,1.85725221970294e-11)
(5.63670071548021e-12,-1.80936460003188e-10,1.24917237414088e-11)
(1.08016085545763e-11,-2.87723877687749e-10,7.07578802032731e-12)
(1.49900115177494e-11,-4.67021427392557e-10,3.82422282186942e-12)
(1.5210971034764e-11,-7.64383574230485e-10,2.43280496140603e-12)
(1.4094672598759e-11,-1.17838692157648e-09,1.03559479679744e-12)
(0,0,0)
(0,0,0)
(0,0,0)
(0,0,0)
(0,0,0)
(0,0,0)
(-7.36937225595018e-13,-1.22797682452787e-11,4.99546381294004e-11)
(-7.42686967732165e-13,-2.56621711906254e-11,4.83211045006179e-11)
(-1.82703427470846e-12,-4.33941849688757e-11,4.52796455227068e-11)
(-1.50988672474158e-12,-6.95133945498798e-11,4.02126292394036e-11)
(1.17709221885019e-12,-1.10176964738153e-10,3.2810932720618e-11)
(5.91460999398543e-12,-1.75874056815378e-10,2.42827827603067e-11)
(1.21408972073405e-11,-2.842667214429e-10,1.64358110250422e-11)
(1.8093732967475e-11,-4.65105957489492e-10,1.10731876955099e-11)
(1.97801800363367e-11,-7.63150062690228e-10,7.55596399941077e-12)
(1.94253816963541e-11,-1.17742278126868e-09,3.78047876115051e-12)
(0,0,0)
(0,0,0)
(0,0,0)
(0,0,0)
(0,0,0)
(0,0,0)
(-7.80629141328678e-13,-1.11105209003098e-11,7.73239845116381e-11)
(-1.78345574233777e-13,-2.3045475719981e-11,7.52823871445414e-11)
(-1.38221744073441e-12,-3.87377140344993e-11,7.1748733616325e-11)
(-8.86567051496877e-13,-6.25408768418271e-11,6.57079444408588e-11)
(2.78235741821042e-12,-1.01335814455448e-10,5.74097184530215e-11)
(7.89337415755209e-12,-1.67100782430906e-10,4.79526125941554e-11)
(1.39750795610892e-11,-2.78180929754626e-10,3.83602900461664e-11)
(2.07836422608084e-11,-4.61551456359382e-10,2.98631386047215e-11)
(2.42319076053133e-11,-7.59933095074522e-10,2.11990848354397e-11)
(2.49951253510671e-11,-1.17432201519378e-09,1.10048721078188e-11)
(0,0,0)
(0,0,0)
(0,0,0)
(0,0,0)
(0,0,0)
(0,0,0)
(-6.32584347125162e-14,-9.51541379217518e-12,1.17904104409193e-10)
(1.32558234216777e-12,-1.98791255738048e-11,1.16027799316984e-10)
(1.33683214103424e-12,-3.31243249246863e-11,1.12571627946098e-10)
(2.72340644784022e-12,-5.4144736883374e-11,1.07064838874142e-10)
(7.34872613136716e-12,-9.00532213420024e-11,9.95566725687968e-11)
(1.25298816076239e-11,-1.54268798421812e-10,9.07982130001679e-11)
(1.87396550850067e-11,-2.67371708257637e-10,8.07076316637019e-11)
(2.44059793863392e-11,-4.5313407084136e-10,6.57056823685497e-11)
(2.82321948440927e-11,-7.50535139160535e-10,4.71531974702564e-11)
(2.95631975982195e-11,-1.16391924372163e-09,2.4790683103946e-11)
(0,0,0)
(0,0,0)
(0,0,0)
(0,0,0)
(0,0,0)
(0,0,0)
(1.37421989110606e-12,-7.87558584486429e-12,1.80283650337297e-10)
(3.93817472026802e-12,-1.65835494044373e-11,1.79017207993444e-10)
(5.77023064888436e-12,-2.76075782381559e-11,1.76222306398014e-10)
(8.47888839160718e-12,-4.56415812875351e-11,1.72054323470397e-10)
(1.34002051266836e-11,-7.80671940567594e-11,1.6579047549003e-10)
(1.74057668709168e-11,-1.39904503997917e-10,1.57093676259847e-10)
(2.25843402641166e-11,-2.53725131723822e-10,1.43616526052913e-10)
(2.75209814350829e-11,-4.37499297745755e-10,1.20944334888045e-10)
(3.03084823530071e-11,-7.30565308754131e-10,8.86138946962567e-11)
(3.06074196188233e-11,-1.14060148064809e-09,4.72729513715425e-11)
(0,0,0)
(0,0,0)
(0,0,0)
(0,0,0)
(0,0,0)
(0,0,0)
(1.78652784288817e-12,-6.35538167164993e-12,2.8253536150868e-10)
(5.77469637293339e-12,-1.30052012328618e-11,2.81647914060374e-10)
(9.78210184759391e-12,-2.2130312777771e-11,2.7971745563319e-10)
(1.41280080171358e-11,-3.72843829749939e-11,2.7676299970631e-10)
(1.90798083622286e-11,-6.58822840479327e-11,2.71722612526063e-10)
(2.25754498206711e-11,-1.23037229446115e-10,2.62352039092626e-10)
(2.63793410285425e-11,-2.31962483800029e-10,2.42642904185446e-10)
(3.00224225504927e-11,-4.07796753416879e-10,2.09947900059748e-10)
(3.18280946558802e-11,-6.91744862721897e-10,1.57174787167975e-10)
(3.18425956702054e-11,-1.09518912617526e-09,8.55896393168212e-11)
(0,0,0)
(0,0,0)
(0,0,0)
(0,0,0)
(0,0,0)
(0,0,0)
(2.93941688244569e-12,-4.99768380688005e-12,4.57070656601009e-10)
(7.89708347840998e-12,-9.74065216814287e-12,4.56390008735933e-10)
(1.28728218986411e-11,-1.71996005302817e-11,4.54894841008276e-10)
(1.78234306775784e-11,-3.02662553386667e-11,4.52056411599426e-10)
(2.25991544646267e-11,-5.53297984136705e-11,4.46441819649749e-10)
(2.60435809506804e-11,-1.05110177326621e-10,4.34510829101904e-10)
(2.87253014890252e-11,-1.99048524072166e-10,4.0881977560237e-10)
(3.07192172046671e-11,-3.55730265455646e-10,3.59896811446029e-10)
(3.29385160995793e-11,-6.21517306311641e-10,2.78367035159923e-10)
(3.36753483163548e-11,-1.01111258423585e-09,1.57817229302926e-10)
(0,0,0)
(0,0,0)
(0,0,0)
(0,0,0)
(0,0,0)
(0,0,0)
(3.87223152885168e-12,-3.57394768948818e-12,7.51310467191471e-10)
(8.428308071578e-12,-6.75083221206917e-12,7.50316016324955e-10)
(1.38907397589501e-11,-1.20491914459762e-11,7.48107093964331e-10)
(1.92151180021931e-11,-2.21012240013132e-11,7.44487242911433e-10)
(2.35697443740148e-11,-4.1334148006352e-11,7.37137487031298e-10)
(2.69583170572157e-11,-7.88684385684906e-11,7.20869741396974e-10)
(2.98618117046421e-11,-1.49263914034602e-10,6.87026340595732e-10)
(3.18023207874359e-11,-2.74330254907404e-10,6.20981661009495e-10)
(3.38723938967799e-11,-5.01617203125017e-10,5.023680370557e-10)
(3.54433984271968e-11,-8.54387578086583e-10,3.02040022901084e-10)
(0,0,0)
(0,0,0)
(0,0,0)
(0,0,0)
(0,0,0)
(0,0,0)
(4.2365946244529e-12,-1.77988876986621e-12,1.16456035423688e-09)
(8.96581508188693e-12,-3.52170992813302e-12,1.16313103290839e-09)
(1.53592328017522e-11,-6.32641705674002e-12,1.16025103476489e-09)
(2.12956639804214e-11,-1.20614620437505e-11,1.15618019737203e-09)
(2.4832755812923e-11,-2.26939036945001e-11,1.14729854241803e-09)
(2.85627535166586e-11,-4.30358301063534e-11,1.1275250472349e-09)
(3.09309388495353e-11,-8.17745223281265e-11,1.08773595242975e-09)
(3.25660456366435e-11,-1.55521340430231e-10,1.00820550613256e-09)
(3.49510981975292e-11,-3.01567229617188e-10,8.53436511877813e-10)
(3.72249843343281e-11,-5.52693103355992e-10,5.52060524643217e-10)
(0,0,0)
(0,0,0)
(0,0,0)
(0,0,0)
(0,0,0)
(0,0,0)
(0,0,0)
(0,0,0)
(0,0,0)
(0,0,0)
(0,0,0)
(0,0,0)
(0,0,0)
(0,0,0)
(0,0,0)
(0,0,0)
(0,0,0)
(0,0,0)
(0,0,0)
(0,0,0)
(0,0,0)
(0,0,0)
(0,0,0)
(0,0,0)
(0,0,0)
(0,0,0)
(0,0,0)
(0,0,0)
(0,0,0)
(0,0,0)
(0,0,0)
(0,0,0)
(0,0,0)
(0,0,0)
(0,0,0)
(0,0,0)
(0,0,0)
(0,0,0)
(0,0,0)
(0,0,0)
(0,0,0)
(0,0,0)
(0,0,0)
(0,0,0)
(0,0,0)
(0,0,0)
(0,0,0)
(0,0,0)
(0,0,0)
(0,0,0)
(0,0,0)
(0,0,0)
(0,0,0)
(0,0,0)
(0,0,0)
(0,0,0)
(0,0,0)
(0,0,0)
(0,0,0)
(0,0,0)
(0,0,0)
(0,0,0)
(0,0,0)
(0,0,0)
(0,0,0)
(0,0,0)
(0,0,0)
(0,0,0)
(0,0,0)
(0,0,0)
(0,0,0)
(0,0,0)
(0,0,0)
(0,0,0)
(0,0,0)
(0,0,0)
(0,0,0)
(0,0,0)
(0,0,0)
(0,0,0)
(0,0,0)
(0,0,0)
(0,0,0)
(0,0,0)
(0,0,0)
(0,0,0)
(0,0,0)
(0,0,0)
(0,0,0)
(0,0,0)
(0,0,0)
(0,0,0)
(0,0,0)
(0,0,0)
(0,0,0)
(0,0,0)
(0,0,0)
(0,0,0)
(0,0,0)
(0,0,0)
(0,0,0)
(0,0,0)
(4.58301838979795e-14,-2.58293641268155e-11,2.65901375125187e-11)
(-6.0946180092314e-13,-5.45854885636816e-11,2.59531118487914e-11)
(-3.46808263835552e-13,-9.04231806486137e-11,2.35750802007028e-11)
(2.61959611670321e-13,-1.40759600788622e-10,1.95728288575882e-11)
(1.21699325659909e-12,-2.15191426709668e-10,1.43441305238803e-11)
(3.79413280658458e-12,-3.28669113488854e-10,8.26550089296379e-12)
(6.50903325816715e-12,-5.09091864653219e-10,2.91543323592659e-12)
(8.34152717748166e-12,-8.18845332456728e-10,2.7981577770081e-13)
(8.45149709292083e-12,-1.41141926256744e-09,-6.9160230867759e-13)
(7.47842745470798e-12,-2.77080771403623e-09,-4.7542280986575e-13)
(0,0,0)
(0,0,0)
(0,0,0)
(0,0,0)
(0,0,0)
(0,0,0)
(-7.21897850441902e-14,-2.52700607055844e-11,5.59634399849925e-11)
(-1.87414676201754e-13,-5.22453787223592e-11,5.39091836811704e-11)
(-1.15086538444679e-13,-8.67212719098767e-11,4.93396381030193e-11)
(4.92006607746716e-13,-1.36098489992426e-10,4.18488016062636e-11)
(2.25854119896914e-12,-2.09997104729055e-10,3.1274047367158e-11)
(5.99023324873484e-12,-3.23964000226738e-10,1.87040067584288e-11)
(1.05960175080679e-11,-5.06794473438805e-10,7.43823256237823e-12)
(1.44659594753958e-11,-8.18315963883504e-10,2.14176836614418e-12)
(1.53746696594952e-11,-1.41206416111418e-09,8.47562909225522e-13)
(1.41661270879508e-11,-2.7714169116963e-09,4.11184071015953e-13)
(0,0,0)
(0,0,0)
(0,0,0)
(0,0,0)
(0,0,0)
(0,0,0)
(-2.72650941780164e-13,-2.34860081251988e-11,9.24110641661463e-11)
(-3.17923460461336e-13,-4.8217631468495e-11,8.9314284265119e-11)
(-1.41648892576579e-12,-8.01155374361195e-11,8.2676275783993e-11)
(-1.08070791400827e-12,-1.26555766579702e-10,7.16916189702024e-11)
(8.64091896405736e-13,-1.98374789076317e-10,5.65790975208128e-11)
(4.98830734477663e-12,-3.1306170477478e-10,3.79928646016273e-11)
(1.14177288486236e-11,-5.01354786851397e-10,1.98827683345946e-11)
(1.80564555333431e-11,-8.17316261234581e-10,1.1722366672293e-11)
(2.03386976586185e-11,-1.41224193569933e-09,8.62874490537298e-12)
(2.01050943824226e-11,-2.77171116749161e-09,4.91350605204982e-12)
(0,0,0)
(0,0,0)
(0,0,0)
(0,0,0)
(0,0,0)
(0,0,0)
(-3.34138882367624e-13,-2.08283339935782e-11,1.42495173028536e-10)
(1.88957807804676e-13,-4.23998007581176e-11,1.38222081237713e-10)
(-9.5481737508824e-13,-7.03492468804321e-11,1.30741934927528e-10)
(-9.84481022104497e-13,-1.12151613481591e-10,1.18456488054455e-10)
(9.56870163621445e-13,-1.79479728751974e-10,1.01510659488516e-10)
(4.65371269645761e-12,-2.93239896713164e-10,7.9886836831395e-11)
(1.16630095055043e-11,-4.90165123128313e-10,5.65479659780809e-11)
(2.10303105121416e-11,-8.15055296605604e-10,4.31135681575075e-11)
(2.50281644194006e-11,-1.41056618217797e-09,3.19576404364526e-11)
(2.55972259875543e-11,-2.76902562346636e-09,1.74955733443143e-11)
(0,0,0)
(0,0,0)
(0,0,0)
(0,0,0)
(0,0,0)
(0,0,0)
(1.73218710185894e-13,-1.69839884193617e-11,2.14135263787625e-10)
(1.48617754368378e-12,-3.52121451203329e-11,2.09922978759695e-10)
(1.32687452645802e-12,-5.83827295210471e-11,2.03034562486633e-10)
(1.72841715734494e-12,-9.40148890364214e-11,1.92426536784388e-10)
(4.12115841476402e-12,-1.53682573111342e-10,1.77860569041384e-10)
(8.25616852017145e-12,-2.61484530051196e-10,1.6067125439129e-10)
(2.00950278463859e-11,-4.64205529768883e-10,1.45139428562775e-10)
(2.73236911892003e-11,-8.05059112154896e-10,1.14056079799185e-10)
(3.06248788039611e-11,-1.39948808973684e-09,8.09691431744388e-11)
(3.10361176281825e-11,-2.75467213744722e-09,4.2877800564081e-11)
(0,0,0)
(0,0,0)
(0,0,0)
(0,0,0)
(0,0,0)
(0,0,0)
(1.12045806174445e-12,-1.319144820862e-11,3.22241166642726e-10)
(3.15472814412114e-12,-2.81654208464341e-11,3.19378621461519e-10)
(4.46094811611111e-12,-4.66812319225015e-11,3.13941618254496e-10)
(6.38553805943857e-12,-7.57244683457665e-11,3.06017192156319e-10)
(9.91209434804777e-12,-1.27419126467284e-10,2.94972453407012e-10)
(1.40156425260241e-11,-2.30456466581046e-10,2.80313605187154e-10)
(2.3493883505225e-11,-4.42656817449987e-10,2.59971517557415e-10)
(3.0148877297997e-11,-7.81023883972318e-10,2.17372884650371e-10)
(3.28289796454345e-11,-1.36704222910764e-09,1.57147259401768e-10)
(3.24680165177951e-11,-2.71555590717046e-09,8.32239189433376e-11)
(0,0,0)
(0,0,0)
(0,0,0)
(0,0,0)
(0,0,0)
(0,0,0)
(1.31627742642357e-12,-1.01234021190157e-11,4.96004646708635e-10)
(4.44060573539921e-12,-2.16104301983115e-11,4.94207689014021e-10)
(7.80584552698672e-12,-3.60076240692947e-11,4.9054925565899e-10)
(1.21502675610493e-11,-5.90324349742175e-11,4.85794811092043e-10)
(1.78978961614265e-11,-1.02335488826549e-10,4.79490234660569e-10)
(2.43575326083787e-11,-1.9495282841395e-10,4.67341193268324e-10)
(2.61603854264304e-11,-4.04748141062745e-10,4.30762758775088e-10)
(3.07290474808687e-11,-7.28543353381686e-10,3.77981644780632e-10)
(3.3185686096412e-11,-1.29811497199384e-09,2.79557152814824e-10)
(3.33556930482078e-11,-2.63583530456646e-09,1.50893513254884e-10)
(0,0,0)
(0,0,0)
(0,0,0)
(0,0,0)
(0,0,0)
(0,0,0)
(2.19632863013027e-12,-7.93108436508263e-12,7.98563072852111e-10)
(6.40243124999387e-12,-1.64962832777862e-11,7.97314361526354e-10)
(1.05608422231879e-11,-2.78271025149911e-11,7.94525284970299e-10)
(1.52729912899029e-11,-4.75727603729002e-11,7.90415748199523e-10)
(2.05344946051267e-11,-8.75378862651252e-11,7.83918767726051e-10)
(2.54928956921132e-11,-1.73349720754196e-10,7.68914943077472e-10)
(2.7863655607828e-11,-3.50747197286373e-10,7.28787751077411e-10)
(3.08489829423567e-11,-6.31795564454085e-10,6.40487446522373e-10)
(3.35882187701103e-11,-1.17160013493953e-09,4.93471874056053e-10)
(3.47675714693795e-11,-2.48752102853033e-09,2.80977403684353e-10)
(0,0,0)
(0,0,0)
(0,0,0)
(0,0,0)
(0,0,0)
(0,0,0)
(3.07262347574575e-12,-5.92212886278937e-12,1.38756926333922e-09)
(7.4081081482674e-12,-1.1925328278863e-11,1.38567725883278e-09)
(1.17878164226132e-11,-1.9972722880884e-11,1.38163812807491e-09)
(1.65251119247701e-11,-3.55196900705528e-11,1.37592386955031e-09)
(2.11972456965001e-11,-6.75320067080456e-11,1.36544699574078e-09)
(2.49691093962959e-11,-1.33356847183539e-10,1.34105642053398e-09)
(2.84170995844016e-11,-2.61078291628459e-10,1.28516016036025e-09)
(3.16070302640441e-11,-4.84590626937037e-10,1.16881986015194e-09)
(3.41504345434961e-11,-9.59773627608201e-10,9.61030060709411e-10)
(3.57889465978185e-11,-2.2082649903429e-09,6.01404078425419e-10)
(0,0,0)
(0,0,0)
(0,0,0)
(0,0,0)
(0,0,0)
(0,0,0)
(3.88602718306868e-12,-3.22368232457386e-12,2.74618198791862e-09)
(8.32410329725586e-12,-6.58387142759706e-12,2.74346768766201e-09)
(1.31036531378684e-11,-1.09514150743525e-11,2.73821201554143e-09)
(1.81158568906753e-11,-1.99133550311434e-11,2.73126731657486e-09)
(2.19123473015473e-11,-3.77323738954714e-11,2.71735757079365e-09)
(2.53160182154433e-11,-7.33039539343304e-11,2.68573796840381e-09)
(2.86868628185908e-11,-1.42066137209071e-10,2.61794735326823e-09)
(3.18136994612054e-11,-2.75728421379872e-10,2.47947309482377e-09)
(3.47598558149395e-11,-5.99941316387846e-10,2.20547063033785e-09)
(3.65924056216588e-11,-1.6071030933194e-09,1.6062777678795e-09)
(0,0,0)
(0,0,0)
(0,0,0)
(0,0,0)
(0,0,0)
(0,0,0)
(0,0,0)
(0,0,0)
(0,0,0)
(0,0,0)
(0,0,0)
(0,0,0)
(0,0,0)
(0,0,0)
(0,0,0)
(0,0,0)
(0,0,0)
(0,0,0)
(0,0,0)
(0,0,0)
(0,0,0)
(0,0,0)
(0,0,0)
(0,0,0)
(0,0,0)
(0,0,0)
(0,0,0)
(0,0,0)
(0,0,0)
(0,0,0)
(0,0,0)
(0,0,0)
(0,0,0)
(0,0,0)
(0,0,0)
(0,0,0)
(0,0,0)
(0,0,0)
(0,0,0)
(0,0,0)
(0,0,0)
(0,0,0)
(0,0,0)
(0,0,0)
(0,0,0)
(0,0,0)
(0,0,0)
(0,0,0)
(0,0,0)
(0,0,0)
(0,0,0)
(0,0,0)
(0,0,0)
(0,0,0)
(0,0,0)
(0,0,0)
(0,0,0)
(0,0,0)
(0,0,0)
(0,0,0)
(0,0,0)
(0,0,0)
(0,0,0)
(0,0,0)
(0,0,0)
(0,0,0)
(0,0,0)
(0,0,0)
(0,0,0)
(0,0,0)
(0,0,0)
(0,0,0)
(0,0,0)
(0,0,0)
(0,0,0)
(0,0,0)
(0,0,0)
(0,0,0)
(0,0,0)
(0,0,0)
(0,0,0)
(0,0,0)
(0,0,0)
(0,0,0)
(0,0,0)
(0,0,0)
(0,0,0)
(0,0,0)
(0,0,0)
(0,0,0)
(0,0,0)
(0,0,0)
(0,0,0)
(0,0,0)
(0,0,0)
(0,0,0)
(0,0,0)
(0,0,0)
(0,0,0)
(0,0,0)
(0,0,0)
(0,0,0)
(1.23552426383477e-13,-3.48335575838699e-11,3.57008041394408e-11)
(-5.71539994361246e-13,-7.300862130039e-11,3.43599747739088e-11)
(-4.64656588344192e-14,-1.21147134030477e-10,3.08791121292171e-11)
(8.2954714932895e-13,-1.85885353427e-10,2.520737195259e-11)
(2.10130090660478e-12,-2.77477314264288e-10,1.71413643481731e-11)
(4.43908720193799e-12,-4.10177237869559e-10,6.94464438353012e-12)
(6.84725950135986e-12,-6.03681166609493e-10,-2.12894893389564e-12)
(8.78357669058217e-12,-8.87449700591424e-10,-4.94965305223727e-12)
(8.88021614094586e-12,-1.29181769081427e-09,-4.18177103183059e-12)
(7.61220230482401e-12,-1.78483218496353e-09,-1.89849607751066e-12)
(0,0,0)
(0,0,0)
(0,0,0)
(0,0,0)
(0,0,0)
(0,0,0)
(1.98013938263012e-13,-3.3913145415425e-11,7.40620972882082e-11)
(3.54383647553196e-13,-7.0246633903463e-11,7.08759514076337e-11)
(7.70015483464298e-13,-1.16220887495467e-10,6.42488916012794e-11)
(1.52403743491372e-12,-1.78784359211524e-10,5.32613513192967e-11)
(3.20626615487893e-12,-2.68880485878795e-10,3.68735103616804e-11)
(6.35371199323965e-12,-4.02785034766911e-10,1.52172492585774e-11)
(1.04527951155287e-11,-6.02300720214522e-10,-5.47680518601589e-12)
(1.47604622847549e-11,-8.89463791892101e-10,-1.06332352141869e-11)
(1.59888230828858e-11,-1.29471472873771e-09,-7.44654378333953e-12)
(1.48715669543289e-11,-1.78705660260439e-09,-3.20195157040914e-12)
(0,0,0)
(0,0,0)
(0,0,0)
(0,0,0)
(0,0,0)
(0,0,0)
(1.66454825671919e-13,-3.13685960225542e-11,1.21202605623033e-10)
(5.02254311416728e-13,-6.45008051206895e-11,1.16953886406895e-10)
(-1.98122667337709e-13,-1.06412848661862e-10,1.07707528604442e-10)
(-3.72339563112392e-13,-1.63909831973828e-10,9.14387402933923e-11)
(5.55264491215047e-13,-2.49345660234795e-10,6.67221923664456e-11)
(3.27659555016895e-12,-3.84527323126549e-10,3.14390413088449e-11)
(8.38846678880957e-12,-5.99233323437264e-10,-7.83030964034504e-12)
(1.88891126703096e-11,-8.95726219280944e-10,-1.18189321652874e-11)
(2.23781829914266e-11,-1.30098669887021e-09,-4.17833986313468e-12)
(2.23330564085676e-11,-1.7915950254218e-09,-1.54089400979255e-14)
(0,0,0)
(0,0,0)
(0,0,0)
(0,0,0)
(0,0,0)
(0,0,0)
(9.46073337528951e-14,-2.75608262221938e-11,1.85689541069551e-10)
(4.81448481316427e-13,-5.58102181511337e-11,1.80105830854019e-10)
(-6.35887861939325e-13,-9.12198840786717e-11,1.69669126734542e-10)
(-2.17537690215824e-12,-1.40291275595158e-10,1.51350626435396e-10)
(-3.21646281925962e-12,-2.15563380115084e-10,1.22147566163174e-10)
(-3.76278311259856e-12,-3.4626892879577e-10,7.68607471854092e-11)
(-8.62186033265068e-13,-5.90389391156326e-10,1.52110552544347e-11)
(2.21900537829318e-11,-9.08897385757296e-10,1.58225424132266e-11)
(2.8412139070651e-11,-1.30987456190291e-09,2.07993371447313e-11)
(2.87393133121753e-11,-1.79482537969223e-09,1.44361409522966e-11)
(0,0,0)
(0,0,0)
(0,0,0)
(0,0,0)
(0,0,0)
(0,0,0)
(5.92963527453227e-13,-2.22906664585344e-11,2.74799858221455e-10)
(1.32786954348259e-12,-4.52593649841773e-11,2.69362934119329e-10)
(2.33402629158784e-13,-7.25121856411046e-11,2.59670418165741e-10)
(-1.99603579030072e-12,-1.0976633348981e-10,2.43669375834869e-10)
(-4.95297357822013e-12,-1.66871906231922e-10,2.19619830307819e-10)
(-7.24006912232861e-12,-2.71383461940113e-10,1.91021874395738e-10)
(2.96296642902511e-11,-5.1889330411521e-10,2.00314974855867e-10)
(3.63753996312735e-11,-9.21097323186053e-10,1.3272606261577e-10)
(3.62703607866969e-11,-1.31136916911263e-09,9.14548634100737e-11)
(3.47976879151247e-11,-1.78517387231845e-09,4.85460443440386e-11)
(0,0,0)
(0,0,0)
(0,0,0)
(0,0,0)
(0,0,0)
(0,0,0)
(9.14957154236315e-13,-1.70017273556564e-11,4.01546347283961e-10)
(2.03674070264883e-12,-3.46575841565951e-11,3.97451206320375e-10)
(1.7117663607022e-12,-5.40146415770901e-11,3.8964785703105e-10)
(7.38243438373887e-13,-7.97078464983024e-11,3.78148795273256e-10)
(-5.12695073765548e-13,-1.20846779511993e-10,3.62641164793492e-10)
(-1.14590801145206e-12,-2.15548931780391e-10,3.43668050421212e-10)
(2.81838400256841e-11,-5.21388026054517e-10,3.44480454942438e-10)
(3.78939719552192e-11,-9.0651519561102e-10,2.76459398332969e-10)
(3.78250629907586e-11,-1.27915764322199e-09,1.92940103320362e-10)
(3.59713328562056e-11,-1.74173983599792e-09,9.9787958300425e-11)
(0,0,0)
(0,0,0)
(0,0,0)
(0,0,0)
(0,0,0)
(0,0,0)
(9.20917367817532e-13,-1.24051283767063e-11,5.84418768355391e-10)
(2.98489216920876e-12,-2.51477473727063e-11,5.81739382337774e-10)
(4.37976853980167e-12,-3.82015662154923e-11,5.77052697531325e-10)
(6.99516939136121e-12,-5.39943911398941e-11,5.73002785258263e-10)
(1.52493349925641e-11,-7.64499864565588e-11,5.73686259697939e-10)
(3.93328594414729e-11,-1.34835920014959e-10,5.81018949010372e-10)
(2.49405556446118e-11,-4.79474979353925e-10,5.06786353550786e-10)
(3.24057505186876e-11,-8.46568543442458e-10,4.88765671282909e-10)
(3.53344886024666e-11,-1.19566516044767e-09,3.39437210253358e-10)
(3.59349302673396e-11,-1.64649982010718e-09,1.74612715031417e-10)
(0,0,0)
(0,0,0)
(0,0,0)
(0,0,0)
(0,0,0)
(0,0,0)
(1.43608445396394e-12,-8.97733278270022e-12,8.55704934110666e-10)
(4.62055280713664e-12,-1.84442720817912e-11,8.54124896125073e-10)
(6.81599935923953e-12,-2.87267923870899e-11,8.51299442858346e-10)
(9.71690146237953e-12,-4.39293148963442e-11,8.49483096969753e-10)
(1.5532439695766e-11,-7.60051275436932e-11,8.51662763263603e-10)
(2.56272141218721e-11,-1.67062500972656e-10,8.5701772583191e-10)
(2.64950545048596e-11,-4.34572970467054e-10,8.37452350244292e-10)
(3.06596178904971e-11,-6.99586144865185e-10,7.13300012777779e-10)
(3.42561818109694e-11,-1.0336347094917e-09,5.1998750770788e-10)
(3.64889369668202e-11,-1.47382388783163e-09,2.80652417180606e-10)
(0,0,0)
(0,0,0)
(0,0,0)
(0,0,0)
(0,0,0)
(0,0,0)
(2.26618144384179e-12,-6.52412355476657e-12,1.25380782419481e-09)
(6.10578205477544e-12,-1.32311144479043e-11,1.25172198375712e-09)
(8.4807671413001e-12,-2.12028768532073e-11,1.24822355294029e-09)
(1.13956506950316e-11,-3.56174832402946e-11,1.24426772280933e-09)
(1.57881880911639e-11,-6.77242264144897e-11,1.23815584458671e-09)
(2.08124763204244e-11,-1.44398286538447e-10,1.22180339293538e-09)
(2.57452453733088e-11,-3.06072404506358e-10,1.16889785895412e-09)
(3.05346241481286e-11,-5.06109842383939e-10,1.02739772026468e-09)
(3.39441056079721e-11,-7.9445063430869e-10,7.95775474430083e-10)
(3.60311279996515e-11,-1.19340944420952e-09,4.57628233354182e-10)
(0,0,0)
(0,0,0)
(0,0,0)
(0,0,0)
(0,0,0)
(0,0,0)
(3.37664511447343e-12,-3.59056692956658e-12,1.74570666190922e-09)
(6.99590398997522e-12,-7.39714001753607e-12,1.74309107681937e-09)
(9.0969370306287e-12,-1.20188593491823e-11,1.738488316869e-09)
(1.21122476402717e-11,-2.11024031680378e-11,1.73246505356994e-09)
(1.57995757963581e-11,-4.0338347561689e-11,1.71979170624536e-09)
(1.98026794162962e-11,-8.1898590025228e-11,1.68906273171572e-09)
(2.50949840541599e-11,-1.60140299552788e-10,1.61540737046756e-09)
(3.00877425661833e-11,-2.73072192774648e-10,1.46000593191602e-09)