/*--------------------------------*- C++ -*----------------------------------*\
| =========                 |                                                 |
| \\      /  F ield         | foam-extend: Open Source CFD                    |
|  \\    /   O peration     | Version:     4.0                                |
|   \\  /    A nd           | Web:         http://www.foam-extend.org         |
|    \\/     M anipulation  |                                                 |
\*---------------------------------------------------------------------------*/
FoamFile
{
    version 2.0;
    format ascii;
    class volVectorField;
    location "Data/3626";
    object      E;
}
// * * * * * * * * * * * * * * * * * * * * * * * * * * * * * * * * * * * * * //

dimensions      [0 1 -1 0 0 0 0];

internalField   nonuniform List<vector>
4096
(
(0,0,0)
(0,0,0)
(0,0,0)
(0,0,0)
(0,0,0)
(0,0,0)
(0,0,0)
(0,0,0)
(0,0,0)
(0,0,0)
(0,0,0)
(0,0,0)
(0,0,0)
(0,0,0)
(0,0,0)
(0,0,0)
(0,0,0)
(0,0,0)
(0,0,0)
(0,0,0)
(0,0,0)
(0,0,0)
(0,0,0)
(0,0,0)
(0,0,0)
(0,0,0)
(0,0,0)
(0,0,0)
(0,0,0)
(0,0,0)
(0,0,0)
(0,0,0)
(0,0,0)
(0,0,0)
(0,0,0)
(0,0,0)
(0,0,0)
(0,0,0)
(0,0,0)
(0,0,0)
(0,0,0)
(0,0,0)
(0,0,0)
(0,0,0)
(0,0,0)
(0,0,0)
(0,0,0)
(0,0,0)
(0,0,0)
(0,0,0)
(0,0,0)
(0,0,0)
(0,0,0)
(0,0,0)
(0,0,0)
(0,0,0)
(0,0,0)
(0,0,0)
(0,0,0)
(0,0,0)
(0,0,0)
(0,0,0)
(0,0,0)
(0,0,0)
(0,0,0)
(0,0,0)
(0,0,0)
(0,0,0)
(0,0,0)
(0,0,0)
(0,0,0)
(0,0,0)
(0,0,0)
(0,0,0)
(0,0,0)
(0,0,0)
(0,0,0)
(0,0,0)
(0,0,0)
(0,0,0)
(0,0,0)
(0,0,0)
(0,0,0)
(0,0,0)
(0,0,0)
(0,0,0)
(0,0,0)
(0,0,0)
(0,0,0)
(0,0,0)
(0,0,0)
(0,0,0)
(0,0,0)
(0,0,0)
(0,0,0)
(0,0,0)
(0,0,0)
(0,0,0)
(0,0,0)
(0,0,0)
(0,0,0)
(0,0,0)
(0,0,0)
(0,0,0)
(0,0,0)
(0,0,0)
(0,0,0)
(0,0,0)
(0,0,0)
(0,0,0)
(0,0,0)
(0,0,0)
(0,0,0)
(0,0,0)
(0,0,0)
(0,0,0)
(0,0,0)
(0,0,0)
(0,0,0)
(0,0,0)
(0,0,0)
(0,0,0)
(0,0,0)
(0,0,0)
(0,0,0)
(0,0,0)
(0,0,0)
(0,0,0)
(0,0,0)
(0,0,0)
(0,0,0)
(0,0,0)
(0,0,0)
(0,0,0)
(0,0,0)
(0,0,0)
(0,0,0)
(0,0,0)
(0,0,0)
(0,0,0)
(0,0,0)
(0,0,0)
(0,0,0)
(0,0,0)
(0,0,0)
(0,0,0)
(0,0,0)
(0,0,0)
(0,0,0)
(0,0,0)
(0,0,0)
(0,0,0)
(0,0,0)
(0,0,0)
(0,0,0)
(0,0,0)
(0,0,0)
(0,0,0)
(0,0,0)
(0,0,0)
(0,0,0)
(0,0,0)
(0,0,0)
(0,0,0)
(0,0,0)
(0,0,0)
(0,0,0)
(0,0,0)
(0,0,0)
(0,0,0)
(0,0,0)
(0,0,0)
(0,0,0)
(0,0,0)
(0,0,0)
(0,0,0)
(0,0,0)
(0,0,0)
(0,0,0)
(0,0,0)
(0,0,0)
(0,0,0)
(0,0,0)
(0,0,0)
(0,0,0)
(0,0,0)
(0,0,0)
(0,0,0)
(0,0,0)
(0,0,0)
(0,0,0)
(0,0,0)
(0,0,0)
(0,0,0)
(0,0,0)
(0,0,0)
(0,0,0)
(0,0,0)
(0,0,0)
(0,0,0)
(0,0,0)
(0,0,0)
(0,0,0)
(0,0,0)
(0,0,0)
(0,0,0)
(0,0,0)
(0,0,0)
(0,0,0)
(0,0,0)
(0,0,0)
(0,0,0)
(0,0,0)
(0,0,0)
(0,0,0)
(0,0,0)
(0,0,0)
(0,0,0)
(0,0,0)
(0,0,0)
(0,0,0)
(0,0,0)
(0,0,0)
(0,0,0)
(0,0,0)
(0,0,0)
(0,0,0)
(0,0,0)
(0,0,0)
(0,0,0)
(0,0,0)
(0,0,0)
(0,0,0)
(0,0,0)
(0,0,0)
(0,0,0)
(0,0,0)
(0,0,0)
(0,0,0)
(0,0,0)
(0,0,0)
(0,0,0)
(0,0,0)
(0,0,0)
(0,0,0)
(0,0,0)
(0,0,0)
(0,0,0)
(0,0,0)
(0,0,0)
(0,0,0)
(0,0,0)
(0,0,0)
(0,0,0)
(0,0,0)
(0,0,0)
(0,0,0)
(0,0,0)
(0,0,0)
(0,0,0)
(0,0,0)
(0,0,0)
(0,0,0)
(0,0,0)
(0,0,0)
(0,0,0)
(0,0,0)
(0,0,0)
(0,0,0)
(0,0,0)
(0,0,0)
(0,0,0)
(0,0,0)
(0,0,0)
(0,0,0)
(0,0,0)
(0,0,0)
(0,0,0)
(0,0,0)
(0,0,0)
(0,0,0)
(0,0,0)
(0,0,0)
(0,0,0)
(0,0,0)
(0,0,0)
(0,0,0)
(0,0,0)
(0,0,0)
(0,0,0)
(0,0,0)
(0,0,0)
(0,0,0)
(0,0,0)
(0,0,0)
(0,0,0)
(0,0,0)
(0,0,0)
(0,0,0)
(0,0,0)
(0,0,0)
(0,0,0)
(0,0,0)
(0,0,0)
(0,0,0)
(0,0,0)
(0,0,0)
(0,0,0)
(0,0,0)
(0,0,0)
(0,0,0)
(0,0,0)
(0,0,0)
(0,0,0)
(0,0,0)
(0,0,0)
(0,0,0)
(0,0,0)
(0,0,0)
(0,0,0)
(0,0,0)
(0,0,0)
(0,0,0)
(0,0,0)
(0,0,0)
(0,0,0)
(0,0,0)
(0,0,0)
(0,0,0)
(0,0,0)
(0,0,0)
(0,0,0)
(0,0,0)
(0,0,0)
(0,0,0)
(0,0,0)
(0,0,0)
(0,0,0)
(0,0,0)
(0,0,0)
(0,0,0)
(0,0,0)
(0,0,0)
(0,0,0)
(0,0,0)
(0,0,0)
(0,0,0)
(0,0,0)
(0,0,0)
(0,0,0)
(0,0,0)
(0,0,0)
(0,0,0)
(0,0,0)
(0,0,0)
(0,0,0)
(0,0,0)
(0,0,0)
(0,0,0)
(0,0,0)
(0,0,0)
(0,0,0)
(0,0,0)
(0,0,0)
(0,0,0)
(0,0,0)
(0,0,0)
(0,0,0)
(0,0,0)
(0,0,0)
(0,0,0)
(0,0,0)
(0,0,0)
(0,0,0)
(0,0,0)
(0,0,0)
(0,0,0)
(0,0,0)
(0,0,0)
(0,0,0)
(0,0,0)
(0,0,0)
(0,0,0)
(0,0,0)
(0,0,0)
(0,0,0)
(0,0,0)
(0,0,0)
(0,0,0)
(0,0,0)
(0,0,0)
(0,0,0)
(0,0,0)
(0,0,0)
(0,0,0)
(0,0,0)
(0,0,0)
(0,0,0)
(0,0,0)
(0,0,0)
(0,0,0)
(0,0,0)
(0,0,0)
(0,0,0)
(0,0,0)
(0,0,0)
(0,0,0)
(0,0,0)
(0,0,0)
(0,0,0)
(0,0,0)
(0,0,0)
(0,0,0)
(0,0,0)
(0,0,0)
(0,0,0)
(0,0,0)
(0,0,0)
(0,0,0)
(0,0,0)
(0,0,0)
(0,0,0)
(0,0,0)
(0,0,0)
(0,0,0)
(0,0,0)
(0,0,0)
(0,0,0)
(0,0,0)
(0,0,0)
(0,0,0)
(0,0,0)
(0,0,0)
(0,0,0)
(0,0,0)
(0,0,0)
(0,0,0)
(0,0,0)
(0,0,0)
(0,0,0)
(0,0,0)
(0,0,0)
(0,0,0)
(0,0,0)
(0,0,0)
(0,0,0)
(0,0,0)
(0,0,0)
(0,0,0)
(0,0,0)
(0,0,0)
(0,0,0)
(0,0,0)
(0,0,0)
(0,0,0)
(0,0,0)
(0,0,0)
(0,0,0)
(0,0,0)
(0,0,0)
(0,0,0)
(0,0,0)
(0,0,0)
(0,0,0)
(0,0,0)
(0,0,0)
(0,0,0)
(0,0,0)
(0,0,0)
(0,0,0)
(0,0,0)
(0,0,0)
(0,0,0)
(0,0,0)
(0,0,0)
(0,0,0)
(0,0,0)
(0,0,0)
(0,0,0)
(0,0,0)
(0,0,0)
(0,0,0)
(0,0,0)
(0,0,0)
(0,0,0)
(0,0,0)
(0,0,0)
(0,0,0)
(0,0,0)
(0,0,0)
(0,0,0)
(0,0,0)
(0,0,0)
(0,0,0)
(0,0,0)
(0,0,0)
(0,0,0)
(0,0,0)
(0,0,0)
(0,0,0)
(0,0,0)
(0,0,0)
(0,0,0)
(0,0,0)
(0,0,0)
(0,0,0)
(0,0,0)
(0,0,0)
(0,0,0)
(0,0,0)
(0,0,0)
(0,0,0)
(0,0,0)
(0,0,0)
(0,0,0)
(0,0,0)
(0,0,0)
(0,0,0)
(0,0,0)
(0,0,0)
(0,0,0)
(0,0,0)
(0,0,0)
(0,0,0)
(0,0,0)
(0,0,0)
(0,0,0)
(0,0,0)
(0,0,0)
(0,0,0)
(0,0,0)
(0,0,0)
(0,0,0)
(0,0,0)
(0,0,0)
(0,0,0)
(0,0,0)
(0,0,0)
(0,0,0)
(0,0,0)
(0,0,0)
(0,0,0)
(0,0,0)
(0,0,0)
(0,0,0)
(0,0,0)
(0,0,0)
(0,0,0)
(0,0,0)
(0,0,0)
(0,0,0)
(0,0,0)
(0,0,0)
(0,0,0)
(0,0,0)
(0,0,0)
(0,0,0)
(0,0,0)
(0,0,0)
(0,0,0)
(0,0,0)
(0,0,0)
(0,0,0)
(0,0,0)
(0,0,0)
(0,0,0)
(0,0,0)
(0,0,0)
(0,0,0)
(0,0,0)
(0,0,0)
(0,0,0)
(0,0,0)
(0,0,0)
(0,0,0)
(0,0,0)
(0,0,0)
(0,0,0)
(0,0,0)
(0,0,0)
(0,0,0)
(0,0,0)
(0,0,0)
(0,0,0)
(0,0,0)
(0,0,0)
(0,0,0)
(0,0,0)
(0,0,0)
(0,0,0)
(0,0,0)
(0,0,0)
(0,0,0)
(0,0,0)
(0,0,0)
(0,0,0)
(0,0,0)
(0,0,0)
(0,0,0)
(0,0,0)
(0,0,0)
(0,0,0)
(0,0,0)
(0,0,0)
(0,0,0)
(0,0,0)
(0,0,0)
(0,0,0)
(0,0,0)
(0,0,0)
(0,0,0)
(0,0,0)
(0,0,0)
(0,0,0)
(0,0,0)
(0,0,0)
(0,0,0)
(0,0,0)
(0,0,0)
(0,0,0)
(0,0,0)
(0,0,0)
(0,0,0)
(0,0,0)
(0,0,0)
(0,0,0)
(0,0,0)
(0,0,0)
(0,0,0)
(0,0,0)
(0,0,0)
(0,0,0)
(0,0,0)
(0,0,0)
(0,0,0)
(0,0,0)
(0,0,0)
(0,0,0)
(0,0,0)
(0,0,0)
(0,0,0)
(0,0,0)
(0,0,0)
(0,0,0)
(0,0,0)
(0,0,0)
(0,0,0)
(0,0,0)
(0,0,0)
(0,0,0)
(0,0,0)
(0,0,0)
(0,0,0)
(0,0,0)
(0,0,0)
(0,0,0)
(0,0,0)
(0,0,0)
(0,0,0)
(0,0,0)
(0,0,0)
(0,0,0)
(0,0,0)
(0,0,0)
(0,0,0)
(0,0,0)
(0,0,0)
(0,0,0)
(0,0,0)
(0,0,0)
(0,0,0)
(0,0,0)
(0,0,0)
(0,0,0)
(0,0,0)
(0,0,0)
(0,0,0)
(0,0,0)
(0,0,0)
(0,0,0)
(0,0,0)
(0,0,0)
(0,0,0)
(0,0,0)
(0,0,0)
(0,0,0)
(0,0,0)
(0,0,0)
(0,0,0)
(0,0,0)
(0,0,0)
(0,0,0)
(0,0,0)
(0,0,0)
(0,0,0)
(0,0,0)
(0,0,0)
(0,0,0)
(0,0,0)
(0,0,0)
(0,0,0)
(0,0,0)
(0,0,0)
(0,0,0)
(0,0,0)
(0,0,0)
(0,0,0)
(0,0,0)
(0,0,0)
(0,0,0)
(0,0,0)
(0,0,0)
(0,0,0)
(0,0,0)
(0,0,0)
(0,0,0)
(0,0,0)
(0,0,0)
(0,0,0)
(0,0,0)
(0,0,0)
(0,0,0)
(0,0,0)
(0,0,0)
(0,0,0)
(0,0,0)
(0,0,0)
(0,0,0)
(0,0,0)
(0,0,0)
(0,0,0)
(0,0,0)
(0,0,0)
(0,0,0)
(0,0,0)
(0,0,0)
(0,0,0)
(0,0,0)
(0,0,0)
(0,0,0)
(0,0,0)
(0,0,0)
(0,0,0)
(0,0,0)
(0,0,0)
(0,0,0)
(0,0,0)
(0,0,0)
(0,0,0)
(0,0,0)
(0,0,0)
(0,0,0)
(0,0,0)
(0,0,0)
(0,0,0)
(0,0,0)
(0,0,0)
(0,0,0)
(0,0,0)
(0,0,0)
(0,0,0)
(0,0,0)
(0,0,0)
(0,0,0)
(0,0,0)
(0,0,0)
(0,0,0)
(0,0,0)
(0,0,0)
(0,0,0)
(0,0,0)
(0,0,0)
(0,0,0)
(0,0,0)
(0,0,0)
(0,0,0)
(0,0,0)
(0,0,0)
(0,0,0)
(0,0,0)
(0,0,0)
(0,0,0)
(0,0,0)
(0,0,0)
(0,0,0)
(0,0,0)
(0,0,0)
(0,0,0)
(0,0,0)
(0,0,0)
(0,0,0)
(0,0,0)
(0,0,0)
(0,0,0)
(0,0,0)
(0,0,0)
(0,0,0)
(0,0,0)
(0,0,0)
(0,0,0)
(0,0,0)
(0,0,0)
(0,0,0)
(0,0,0)
(0,0,0)
(0,0,0)
(0,0,0)
(0,0,0)
(0,0,0)
(0,0,0)
(0,0,0)
(0,0,0)
(0,0,0)
(0,0,0)
(0,0,0)
(0,0,0)
(0,0,0)
(0,0,0)
(0,0,0)
(-220963.471229188,117361.649847362,103601.821381825)
(-233655.514032197,112483.843675768,224773.491738252)
(-263053.135134867,102394.654550299,385431.972322816)
(-318645.644103184,86573.529314497,617504.087111515)
(-418913.265434321,65219.3099926332,971198.042553201)
(-598858.008836654,40646.1658151546,1529409.88557471)
(-924718.796755084,18319.8321001386,2435808.85022968)
(-1513653.92487478,4600.55646846262,3944862.218636)
(-2496449.87210938,-0.832906011703562,6441312.92365134)
(-3478284.81489198,-368.935176753405,9919966.67372015)
(0,0,0)
(0,0,0)
(0,0,0)
(0,0,0)
(0,0,0)
(0,0,0)
(-233709.260025465,252317.416217157,98753.4936556688)
(-246510.07142684,243126.628571094,214620.780187183)
(-276391.477737869,223926.712603533,369480.199871817)
(-333296.989904032,193338.29567834,596012.423412004)
(-436314.755413636,151072.201881974,946474.2869363)
(-620567.744094369,100798.892239408,1506889.3046064)
(-950040.025933019,53273.6257448121,2421975.53689474)
(-1536760.6942453,23138.6788530125,3940198.10875543)
(-2511882.0719201,11253.8747523194,6440825.47301728)
(-3485521.38111221,5749.21224964498,9920228.70670298)
(0,0,0)
(0,0,0)
(0,0,0)
(0,0,0)
(0,0,0)
(0,0,0)
(-262792.166244626,425480.453569476,89629.1288923059)
(-275815.407520275,413151.311560086,195419.853423593)
(-306648.8289499,387135.89910904,338859.495867992)
(-366379.089822224,344900.151076791,553676.730291765)
(-475983.684339645,284665.533184816,896067.083328555)
(-671704.631423638,209446.016294372,1459124.59069723)
(-1012553.61718804,133289.818446596,2391662.01518351)
(-1594372.57505228,80960.1839826626,3928213.08510608)
(-2549011.10871991,53325.0371771153,6435153.03140124)
(-3502360.35618323,28903.6679536149,9914358.93188055)
(0,0,0)
(0,0,0)
(0,0,0)
(0,0,0)
(0,0,0)
(0,0,0)
(-317014.688724248,665161.404623829,77333.7376698954)
(-330260.337091553,651439.151617203,169306.234704333)
(-362308.324963019,622263.797712469,296486.661063915)
(-426175.693965223,574285.528281515,493276.977824403)
(-546671.865443821,504008.79732191,820605.579131146)
(-764372.325471233,411687.938703462,1382735.98219328)
(-1132296.97202044,309154.643857473,2339168.12880283)
(-1705752.67376412,225417.349165913,3900463.63738368)
(-2616962.36649204,160151.903614269,6410599.13743849)
(-3532014.29350806,86168.4900070365,9885348.60889336)
(0,0,0)
(0,0,0)
(0,0,0)
(0,0,0)
(0,0,0)
(0,0,0)
(-414238.558787216,1015774.80647966,63625.156931383)
(-427441.973544721,1002441.2358688,140065.046224503)
(-460128.662305315,974058.275346383,248399.230895905)
(-527459.877811978,927308.330284174,422836.306705227)
(-659202.592202384,858016.031724316,728031.6645052)
(-904112.272479404,763866.506393652,1279965.3692944)
(-1314624.8508387,648474.869167767,2255269.99482281)
(-1875274.93079489,520882.901764031,3835079.3730196)
(-2715651.9963322,374408.058771867,6336475.21419431)
(-3574817.9136506,198450.643516573,9799010.97433538)
(0,0,0)
(0,0,0)
(0,0,0)
(0,0,0)
(0,0,0)
(0,0,0)
(-589760.498570618,1555236.93632459,50298.3687256933)
(-602315.597607457,1543376.76494849,111678.437253457)
(-633931.369218327,1518089.7498656,201578.331952567)
(-700608.661256502,1476033.76567965,353461.557813581)
(-833766.856270804,1411495.18075841,633749.265050304)
(-1083347.08686092,1316506.62947271,1164456.22883217)
(-1495119.33215195,1180481.92078636,2127568.50936553)
(-2030316.80492399,990240.162958513,3688528.05309506)
(-2822531.09027964,725048.35634361,6160418.84580298)
(-3628674.00481389,387066.344417423,9600477.14971598)
(0,0,0)
(0,0,0)
(0,0,0)
(0,0,0)
(0,0,0)
(0,0,0)
(-912029.266986106,2428804.16003776,38462.0432729334)
(-923131.610755232,2418568.87271952,86401.5462571484)
(-951476.755450556,2396545.06039397,159422.991179338)
(-1012395.20967348,2358947.68654406,288904.279988406)
(-1136105.33807159,2297802.67192686,538702.126891539)
(-1370624.84707661,2197442.65208506,1028390.95135581)
(-1757072.49152112,2028668.49775725,1937276.86590605)
(-2243724.67062876,1747878.81385526,3423362.88563805)
(-2981783.31191393,1307786.33519666,5822408.21869893)
(-3716521.97274602,712585.749994104,9213410.78586834)
(0,0,0)
(0,0,0)
(0,0,0)
(0,0,0)
(0,0,0)
(0,0,0)
(-1501344.38360244,3901901.80987055,28246.7337696302)
(-1510204.97583063,3892599.0705604,64421.5117593723)
(-1533028.12622979,3872130.98000692,121863.718376227)
(-1582576.19702665,3835528.75275624,227858.849190682)
(-1684253.36428129,3771560.68270062,438354.202698217)
(-1879235.46432804,3655410.04808429,859622.271027007)
(-2202891.43592613,3434700.44977568,1656481.75493465)
(-2596827.92710441,3017862.6796789,2983325.81621547)
(-3270838.17422317,2334748.52725124,5227201.79838405)
(-3884466.29092236,1323403.20697841,8500850.63232206)
(0,0,0)
(0,0,0)
(0,0,0)
(0,0,0)
(0,0,0)
(0,0,0)
(-2488092.17427469,6371030.44929725,18963.5348479924)
(-2494142.06373989,6361723.1295999,43981.5395483703)
(-2509655.8596832,6340431.70460329,85336.6746351548)
(-2542971.8654379,6299884.35278529,163952.940043982)
(-2610134.69554536,6223440.23290135,322208.085388624)
(-2736313.26478272,6075016.65460005,638914.743655599)
(-2948160.38929709,5782162.41073887,1239613.17198951)
(-3262834.74810184,5220105.43263872,2300205.16713155)
(-3804020.98167146,4223077.05872263,4215897.6173315)
(-4177436.81024795,2539145.17218292,7177592.46237493)
(0,0,0)
(0,0,0)
(0,0,0)
(0,0,0)
(0,0,0)
(0,0,0)
(-3474482.78989682,9835853.07693496,9660.16225911025)
(-3477507.97970767,9826197.55693252,22693.7146341383)
(-3485225.31242239,9803544.00037347,44806.731286354)
(-3501582.7260543,9758751.31452389,87522.4956020983)
(-3534089.82030515,9671275.01842482,173777.530383809)
(-3594858.48292683,9497583.3644749,346069.303435731)
(-3700863.52385592,9151547.62007265,677547.61795786)
(-3879492.53810455,8473973.22691245,1303172.36178864)
(-4176486.44277302,7170749.56827713,2531986.29500707)
(-4206090.33157457,4638678.61058846,4638543.18817617)
(0,0,0)
(0,0,0)
(0,0,0)
(0,0,0)
(0,0,0)
(0,0,0)
(0,0,0)
(0,0,0)
(0,0,0)
(0,0,0)
(0,0,0)
(0,0,0)
(0,0,0)
(0,0,0)
(0,0,0)
(0,0,0)
(0,0,0)
(0,0,0)
(0,0,0)
(0,0,0)
(0,0,0)
(0,0,0)
(0,0,0)
(0,0,0)
(0,0,0)
(0,0,0)
(0,0,0)
(0,0,0)
(0,0,0)
(0,0,0)
(0,0,0)
(0,0,0)
(0,0,0)
(0,0,0)
(0,0,0)
(0,0,0)
(0,0,0)
(0,0,0)
(0,0,0)
(0,0,0)
(0,0,0)
(0,0,0)
(0,0,0)
(0,0,0)
(0,0,0)
(0,0,0)
(0,0,0)
(0,0,0)
(0,0,0)
(0,0,0)
(0,0,0)
(0,0,0)
(0,0,0)
(0,0,0)
(0,0,0)
(0,0,0)
(0,0,0)
(0,0,0)
(0,0,0)
(0,0,0)
(0,0,0)
(0,0,0)
(0,0,0)
(0,0,0)
(0,0,0)
(0,0,0)
(0,0,0)
(0,0,0)
(0,0,0)
(0,0,0)
(0,0,0)
(0,0,0)
(0,0,0)
(0,0,0)
(0,0,0)
(0,0,0)
(0,0,0)
(0,0,0)
(0,0,0)
(0,0,0)
(0,0,0)
(0,0,0)
(0,0,0)
(0,0,0)
(0,0,0)
(0,0,0)
(0,0,0)
(0,0,0)
(0,0,0)
(0,0,0)
(0,0,0)
(0,0,0)
(0,0,0)
(0,0,0)
(0,0,0)
(0,0,0)
(0,0,0)
(0,0,0)
(0,0,0)
(0,0,0)
(0,0,0)
(0,0,0)
(32619562.7195972,104635.723058947,90874.5580132368)
(32598293.3284208,99641.4821647504,195320.705294186)
(32549436.3061108,89083.3236123382,329784.412334748)
(32458071.377654,71947.6741126218,517156.188363512)
(32295392.8886351,47799.5929194964,791086.913273118)
(32006030.226364,18897.2202400215,1203337.92973095)
(31475078.5663279,-7041.44656473735,1846618.48511112)
(30425676.8407925,-18507.0067809987,2961831.1981234)
(28057661.0490856,-15375.3619789774,5459132.11080607)
(21626617.1741422,-7536.34718179293,13397802.9408524)
(0,0,0)
(0,0,0)
(0,0,0)
(0,0,0)
(0,0,0)
(0,0,0)
(32597882.9731335,223176.793041965,85903.1687566649)
(32576589.9835668,213777.050676788,184704.017149561)
(32527260.6236009,193618.51960735,312553.191714344)
(32434153.4580813,160173.906963225,492912.982777027)
(32267038.620196,111325.39351123,762070.278474315)
(31969539.6727598,49636.7215146619,1177259.83224413)
(31430404.1170466,-9241.46255582716,1835052.17715435)
(30385345.4443642,-34407.2326231677,2964882.73628561)
(28032551.8268103,-25776.6527975013,5466886.6002721)
(21615588.2653744,-11006.2197621078,13405283.2982642)
(0,0,0)
(0,0,0)
(0,0,0)
(0,0,0)
(0,0,0)
(0,0,0)
(32548738.4708215,371142.020356851,76540.6075174812)
(32527392.6634327,358614.114345467,164531.944794348)
(32477080.867138,331400.188297015,279057.051915408)
(32379907.8527211,285033.04514266,443947.443091387)
(32201176.473308,213946.763468034,700202.38738559)
(31879204.7365237,116798.902393726,1118167.31045784)
(31309110.3748403,13578.9182720696,1809719.40950015)
(30273948.8546528,-30368.404957472,2973395.62402803)
(27967725.4863017,-14580.4785148887,5481499.32662225)
(21588674.3551559,-708.76646701585,13416203.6338866)
(0,0,0)
(0,0,0)
(0,0,0)
(0,0,0)
(0,0,0)
(0,0,0)
(32458328.114097,567790.644141324,64045.0452928202)
(32437028.2832651,554132.539632926,137274.471547281)
(32385469.1702297,524342.36014269,232591.276407412)
(32281897.7440506,472910.955179624,372676.400253245)
(32081780.0843778,391429.413231574,602778.272566717)
(31704590.3828186,271940.12140247,1014710.81716674)
(31039586.9227114,126845.337194758,1765596.97541085)
(30020521.7855976,55920.8556049995,2989069.72738528)
(27836850.3149163,61475.073180675,5495237.9661799)
(21538384.2937841,43360.5881142882,13416806.4962052)
(0,0,0)
(0,0,0)
(0,0,0)
(0,0,0)
(0,0,0)
(0,0,0)
(32299095.0024881,840086.994672516,50406.5600920748)
(32278278.7888324,827421.205888179,107433.603358228)
(32226473.0796699,800127.456735875,181083.236688598)
(32117475.1691616,754048.109726765,291047.507066429)
(31892879.8681959,683388.638049867,483042.293748584)
(31432916.2251651,584602.329859922,869388.059545324)
(30555160.431433,467973.304938082,1694511.28142895)
(29550836.7258324,365837.869328285,2994519.08297706)
(27631846.9337972,267532.651297773,5476999.046629)
(21463673.3399372,144590.387308342,13373314.4657457)
(0,0,0)
(0,0,0)
(0,0,0)
(0,0,0)
(0,0,0)
(0,0,0)
(32015794.0843812,1232811.61064107,37757.2729781241)
(31996372.1745029,1222409.18682391,80117.9918306154)
(31947044.5934764,1200367.016635,134938.941135385)
(31840034.0061975,1164083.9114277,220296.943879224)
(31612805.9534114,1109056.91452401,384092.329621407)
(31139649.8160014,1029145.7249687,752588.503548856)
(30250783.2219818,918472.131099875,1592223.59515205)
(29290856.7723504,776796.094699383,2896128.26440518)
(27457417.2656121,565775.700675215,5353973.33103469)
(21378093.5173792,299195.175047155,13228637.4930013)
(0,0,0)
(0,0,0)
(0,0,0)
(0,0,0)
(0,0,0)
(0,0,0)
(31490222.1598049,1839260.19078966,27336.464958995)
(31473325.950797,1831263.15042585,58061.4117034525)
(31429658.5447841,1814754.95918007,98574.640822472)
(31332521.6519429,1788537.25691478,165240.905617488)
(31120642.1545243,1749456.79400528,304130.005438942)
(30668178.974009,1688670.01541963,641838.365800984)
(29806056.3526096,1582751.77860272,1450466.34606586)
(28939779.8304461,1394693.41185699,2685100.99973207)
(27199128.8486778,1018637.46266106,5087363.5490529)
(21232104.954252,544556.470815418,12929411.7981853)
(0,0,0)
(0,0,0)
(0,0,0)
(0,0,0)
(0,0,0)
(0,0,0)
(30439821.0416974,2914806.74531026,19324.492078189)
(30426519.7258291,2908345.27886564,41554.1338772348)
(30391759.6568496,2895216.02422475,72341.7576518026)
(30313275.1441299,2874861.85956242,126202.285746151)
(30138697.8487211,2845403.97185968,243340.36678787)
(29754855.4198028,2798072.64115063,535883.328824713)
(29000196.0505338,2689206.78949215,1262377.30337398)
(28435514.4902887,2351685.24280917,2309079.52692715)
(26678201.389063,1801437.77705593,4613276.1211447)
(20894213.5286459,1030349.21639137,12384840.0278991)
(0,0,0)
(0,0,0)
(0,0,0)
(0,0,0)
(0,0,0)
(0,0,0)
(28065734.1794233,5384146.89842131,12869.9650895881)
(28056776.130389,5377909.21342217,28424.3083027657)
(28033570.9689052,5364462.48004576,51987.4957919427)
(27982228.3032276,5340906.17424787,96779.4843395727)
(27872967.8210008,5299093.91445453,196023.497097054)
(27650721.5443548,5216082.82498589,427014.976023046)
(27250140.8406444,5029118.33673724,924838.670735205)
(26687683.7938627,4603186.19348079,1758855.6499977)
(25099638.135147,3850428.95430927,3842241.82782457)
(19866209.0497725,2510379.10376052,11354602.5523335)
(0,0,0)
(0,0,0)
(0,0,0)
(0,0,0)
(0,0,0)
(0,0,0)
(21629433.5455828,13309658.9799742,6608.05486603003)
(21625002.8301216,13303099.8869425,14943.0434148674)
(21613627.9550236,13288198.3787623,28390.3491509861)
(21588972.5738404,13259799.8234265,54977.8719763535)
(21538190.2511964,13204824.1979939,113003.988834052)
(21438333.0340731,13091898.6207043,240033.148014483)
(21253475.2417449,12851941.2589412,498907.932108309)
(20899487.5277018,12353021.9986671,1006128.53301445)
(19867008.6237652,11346851.708204,2502247.18448022)
(16153689.6880446,8844528.32881543,8844354.41170474)
(0,0,0)
(0,0,0)
(0,0,0)
(0,0,0)
(0,0,0)
(0,0,0)
(0,0,0)
(0,0,0)
(0,0,0)
(0,0,0)
(0,0,0)
(0,0,0)
(0,0,0)
(0,0,0)
(0,0,0)
(0,0,0)
(0,0,0)
(0,0,0)
(0,0,0)
(0,0,0)
(0,0,0)
(0,0,0)
(0,0,0)
(0,0,0)
(0,0,0)
(0,0,0)
(0,0,0)
(0,0,0)
(0,0,0)
(0,0,0)
(0,0,0)
(0,0,0)
(0,0,0)
(0,0,0)
(0,0,0)
(0,0,0)
(0,0,0)
(0,0,0)
(0,0,0)
(0,0,0)
(0,0,0)
(0,0,0)
(0,0,0)
(0,0,0)
(0,0,0)
(0,0,0)
(0,0,0)
(0,0,0)
(0,0,0)
(0,0,0)
(0,0,0)
(0,0,0)
(0,0,0)
(0,0,0)
(0,0,0)
(0,0,0)
(0,0,0)
(0,0,0)
(0,0,0)
(0,0,0)
(0,0,0)
(0,0,0)
(0,0,0)
(0,0,0)
(0,0,0)
(0,0,0)
(0,0,0)
(0,0,0)
(0,0,0)
(0,0,0)
(0,0,0)
(0,0,0)
(0,0,0)
(0,0,0)
(0,0,0)
(0,0,0)
(0,0,0)
(0,0,0)
(0,0,0)
(0,0,0)
(0,0,0)
(0,0,0)
(0,0,0)
(0,0,0)
(0,0,0)
(0,0,0)
(0,0,0)
(0,0,0)
(0,0,0)
(0,0,0)
(0,0,0)
(0,0,0)
(0,0,0)
(0,0,0)
(0,0,0)
(0,0,0)
(0,0,0)
(0,0,0)
(0,0,0)
(0,0,0)
(0,0,0)
(0,0,0)
(-568951.333156445,82906.8207561979,69570.7600988753)
(-592404.15504463,77887.9703010595,146343.801364548)
(-645402.189408252,66891.8103623923,238254.014622643)
(-741939.617822289,48024.609796585,354203.92840377)
(-907184.158405756,19390.768384856,501353.735161258)
(-1182958.27709171,-17663.7512401214,671969.517958574)
(-1634040.18431445,-51739.0962455412,796790.892948002)
(-2348112.59109941,-58822.7317311519,593366.584672507)
(-3372065.05500637,-40420.4570518871,-972523.326082286)
(-4133549.57934094,-18503.694010371,-8229889.35048734)
(0,0,0)
(0,0,0)
(0,0,0)
(0,0,0)
(0,0,0)
(0,0,0)
(-593704.044655702,173906.023550351,64551.3430963994)
(-616746.109034815,164462.23126229,135276.702838208)
(-669233.613926015,143324.295239498,219301.983589454)
(-765883.6332126,105810.664735808,325516.548045517)
(-933655.577499712,45356.2947530214,464208.747474424)
(-1216957.30088425,-40753.6140957194,637759.112075437)
(-1678692.31667529,-130523.21307883,789603.190731896)
(-2385879.35088564,-145730.713478502,611699.495830464)
(-3391033.40100763,-90520.0741652184,-950652.131136621)
(-4140272.15952215,-37872.680639896,-8211459.191509)
(0,0,0)
(0,0,0)
(0,0,0)
(0,0,0)
(0,0,0)
(0,0,0)
(-649062.412721156,280571.18386383,55099.2513306863)
(-671317.385500332,268105.150965077,114129.908662405)
(-722883.824294305,239667.001636255,181715.421799325)
(-820488.542805499,186948.356357221,264937.653805783)
(-997002.918466276,94511.9198605505,377924.948573868)
(-1309611.32396081,-57825.7664613891,547776.689525386)
(-1827981.95439031,-255924.128229925,774233.462008541)
(-2516637.95260519,-283750.787357641,666803.871247027)
(-3448474.2204053,-145407.089479951,-898145.878629683)
(-4158723.02226503,-50950.2011961539,-8173707.45255109)
(0,0,0)
(0,0,0)
(0,0,0)
(0,0,0)
(0,0,0)
(0,0,0)
(-748128.54287655,408372.523838376,42618.845100455)
(-769192.3907666,395236.923419473,85671.2747791842)
(-819338.284155189,365206.535218432,128902.723683367)
(-918984.584872246,308365.083878715,172331.853186099)
(-1115203.49542959,202448.262006404,225342.618949009)
(-1513621.81966692,228.582980076717,349464.000094489)
(-2291570.59418712,-357584.199722898,746245.116587318)
(-2944275.11555715,-413772.381800011,805027.140285824)
(-3592207.01269285,-143521.938821997,-803837.154661489)
(-4198226.39006489,-31335.847329407,-8122877.296578)
(0,0,0)
(0,0,0)
(0,0,0)
(0,0,0)
(0,0,0)
(0,0,0)
(-914578.029650146,556531.662754817,29477.4213232229)
(-933923.018000672,545304.439064232,55575.2406130067)
(-981280.127434979,520511.011152173,71987.4998853674)
(-1080957.20771588,476441.79843132,66306.6903116925)
(-1300492.42626012,403181.311606523,22909.463268868)
(-1862662.35127818,291229.502919999,-8549.3521264531)
(-3700440.04507782,163523.676988358,689906.775774431)
(-4390011.99571091,105805.895511074,1075140.74810801)
(-3873841.00733136,93078.1035917048,-691807.825075591)
(-4262859.69849161,59010.9855944047,-8091658.09146914)
(0,0,0)
(0,0,0)
(0,0,0)
(0,0,0)
(0,0,0)
(0,0,0)
(-1188974.05929042,707007.988988603,18255.3455393429)
(-1205937.62805862,699119.764018598,30713.3512479199)
(-1248349.4610764,682725.728081264,27856.2169729998)
(-1341060.49736276,656350.672817031,-6994.6257512242)
(-1554575.53459558,616708.594676491,-89176.8927127304)
(-2115416.18173632,557503.990307161,-136421.85426071)
(-3863798.66070013,473644.406429273,632002.827081554)
(-4495319.97443882,425660.537264161,1062288.46021898)
(-4004731.50793502,307453.459463103,-725974.594004016)
(-4327310.10726146,153171.097315255,-8150767.55298274)
(0,0,0)
(0,0,0)
(0,0,0)
(0,0,0)
(0,0,0)
(0,0,0)
(-1637655.79409944,788508.987870179,10340.4831241539)
(-1651627.62329353,784093.44816099,14283.9011736733)
(-1687266.475313,776487.077124991,1411.10032828215)
(-1768065.16335682,768957.309570853,-46645.1930242929)
(-1964136.53728859,767218.229139874,-148412.607573395)
(-2513463.71744145,775103.807043251,-220406.204757608)
(-4337422.09488643,776757.42054269,583922.756726576)
(-4921007.03576399,890311.43015747,944022.258144737)
(-4202723.63969313,497594.030878783,-880302.296798408)
(-4433626.73856291,206573.783181559,-8304009.76174843)
(0,0,0)
(0,0,0)
(0,0,0)
(0,0,0)
(0,0,0)
(0,0,0)
(-2353823.57059464,540189.961775628,5927.16648795985)
(-2364327.91397129,538123.25550439,6708.52704638715)
(-2391523.07101181,536562.225107547,-6120.36497340168)
(-2454908.39869208,543352.933883274,-48368.9183623886)
(-2617189.38963813,579245.149273345,-140545.072035124)
(-3121297.65312441,693533.259159433,-218857.923122761)
(-5114172.14647187,938771.327268752,697459.895258233)
(-4167632.6602202,603543.523988537,551338.480037517)
(-4360214.86036348,222638.967371151,-1171326.67892687)
(-4598151.96465133,2208.08941259611,-8510631.96375925)
(0,0,0)
(0,0,0)
(0,0,0)
(0,0,0)
(0,0,0)
(0,0,0)
(-3381027.64731398,-1052928.20600534,3843.52261963881)
(-3387833.1833321,-1054607.2484871,5146.86843366874)
(-3405229.73697426,-1056190.20136035,663.52888244275)
(-3444231.4505874,-1053079.75090814,-12480.5044097177)
(-3533648.23719409,-1036397.46172468,-26258.3071153121)
(-3747426.45290026,-996986.483731792,26372.9611321907)
(-4214761.41650991,-968213.00945767,362223.083114245)
(-4367477.13144696,-1185588.42943184,170479.489945592)
(-4768915.83086105,-1382656.29514486,-1391707.75342897)
(-4844125.47098721,-1202441.34389131,-8512760.2712639)
(0,0,0)
(0,0,0)
(0,0,0)
(0,0,0)
(0,0,0)
(0,0,0)
(-4140383.17682326,-8321267.77194403,2119.81644617154)
(-4143676.83355076,-8323353.81287246,3509.57260528189)
(-4151989.16798051,-8326833.93730626,3733.9596567463)
(-4170018.71022596,-8330579.62662085,4188.64753710445)
(-4208440.16103076,-8334735.23825045,13120.3643914677)
(-4288949.15483497,-8347756.877309,55136.4749779978)
(-4437694.57412018,-8402811.53870503,144868.348191899)
(-4603074.58887645,-8547680.18628166,-26514.2502787934)
(-4845577.45079998,-8521232.85625643,-1211388.0865007)
(-4676082.08295361,-7309941.67587995,-7310152.45541252)
(0,0,0)
(0,0,0)
(0,0,0)
(0,0,0)
(0,0,0)
(0,0,0)
(0,0,0)
(0,0,0)
(0,0,0)
(0,0,0)
(0,0,0)
(0,0,0)
(0,0,0)
(0,0,0)
(0,0,0)
(0,0,0)
(0,0,0)
(0,0,0)
(0,0,0)
(0,0,0)
(0,0,0)
(0,0,0)
(0,0,0)
(0,0,0)
(0,0,0)
(0,0,0)
(0,0,0)
(0,0,0)
(0,0,0)
(0,0,0)
(0,0,0)
(0,0,0)
(0,0,0)
(0,0,0)
(0,0,0)
(0,0,0)
(0,0,0)
(0,0,0)
(0,0,0)
(0,0,0)
(0,0,0)
(0,0,0)
(0,0,0)
(0,0,0)
(0,0,0)
(0,0,0)
(0,0,0)
(0,0,0)
(0,0,0)
(0,0,0)
(0,0,0)
(0,0,0)
(0,0,0)
(0,0,0)
(0,0,0)
(0,0,0)
(0,0,0)
(0,0,0)
(0,0,0)
(0,0,0)
(0,0,0)
(0,0,0)
(0,0,0)
(0,0,0)
(0,0,0)
(0,0,0)
(0,0,0)
(0,0,0)
(0,0,0)
(0,0,0)
(0,0,0)
(0,0,0)
(0,0,0)
(0,0,0)
(0,0,0)
(0,0,0)
(0,0,0)
(0,0,0)
(0,0,0)
(0,0,0)
(0,0,0)
(0,0,0)
(0,0,0)
(0,0,0)
(0,0,0)
(0,0,0)
(0,0,0)
(0,0,0)
(0,0,0)
(0,0,0)
(0,0,0)
(0,0,0)
(0,0,0)
(0,0,0)
(0,0,0)
(0,0,0)
(0,0,0)
(0,0,0)
(0,0,0)
(0,0,0)
(0,0,0)
(0,0,0)
(-672982.020997505,57978.3629898262,46052.3248512345)
(-692840.512112773,53360.7515551053,93127.9303642741)
(-736623.512223818,42923.5350979226,141425.718081919)
(-813078.539345935,23977.5803810255,188587.059224539)
(-936568.792937903,-7146.87336015522,225118.567116845)
(-1126511.14290439,-51678.8329088117,220350.26583834)
(-1399574.15970436,-96347.215420856,82231.4566491077)
(-1738281.77251798,-96543.6871322847,-431055.674800032)
(-2009198.37243499,-59339.9566991584,-1734582.40067222)
(-1745899.53014443,-25177.3033611921,-4097055.14650751)
(0,0,0)
(0,0,0)
(0,0,0)
(0,0,0)
(0,0,0)
(0,0,0)
(-695434.735560611,118286.682962756,41422.3709319754)
(-714211.406727272,109640.53377256,82607.8864069826)
(-755585.09585944,89489.605467095,122393.297971239)
(-827981.872722966,51072.6793539914,157396.438508632)
(-945836.910490876,-18048.5624320622,180479.460571696)
(-1130334.03803881,-133380.092463807,175557.457281261)
(-1401703.11922849,-279728.385829893,81949.4302434955)
(-1730157.8056693,-276388.45034721,-393927.351757918)
(-1995946.2387904,-147856.253264352,-1700498.21740994)
(-1737730.2605336,-56242.097620528,-4071975.32213925)
(0,0,0)
(0,0,0)
(0,0,0)
(0,0,0)
(0,0,0)
(0,0,0)
(-744785.163012969,181263.971772221,32745.4614823511)
(-761397.995513299,170027.08250512,62439.5227627568)
(-797965.475294309,143093.597163534,83917.1820663188)
(-862047.687519521,88392.9223347,88156.0837996299)
(-968168.030988084,-23721.6938544692,64994.3277438421)
(-1145188.78354552,-261854.446227195,29046.141091921)
(-1444345.73416664,-719486.085018807,85167.6200571574)
(-1731017.52150109,-711317.025368042,-265524.236026133)
(-1963783.39570156,-289026.784636272,-1609044.52935796)
(-1717810.10191276,-90349.9131152685,-4015849.63421552)
(0,0,0)
(0,0,0)
(0,0,0)
(0,0,0)
(0,0,0)
(0,0,0)
(-829977.857070352,241680.129896279,21433.1560697526)
(-843535.218371472,230337.515085042,35465.5510947112)
(-873055.679351237,203127.374543483,29149.1689108148)
(-923629.242385878,146271.094069966,-24084.3453108171)
(-1006810.62825003,17101.6933877168,-173300.599732557)
(-1171194.06371772,-348848.927280541,-428733.874628416)
(-1766522.94440883,-1766486.54054247,93218.9311169624)
(-1859464.39908255,-1859512.67771579,156603.866990102)
(-1888982.52797909,-425116.99773708,-1410530.40462285)
(-1677600.59052196,-95913.2807043613,-3925592.83657678)
(0,0,0)
(0,0,0)
(0,0,0)
(0,0,0)
(0,0,0)
(0,0,0)
(-964795.470345184,281861.49952651,10036.0710648078)
(-974801.235513554,273077.8304368,8173.97322593503)
(-995452.187990257,253232.214903197,-27758.806578492)
(-1025249.26393435,216137.907609602,-153333.563899652)
(-1046312.48518085,148986.603855882,-539398.415447091)
(-942761.889798823,38381.6662961661,-1846529.47050316)
(-3.94177748351948e-06,-1.48080035141095e-06,3.32517651450868e-06)