/*--------------------------------*- C++ -*----------------------------------*\
| =========                 |                                                 |
| \\      /  F ield         | foam-extend: Open Source CFD                    |
|  \\    /   O peration     | Version:     4.0                                |
|   \\  /    A nd           | Web:         http://www.foam-extend.org         |
|    \\/     M anipulation  |                                                 |
\*---------------------------------------------------------------------------*/
FoamFile
{
    version 2.0;
    format ascii;
    class volVectorField;
    location "3922";
    object      H;
}
// * * * * * * * * * * * * * * * * * * * * * * * * * * * * * * * * * * * * * //

dimensions      [0 1 -1 0 0 0 0];

internalField   nonuniform List<vector>
4096
(
(0,0,0)
(0,0,0)
(0,0,0)
(0,0,0)
(0,0,0)
(0,0,0)
(0,0,0)
(0,0,0)
(0,0,0)
(0,0,0)
(0,0,0)
(0,0,0)
(0,0,0)
(0,0,0)
(0,0,0)
(0,0,0)
(0,0,0)
(0,0,0)
(0,0,0)
(0,0,0)
(0,0,0)
(0,0,0)
(0,0,0)
(0,0,0)
(0,0,0)
(0,0,0)
(0,0,0)
(0,0,0)
(0,0,0)
(0,0,0)
(0,0,0)
(0,0,0)
(0,0,0)
(0,0,0)
(0,0,0)
(0,0,0)
(0,0,0)
(0,0,0)
(0,0,0)
(0,0,0)
(0,0,0)
(0,0,0)
(0,0,0)
(0,0,0)
(0,0,0)
(0,0,0)
(0,0,0)
(0,0,0)
(0,0,0)
(0,0,0)
(0,0,0)
(0,0,0)
(0,0,0)
(0,0,0)
(0,0,0)
(0,0,0)
(0,0,0)
(0,0,0)
(0,0,0)
(0,0,0)
(0,0,0)
(0,0,0)
(0,0,0)
(0,0,0)
(0,0,0)
(0,0,0)
(0,0,0)
(0,0,0)
(0,0,0)
(0,0,0)
(0,0,0)
(0,0,0)
(0,0,0)
(0,0,0)
(0,0,0)
(0,0,0)
(0,0,0)
(0,0,0)
(0,0,0)
(0,0,0)
(0,0,0)
(0,0,0)
(0,0,0)
(0,0,0)
(0,0,0)
(0,0,0)
(0,0,0)
(0,0,0)
(0,0,0)
(0,0,0)
(0,0,0)
(0,0,0)
(0,0,0)
(0,0,0)
(0,0,0)
(0,0,0)
(0,0,0)
(0,0,0)
(0,0,0)
(0,0,0)
(0,0,0)
(0,0,0)
(0,0,0)
(0,0,0)
(0,0,0)
(0,0,0)
(0,0,0)
(0,0,0)
(0,0,0)
(0,0,0)
(0,0,0)
(0,0,0)
(0,0,0)
(0,0,0)
(0,0,0)
(0,0,0)
(0,0,0)
(0,0,0)
(0,0,0)
(0,0,0)
(0,0,0)
(0,0,0)
(0,0,0)
(0,0,0)
(0,0,0)
(0,0,0)
(0,0,0)
(0,0,0)
(0,0,0)
(0,0,0)
(0,0,0)
(0,0,0)
(0,0,0)
(0,0,0)
(0,0,0)
(0,0,0)
(0,0,0)
(0,0,0)
(0,0,0)
(0,0,0)
(0,0,0)
(0,0,0)
(0,0,0)
(0,0,0)
(0,0,0)
(0,0,0)
(0,0,0)
(0,0,0)
(0,0,0)
(0,0,0)
(0,0,0)
(0,0,0)
(0,0,0)
(0,0,0)
(0,0,0)
(0,0,0)
(0,0,0)
(0,0,0)
(0,0,0)
(0,0,0)
(0,0,0)
(0,0,0)
(0,0,0)
(0,0,0)
(0,0,0)
(0,0,0)
(0,0,0)
(0,0,0)
(0,0,0)
(0,0,0)
(0,0,0)
(0,0,0)
(0,0,0)
(0,0,0)
(0,0,0)
(0,0,0)
(0,0,0)
(0,0,0)
(0,0,0)
(0,0,0)
(0,0,0)
(0,0,0)
(0,0,0)
(0,0,0)
(0,0,0)
(0,0,0)
(0,0,0)
(0,0,0)
(0,0,0)
(0,0,0)
(0,0,0)
(0,0,0)
(0,0,0)
(0,0,0)
(0,0,0)
(0,0,0)
(0,0,0)
(0,0,0)
(0,0,0)
(0,0,0)
(0,0,0)
(0,0,0)
(0,0,0)
(0,0,0)
(0,0,0)
(0,0,0)
(0,0,0)
(0,0,0)
(0,0,0)
(0,0,0)
(0,0,0)
(0,0,0)
(0,0,0)
(0,0,0)
(0,0,0)
(0,0,0)
(0,0,0)
(0,0,0)
(0,0,0)
(0,0,0)
(0,0,0)
(0,0,0)
(0,0,0)
(0,0,0)
(0,0,0)
(0,0,0)
(0,0,0)
(0,0,0)
(0,0,0)
(0,0,0)
(0,0,0)
(0,0,0)
(0,0,0)
(0,0,0)
(0,0,0)
(0,0,0)
(0,0,0)
(0,0,0)
(0,0,0)
(0,0,0)
(0,0,0)
(0,0,0)
(0,0,0)
(0,0,0)
(0,0,0)
(0,0,0)
(0,0,0)
(0,0,0)
(0,0,0)
(0,0,0)
(0,0,0)
(0,0,0)
(0,0,0)
(0,0,0)
(0,0,0)
(0,0,0)
(0,0,0)
(0,0,0)
(0,0,0)
(0,0,0)
(0,0,0)
(0,0,0)
(0,0,0)
(0,0,0)
(0,0,0)
(0,0,0)
(0,0,0)
(0,0,0)
(0,0,0)
(0,0,0)
(0,0,0)
(0,0,0)
(0,0,0)
(0,0,0)
(0,0,0)
(0,0,0)
(0,0,0)
(0,0,0)
(0,0,0)
(0,0,0)
(0,0,0)
(0,0,0)
(0,0,0)
(0,0,0)
(0,0,0)
(0,0,0)
(0,0,0)
(0,0,0)
(0,0,0)
(0,0,0)
(0,0,0)
(0,0,0)
(0,0,0)
(0,0,0)
(0,0,0)
(0,0,0)
(0,0,0)
(0,0,0)
(0,0,0)
(0,0,0)
(0,0,0)
(0,0,0)
(0,0,0)
(0,0,0)
(0,0,0)
(0,0,0)
(0,0,0)
(0,0,0)
(0,0,0)
(0,0,0)
(0,0,0)
(0,0,0)
(0,0,0)
(0,0,0)
(0,0,0)
(0,0,0)
(0,0,0)
(0,0,0)
(0,0,0)
(0,0,0)
(0,0,0)
(0,0,0)
(0,0,0)
(0,0,0)
(0,0,0)
(0,0,0)
(0,0,0)
(0,0,0)
(0,0,0)
(0,0,0)
(0,0,0)
(0,0,0)
(0,0,0)
(0,0,0)
(0,0,0)
(0,0,0)
(0,0,0)
(0,0,0)
(0,0,0)
(0,0,0)
(0,0,0)
(0,0,0)
(0,0,0)
(0,0,0)
(0,0,0)
(0,0,0)
(0,0,0)
(0,0,0)
(0,0,0)
(0,0,0)
(0,0,0)
(0,0,0)
(0,0,0)
(0,0,0)
(0,0,0)
(0,0,0)
(0,0,0)
(0,0,0)
(0,0,0)
(0,0,0)
(0,0,0)
(0,0,0)
(0,0,0)
(0,0,0)
(0,0,0)
(0,0,0)
(0,0,0)
(0,0,0)
(0,0,0)
(0,0,0)
(0,0,0)
(0,0,0)
(0,0,0)
(0,0,0)
(0,0,0)
(0,0,0)
(0,0,0)
(0,0,0)
(0,0,0)
(0,0,0)
(0,0,0)
(0,0,0)
(0,0,0)
(0,0,0)
(0,0,0)
(0,0,0)
(0,0,0)
(0,0,0)
(0,0,0)
(0,0,0)
(0,0,0)
(0,0,0)
(0,0,0)
(0,0,0)
(0,0,0)
(0,0,0)
(0,0,0)
(0,0,0)
(0,0,0)
(0,0,0)
(0,0,0)
(0,0,0)
(0,0,0)
(0,0,0)
(0,0,0)
(0,0,0)
(0,0,0)
(0,0,0)
(0,0,0)
(0,0,0)
(0,0,0)
(0,0,0)
(0,0,0)
(0,0,0)
(0,0,0)
(0,0,0)
(0,0,0)
(0,0,0)
(0,0,0)
(0,0,0)
(0,0,0)
(0,0,0)
(0,0,0)
(0,0,0)
(0,0,0)
(0,0,0)
(0,0,0)
(0,0,0)
(0,0,0)
(0,0,0)
(0,0,0)
(0,0,0)
(0,0,0)
(0,0,0)
(0,0,0)
(0,0,0)
(0,0,0)
(0,0,0)
(0,0,0)
(0,0,0)
(0,0,0)
(0,0,0)
(0,0,0)
(0,0,0)
(0,0,0)
(0,0,0)
(0,0,0)
(0,0,0)
(0,0,0)
(0,0,0)
(0,0,0)
(0,0,0)
(0,0,0)
(0,0,0)
(0,0,0)
(0,0,0)
(0,0,0)
(0,0,0)
(0,0,0)
(0,0,0)
(0,0,0)
(0,0,0)
(0,0,0)
(0,0,0)
(0,0,0)
(0,0,0)
(0,0,0)
(0,0,0)
(0,0,0)
(0,0,0)
(0,0,0)
(0,0,0)
(0,0,0)
(0,0,0)
(0,0,0)
(0,0,0)
(0,0,0)
(0,0,0)
(0,0,0)
(0,0,0)
(0,0,0)
(0,0,0)
(0,0,0)
(0,0,0)
(0,0,0)
(0,0,0)
(0,0,0)
(0,0,0)
(0,0,0)
(0,0,0)
(0,0,0)
(0,0,0)
(0,0,0)
(0,0,0)
(0,0,0)
(0,0,0)
(0,0,0)
(0,0,0)
(0,0,0)
(0,0,0)
(0,0,0)
(0,0,0)
(0,0,0)
(0,0,0)
(0,0,0)
(0,0,0)
(0,0,0)
(0,0,0)
(0,0,0)
(0,0,0)
(0,0,0)
(0,0,0)
(0,0,0)
(0,0,0)
(0,0,0)
(0,0,0)
(0,0,0)
(0,0,0)
(0,0,0)
(0,0,0)
(0,0,0)
(0,0,0)
(0,0,0)
(0,0,0)
(0,0,0)
(0,0,0)
(0,0,0)
(0,0,0)
(0,0,0)
(0,0,0)
(0,0,0)
(0,0,0)
(0,0,0)
(0,0,0)
(0,0,0)
(0,0,0)
(0,0,0)
(0,0,0)
(0,0,0)
(0,0,0)
(0,0,0)
(0,0,0)
(0,0,0)
(0,0,0)
(0,0,0)
(0,0,0)
(0,0,0)
(0,0,0)
(0,0,0)
(0,0,0)
(0,0,0)
(0,0,0)
(0,0,0)
(0,0,0)
(0,0,0)
(0,0,0)
(0,0,0)
(0,0,0)
(0,0,0)
(0,0,0)
(0,0,0)
(0,0,0)
(0,0,0)
(0,0,0)
(0,0,0)
(0,0,0)
(0,0,0)
(0,0,0)
(0,0,0)
(0,0,0)
(0,0,0)
(0,0,0)
(0,0,0)
(0,0,0)
(0,0,0)
(0,0,0)
(0,0,0)
(0,0,0)
(0,0,0)
(0,0,0)
(0,0,0)
(0,0,0)
(0,0,0)
(0,0,0)
(0,0,0)
(0,0,0)
(0,0,0)
(0,0,0)
(0,0,0)
(0,0,0)
(0,0,0)
(0,0,0)
(0,0,0)
(0,0,0)
(0,0,0)
(0,0,0)
(0,0,0)
(0,0,0)
(0,0,0)
(0,0,0)
(0,0,0)
(0,0,0)
(0,0,0)
(0,0,0)
(0,0,0)
(0,0,0)
(0,0,0)
(0,0,0)
(0,0,0)
(0,0,0)
(0,0,0)
(0,0,0)
(0,0,0)
(0,0,0)
(0,0,0)
(0,0,0)
(0,0,0)
(0,0,0)
(0,0,0)
(0,0,0)
(0,0,0)
(0,0,0)
(0,0,0)
(0,0,0)
(0,0,0)
(0,0,0)
(0,0,0)
(0,0,0)
(0,0,0)
(0,0,0)
(0,0,0)
(0,0,0)
(0,0,0)
(0,0,0)
(0,0,0)
(0,0,0)
(0,0,0)
(0,0,0)
(0,0,0)
(0,0,0)
(0,0,0)
(0,0,0)
(0,0,0)
(0,0,0)
(0,0,0)
(0,0,0)
(0,0,0)
(0,0,0)
(0,0,0)
(0,0,0)
(0,0,0)
(0,0,0)
(0,0,0)
(0,0,0)
(0,0,0)
(0,0,0)
(0,0,0)
(0,0,0)
(0,0,0)
(0,0,0)
(0,0,0)
(0,0,0)
(0,0,0)
(0,0,0)
(0,0,0)
(0,0,0)
(0,0,0)
(0,0,0)
(0,0,0)
(0,0,0)
(0,0,0)
(0,0,0)
(0,0,0)
(0,0,0)
(0,0,0)
(0,0,0)
(0,0,0)
(0,0,0)
(0,0,0)
(0,0,0)
(0,0,0)
(0,0,0)
(0,0,0)
(0,0,0)
(0,0,0)
(0,0,0)
(0,0,0)
(0,0,0)
(0,0,0)
(0,0,0)
(0,0,0)
(0,0,0)
(0,0,0)
(0,0,0)
(0,0,0)
(0,0,0)
(0,0,0)
(0,0,0)
(0,0,0)
(0,0,0)
(0,0,0)
(0,0,0)
(0,0,0)
(0,0,0)
(0,0,0)
(0,0,0)
(0,0,0)
(0,0,0)
(0,0,0)
(0,0,0)
(0,0,0)
(0,0,0)
(0,0,0)
(0,0,0)
(0,0,0)
(0,0,0)
(0,0,0)
(0,0,0)
(0,0,0)
(0,0,0)
(0,0,0)
(0,0,0)
(0,0,0)
(0,0,0)
(0,0,0)
(0,0,0)
(0,0,0)
(0,0,0)
(0,0,0)
(0,0,0)
(0,0,0)
(0,0,0)
(0,0,0)
(0,0,0)
(0,0,0)
(0,0,0)
(0,0,0)
(0,0,0)
(0,0,0)
(0,0,0)
(0,0,0)
(0,0,0)
(0,0,0)
(0,0,0)
(0,0,0)
(0,0,0)
(0,0,0)
(0,0,0)
(0,0,0)
(0,0,0)
(0,0,0)
(0,0,0)
(0,0,0)
(0,0,0)
(0,0,0)
(0,0,0)
(0,0,0)
(0,0,0)
(0,0,0)
(0,0,0)
(0,0,0)
(0,0,0)
(0,0,0)
(0,0,0)
(0,0,0)
(0,0,0)
(0,0,0)
(0,0,0)
(0,0,0)
(0,0,0)
(0,0,0)
(0,0,0)
(0,0,0)
(0,0,0)
(0,0,0)
(0,0,0)
(0,0,0)
(0,0,0)
(0,0,0)
(0,0,0)
(0,0,0)
(0,0,0)
(0,0,0)
(0,0,0)
(0,0,0)
(0,0,0)
(0,0,0)
(0,0,0)
(0,0,0)
(0,0,0)
(0,0,0)
(0,0,0)
(0,0,0)
(0,0,0)
(0,0,0)
(0,0,0)
(0,0,0)
(0,0,0)
(0,0,0)
(0,0,0)
(0,0,0)
(0,0,0)
(0,0,0)
(0,0,0)
(0,0,0)
(0,0,0)
(0,0,0)
(0,0,0)
(0,0,0)
(0,0,0)
(0,0,0)
(0,0,0)
(0,0,0)
(0,0,0)
(0,0,0)
(0,0,0)
(0,0,0)
(0,0,0)
(0,0,0)
(-7.87506546132961e-13,-1.37958414889586e-11,1.51269641457889e-11)
(-2.12629018290705e-12,-2.83996147896877e-11,1.45616025899494e-11)
(-2.59269689187647e-12,-4.67762835679176e-11,1.31581402302918e-11)
(-2.3130276085269e-12,-7.36347722430794e-11,1.09422529421881e-11)
(-5.28144849165133e-13,-1.14830541425892e-10,7.96997812235162e-12)
(8.73169616609461e-13,-1.81460715887561e-10,4.91089057080272e-12)
(3.85234906509318e-12,-2.89551883577529e-10,2.3909142693095e-12)
(6.97746197571961e-12,-4.7100114237071e-10,1.08330339967389e-12)
(7.92173177762625e-12,-7.72348731495298e-10,6.51568745805485e-13)
(8.58230215041096e-12,-1.19482128994966e-09,5.11224273481792e-13)
(0,0,0)
(0,0,0)
(0,0,0)
(0,0,0)
(0,0,0)
(0,0,0)
(-1.10618188568189e-12,-1.32738924152741e-11,3.10403929388429e-11)
(-2.43982407527409e-12,-2.69721134616896e-11,2.97125272961002e-11)
(-3.0850857555189e-12,-4.47290290973494e-11,2.73586963781492e-11)
(-3.00610767339965e-12,-7.11719473798219e-11,2.382669256258e-11)
(-9.62728051241177e-14,-1.12388604973165e-10,1.87162612521198e-11)
(2.53194611737174e-12,-1.79412084636603e-10,1.28262298179262e-11)
(6.60006412832464e-12,-2.88322970367928e-10,7.71004199646573e-12)
(1.08142736994645e-11,-4.70611486306532e-10,4.72967855431369e-12)
(1.3634693542538e-11,-7.72470939413631e-10,2.94301716732266e-12)
(1.63596234402327e-11,-1.19489687249588e-09,1.53739683824163e-12)
(0,0,0)
(0,0,0)
(0,0,0)
(0,0,0)
(0,0,0)
(0,0,0)
(-1.3056496828841e-12,-1.20656711784528e-11,5.00121482793908e-11)
(-3.15588171297746e-12,-2.4437962552381e-11,4.86389409608435e-11)
(-4.11582477932724e-12,-4.10173593142929e-11,4.58062001169772e-11)
(-3.36394675469483e-12,-6.63092103166399e-11,4.08142548126601e-11)
(1.64111394087944e-13,-1.06787204981231e-10,3.35831758503638e-11)
(3.76193679406596e-12,-1.74096272436593e-10,2.56827078817506e-11)
(8.35869283061315e-12,-2.85134880363469e-10,1.83828813339268e-11)
(1.34586630112358e-11,-4.69446743978572e-10,1.35771791618456e-11)
(1.78560805304359e-11,-7.72037306302695e-10,9.41755223350334e-12)
(2.11440182841022e-11,-1.19425669310821e-09,4.66892318744697e-12)
(0,0,0)
(0,0,0)
(0,0,0)
(0,0,0)
(0,0,0)
(0,0,0)
(-1.01724746081394e-12,-1.07699978431126e-11,7.886467219734e-11)
(-2.74018519287236e-12,-2.14963864629427e-11,7.68844774226766e-11)
(-4.3121827200384e-12,-3.58697964463708e-11,7.31442693500166e-11)
(-4.34046798625336e-12,-5.88999841133269e-11,6.74203246470104e-11)
(-1.76300091161862e-12,-9.79802301963137e-11,5.9487745412978e-11)
(2.31615463590834e-12,-1.65153559564934e-10,5.05751183404589e-11)
(8.44110395395275e-12,-2.79440431227625e-10,4.14262612612631e-11)
(1.41225222488171e-11,-4.66770271012479e-10,3.27294405034465e-11)
(1.83934811946142e-11,-7.69908630756088e-10,2.30725620052374e-11)
(2.17718617145221e-11,-1.19181785158674e-09,1.18515691974203e-11)
(0,0,0)
(0,0,0)
(0,0,0)
(0,0,0)
(0,0,0)
(0,0,0)
(-1.2093534809491e-12,-8.7308918230892e-12,1.20070867247783e-10)
(-2.62974826944484e-12,-1.74968127469152e-11,1.17917953472742e-10)
(-4.13274081263981e-12,-2.94335747909965e-11,1.14496156682985e-10)
(-4.17528194635602e-12,-4.98249561873157e-11,1.09621565964918e-10)
(-2.61697221324296e-12,-8.67942229791582e-11,1.02659924739167e-10)
(8.13612499413386e-13,-1.52758730203052e-10,9.40186058936222e-11)
(7.07303325256821e-12,-2.69193505302052e-10,8.43095085320431e-11)
(1.23175589735671e-11,-4.59943188054936e-10,6.8681898799341e-11)
(1.60719125014009e-11,-7.63036949104358e-10,4.88562926861375e-11)
(1.88421225826439e-11,-1.18396754912587e-09,2.55963738953317e-11)
(0,0,0)
(0,0,0)
(0,0,0)
(0,0,0)
(0,0,0)
(0,0,0)
(-9.29408521455806e-13,-6.63918596241071e-12,1.83084116400149e-10)
(-2.82164626215447e-12,-1.37432785561823e-11,1.81720177180502e-10)
(-5.38667402625701e-12,-2.32357302972895e-11,1.7925941149615e-10)
(-5.21069707102226e-12,-4.03847700945776e-11,1.75584129184182e-10)
(-3.5689069487141e-12,-7.41854115949696e-11,1.7008018921248e-10)
(-7.36539570234553e-13,-1.38679657066889e-10,1.61778602204568e-10)
(3.89787962413383e-12,-2.55678727790966e-10,1.48790850737974e-10)
(8.29714849304012e-12,-4.44733122647228e-10,1.25184894978875e-10)
(1.08024895538534e-11,-7.44334141191827e-10,9.11681306892369e-11)
(1.27295131493164e-11,-1.1622118392747e-09,4.85206808004226e-11)
(0,0,0)
(0,0,0)
(0,0,0)
(0,0,0)
(0,0,0)
(0,0,0)
(-1.95976134208727e-12,-5.00946065838058e-12,2.88034428289261e-10)
(-3.76942770221724e-12,-1.07321197454207e-11,2.8703071181319e-10)
(-6.16448843064268e-12,-1.83116884388754e-11,2.85452569107762e-10)
(-6.20832576217515e-12,-3.23271825405844e-11,2.82870866268336e-10)
(-4.12113453907297e-12,-6.19843703904244e-11,2.78486460884758e-10)
(-1.19934871687289e-12,-1.21929842305659e-10,2.6949496019118e-10)
(4.88869194566199e-13,-2.33697929290897e-10,2.49643431695291e-10)
(2.84591779295614e-12,-4.14354973077536e-10,2.15845780875615e-10)
(4.13221470234333e-12,-7.05479134192791e-10,1.61871248788063e-10)
(5.12208797435639e-12,-1.11709540266864e-09,8.82569713072967e-11)
(0,0,0)
(0,0,0)
(0,0,0)
(0,0,0)
(0,0,0)
(0,0,0)
(-3.33369924860153e-12,-3.73475512910612e-12,4.68232139070764e-10)
(-5.46693230749104e-12,-8.34161221960679e-12,4.67637164135092e-10)
(-8.32348451658091e-12,-1.42870005723834e-11,4.65785676778837e-10)
(-9.17627296987525e-12,-2.58468516102194e-11,4.62583191957662e-10)
(-7.75077383704529e-12,-5.16295111869713e-11,4.57382266238402e-10)
(-5.90217431477388e-12,-1.03933186567305e-10,4.45588105597243e-10)
(-5.02753116039612e-12,-2.00461175574409e-10,4.19000733030824e-10)
(-3.65704066532161e-12,-3.61586477312994e-10,3.68699854939041e-10)
(-2.08900017407799e-12,-6.34021134422597e-10,2.85620763667446e-10)
(3.30592016326199e-13,-1.03138344533624e-09,1.61776065643308e-10)
(0,0,0)
(0,0,0)
(0,0,0)
(0,0,0)
(0,0,0)
(0,0,0)
(-5.33562868051247e-12,-2.5890267413179e-12,7.70493920490417e-10)
(-8.56378909804564e-12,-5.55613057287057e-12,7.69569039582607e-10)
(-1.13725884323601e-11,-9.77832292336427e-12,7.6719652772164e-10)
(-1.24815209282377e-11,-1.88579222653867e-11,7.6324674747154e-10)
(-1.17084374521228e-11,-3.860970850576e-11,7.55742368671462e-10)
(-9.88773628209311e-12,-7.80611356746802e-11,7.39041821882167e-10)
(-8.52613752945938e-12,-1.50692269736963e-10,7.03325914852044e-10)
(-7.35136388593538e-12,-2.79342851251496e-10,6.34844883054108e-10)
(-4.90645981787e-12,-5.11790811947809e-10,5.13137292647678e-10)
(-2.24896760603365e-12,-8.71186653336709e-10,3.08051650796847e-10)
(0,0,0)
(0,0,0)
(0,0,0)
(0,0,0)
(0,0,0)
(0,0,0)
(-7.0560011948505e-12,-1.41661571135698e-12,1.19399308738602e-09)
(-1.13400824370184e-11,-2.60533713818568e-12,1.19220500001996e-09)
(-1.43832938784825e-11,-4.80312863158606e-12,1.18941812406472e-09)
(-1.5183164124147e-11,-1.00672595909008e-11,1.1849136145114e-09)
(-1.45535240122627e-11,-2.09442845028042e-11,1.17515235879747e-09)
(-1.24039106429942e-11,-4.2291584108591e-11,1.15435344515688e-09)
(-9.9169140605828e-12,-8.23235575624557e-11,1.11199010441279e-09)
(-8.68875333388456e-12,-1.58069276887996e-10,1.02966452103939e-09)
(-6.17301146383182e-12,-3.07418622173361e-10,8.71125272292297e-10)
(-3.75127109299105e-12,-5.6340169915746e-10,5.63139206019142e-10)
(0,0,0)
(0,0,0)
(0,0,0)
(0,0,0)
(0,0,0)
(0,0,0)
(0,0,0)
(0,0,0)
(0,0,0)
(0,0,0)
(0,0,0)
(0,0,0)
(0,0,0)
(0,0,0)
(0,0,0)
(0,0,0)
(0,0,0)
(0,0,0)
(0,0,0)
(0,0,0)
(0,0,0)
(0,0,0)
(0,0,0)
(0,0,0)
(0,0,0)
(0,0,0)
(0,0,0)
(0,0,0)
(0,0,0)
(0,0,0)
(0,0,0)
(0,0,0)
(0,0,0)
(0,0,0)
(0,0,0)
(0,0,0)
(0,0,0)
(0,0,0)
(0,0,0)
(0,0,0)
(0,0,0)
(0,0,0)
(0,0,0)
(0,0,0)
(0,0,0)
(0,0,0)
(0,0,0)
(0,0,0)
(0,0,0)
(0,0,0)
(0,0,0)
(0,0,0)
(0,0,0)
(0,0,0)
(0,0,0)
(0,0,0)
(0,0,0)
(0,0,0)
(0,0,0)
(0,0,0)
(0,0,0)
(0,0,0)
(0,0,0)
(0,0,0)
(0,0,0)
(0,0,0)
(0,0,0)
(0,0,0)
(0,0,0)
(0,0,0)
(0,0,0)
(0,0,0)
(0,0,0)
(0,0,0)
(0,0,0)
(0,0,0)
(0,0,0)
(0,0,0)
(0,0,0)
(0,0,0)
(0,0,0)
(0,0,0)
(0,0,0)
(0,0,0)
(0,0,0)
(0,0,0)
(0,0,0)
(0,0,0)
(0,0,0)
(0,0,0)
(0,0,0)
(0,0,0)
(0,0,0)
(0,0,0)
(0,0,0)
(0,0,0)
(0,0,0)
(0,0,0)
(0,0,0)
(0,0,0)
(0,0,0)
(0,0,0)
(-7.44094063980751e-13,-2.54905414445658e-11,2.79657209114881e-11)
(-2.15032915125253e-12,-5.3004878850163e-11,2.68159141817369e-11)
(-2.42406407435907e-12,-8.73904566742666e-11,2.40100596586055e-11)
(-1.80357765196355e-12,-1.36118510646112e-10,1.95894947033656e-11)
(8.9006249591038e-14,-2.09418331416172e-10,1.39341468077955e-11)
(1.34451466725548e-12,-3.24481113073324e-10,7.86869084542502e-12)
(3.93104672525696e-12,-5.08604736229911e-10,2.57485800801392e-12)
(7.01954056528071e-12,-8.22572154016372e-10,-1.67333695906084e-13)
(8.18428416770772e-12,-1.4254814901989e-09,-7.67024952117742e-13)
(9.16910896988408e-12,-2.81227847959204e-09,-3.02597837804889e-13)
(0,0,0)
(0,0,0)
(0,0,0)
(0,0,0)
(0,0,0)
(0,0,0)
(-9.86537479761882e-13,-2.42339578045776e-11,5.81066944131753e-11)
(-2.62014406661559e-12,-5.01196634335666e-11,5.54658952523745e-11)
(-3.26475172302384e-12,-8.28883316986716e-11,5.04008823132584e-11)
(-2.75841342609616e-12,-1.30399485361082e-10,4.25891030376254e-11)
(1.92358637147356e-13,-2.03372580461826e-10,3.20852077151772e-11)
(2.33232173880375e-12,-3.1934179261104e-10,1.98409888000452e-11)
(6.39233756586221e-12,-5.06073009562964e-10,8.55384346995952e-12)
(1.14361927589865e-11,-8.22784396132653e-10,2.89915430532961e-12)
(1.4606680761057e-11,-1.42685609065978e-09,1.15975663575049e-12)
(1.72568408906335e-11,-2.81322154296278e-09,5.97954301835743e-13)
(0,0,0)
(0,0,0)
(0,0,0)
(0,0,0)
(0,0,0)
(0,0,0)
(-1.22811569967643e-12,-2.15727026123259e-11,9.42875294819274e-11)
(-3.26471695854694e-12,-4.47388283565043e-11,9.10878043959199e-11)
(-4.27144234289498e-12,-7.4688051788127e-11,8.47653856078503e-11)
(-3.54209399572886e-12,-1.19629055778607e-10,7.41687726167048e-11)
(-7.42395422282626e-13,-1.90798175616829e-10,5.8980217256896e-11)
(2.11905047021029e-12,-3.07761572086708e-10,4.08179513332532e-11)
(7.46994586695316e-12,-5.00631271709277e-10,2.30982190818596e-11)
(1.49418169732963e-11,-8.23361894609212e-10,1.48196290912315e-11)
(2.04760340298263e-11,-1.42902810541459e-09,1.06509528174152e-11)
(2.33740999495044e-11,-2.81441584647964e-09,5.6974833153013e-12)
(0,0,0)
(0,0,0)
(0,0,0)
(0,0,0)
(0,0,0)
(0,0,0)
(-1.07615870617287e-12,-1.85849687566066e-11,1.46131071394553e-10)
(-2.9995508362404e-12,-3.82750202364463e-11,1.42098637999571e-10)
(-5.02445967241991e-12,-6.38237944528272e-11,1.34541712257776e-10)
(-5.48291667822969e-12,-1.03857330179345e-10,1.22979162214154e-10)
(-4.0363810562441e-12,-1.70998790527056e-10,1.0621795336306e-10)
(-9.29817646772089e-13,-2.87658334572862e-10,8.50994593814466e-11)
(6.89099878616888e-12,-4.9043885807032e-10,6.24833228865379e-11)
(1.6952317789484e-11,-8.23119154769177e-10,4.80092225309319e-11)
(2.27427923515093e-11,-1.42951073832975e-09,3.47157395964642e-11)
(2.57731284526884e-11,-2.81311955984483e-09,1.84051818406173e-11)
(0,0,0)
(0,0,0)
(0,0,0)
(0,0,0)
(0,0,0)
(0,0,0)
(-1.14814556658726e-12,-1.44959540319446e-11,2.19148370949789e-10)
(-2.96148567042392e-12,-3.01523231801543e-11,2.15110143385785e-10)
(-5.45599458828373e-12,-5.11388959901066e-11,2.0838023586226e-10)
(-6.65382681334289e-12,-8.50961837632104e-11,1.98672375090707e-10)
(-6.58446475188357e-12,-1.45295345965715e-10,1.84705134323494e-10)
(-3.55636327523767e-12,-2.56918450516688e-10,1.67964447046733e-10)
(9.18586547426955e-12,-4.66956126141781e-10,1.53648360067971e-10)
(1.69330996792816e-11,-8.16059308721693e-10,1.207350749789e-10)
(2.0629023379203e-11,-1.42152725324402e-09,8.45621807497532e-11)
(2.26827866266137e-11,-2.80154414889662e-09,4.41231937109305e-11)
(0,0,0)
(0,0,0)
(0,0,0)
(0,0,0)
(0,0,0)
(0,0,0)
(-1.19519460583742e-12,-1.0713613781765e-11,3.28324732256041e-10)
(-3.37203938856765e-12,-2.27704112689899e-11,3.25522164876176e-10)
(-6.63543357271386e-12,-3.91150275333768e-11,3.20510695134996e-10)
(-7.7643446533089e-12,-6.62880268057841e-11,3.13535550864056e-10)
(-7.4683611453342e-12,-1.18510429781058e-10,3.03910056392668e-10)
(-4.49860286486425e-12,-2.26589687908347e-10,2.90595027258083e-10)
(5.52303688307936e-12,-4.47095497614297e-10,2.71653380188945e-10)
(1.19357632128849e-11,-7.93865549444231e-10,2.26574852251233e-10)
(1.45949324435999e-11,-1.39136831923422e-09,1.62731959755449e-10)
(1.61337573439546e-11,-2.7648780624131e-09,8.5619349169001e-11)
(0,0,0)
(0,0,0)
(0,0,0)
(0,0,0)
(0,0,0)
(0,0,0)
(-2.23075039529238e-12,-7.96195853850468e-12,5.05818016650009e-10)
(-4.58179252260086e-12,-1.69230002038716e-11,5.03944028308872e-10)
(-7.60747345770177e-12,-2.93988226421594e-11,5.00993538134027e-10)
(-8.30425130896892e-12,-5.07282720542044e-11,4.96906933600301e-10)
(-5.484493048904e-12,-9.42490515163248e-11,4.91599732251581e-10)
(6.55524040650879e-13,-1.91946033217104e-10,4.80794475966874e-10)
(1.0497662977731e-12,-4.10409560637916e-10,4.44377630742001e-10)
(4.05195411571572e-12,-7.41813640291413e-10,3.89616240419503e-10)
(6.28849241332552e-12,-1.32346015302226e-09,2.88233500631283e-10)
(7.66710195018562e-12,-2.68607496521418e-09,1.55251565359988e-10)
(0,0,0)
(0,0,0)
(0,0,0)
(0,0,0)
(0,0,0)
(0,0,0)
(-3.88445270071635e-12,-6.16899101698263e-12,8.16430195088107e-10)
(-6.40092659797091e-12,-1.2994171593929e-11,8.15068514591579e-10)
(-9.6296773444192e-12,-2.26379648152265e-11,8.12528793857464e-10)
(-1.09642765954495e-11,-4.10769793956663e-11,8.08634311027588e-10)
(-8.97641587712193e-12,-8.14014277456117e-11,8.02734769296389e-10)
(-5.18685264089896e-12,-1.7159494607939e-10,7.88683552755919e-10)
(-4.49555890599487e-12,-3.55903811804639e-10,7.47829067880696e-10)
(-2.82157545546149e-12,-6.44044885285106e-10,6.57112367849474e-10)
(-4.74624624638505e-13,-1.19549207263042e-09,5.06167499496856e-10)
(1.90986565913378e-12,-2.53569407345177e-09,2.87290694901201e-10)
(0,0,0)
(0,0,0)
(0,0,0)
(0,0,0)
(0,0,0)
(0,0,0)
(-5.58315880266352e-12,-4.50944223682362e-12,1.41865512271771e-09)
(-9.14207067176381e-12,-9.08467666909391e-12,1.41712077409327e-09)
(-1.23980024740327e-11,-1.62497343385395e-11,1.41409544419733e-09)
(-1.37678048026403e-11,-3.13596349991309e-11,1.40903762302106e-09)
(-1.26733146657756e-11,-6.36952176800747e-11,1.39850294021833e-09)
(-9.94138081810135e-12,-1.32572551965785e-10,1.37401230887694e-09)
(-8.41381790600385e-12,-2.65110852472728e-10,1.31605896341194e-09)
(-6.91734784298461e-12,-4.94593947919451e-10,1.19572813692535e-09)
(-4.19300774153924e-12,-9.79458369359476e-10,9.81804204928302e-10)
(-1.98227098848041e-12,-2.25093828543064e-09,6.13202875909186e-10)
(0,0,0)
(0,0,0)
(0,0,0)
(0,0,0)
(0,0,0)
(0,0,0)
(-6.6845295401513e-12,-2.56896879677285e-12,2.80549384190006e-09)
(-1.11585436199571e-11,-4.64180273308603e-12,2.80329062179842e-09)
(-1.46819129567554e-11,-8.61811699020266e-12,2.79980123364292e-09)
(-1.54891680011149e-11,-1.74649737297778e-11,2.79324478973091e-09)
(-1.46988948744931e-11,-3.54712962434444e-11,2.77827078553272e-09)
(-1.23321540074997e-11,-7.26310741435392e-11,2.7455656960137e-09)
(-9.91488824967317e-12,-1.43898262741201e-10,2.67480862313614e-09)
(-8.21878147475451e-12,-2.81046448586362e-10,2.53159578909218e-09)
(-5.60556736403962e-12,-6.1182885450201e-10,2.25035445236214e-09)
(-4.01376423119394e-12,-1.63827807964678e-09,1.63825081943631e-09)
(0,0,0)
(0,0,0)
(0,0,0)
(0,0,0)
(0,0,0)
(0,0,0)
(0,0,0)
(0,0,0)
(0,0,0)
(0,0,0)
(0,0,0)
(0,0,0)
(0,0,0)
(0,0,0)
(0,0,0)
(0,0,0)
(0,0,0)
(0,0,0)
(0,0,0)
(0,0,0)
(0,0,0)
(0,0,0)
(0,0,0)
(0,0,0)
(0,0,0)
(0,0,0)
(0,0,0)
(0,0,0)
(0,0,0)
(0,0,0)
(0,0,0)
(0,0,0)
(0,0,0)
(0,0,0)
(0,0,0)
(0,0,0)
(0,0,0)
(0,0,0)
(0,0,0)
(0,0,0)
(0,0,0)
(0,0,0)
(0,0,0)
(0,0,0)
(0,0,0)
(0,0,0)
(0,0,0)
(0,0,0)
(0,0,0)
(0,0,0)
(0,0,0)
(0,0,0)
(0,0,0)
(0,0,0)
(0,0,0)
(0,0,0)
(0,0,0)
(0,0,0)
(0,0,0)
(0,0,0)
(0,0,0)
(0,0,0)
(0,0,0)
(0,0,0)
(0,0,0)
(0,0,0)
(0,0,0)
(0,0,0)
(0,0,0)
(0,0,0)
(0,0,0)
(0,0,0)
(0,0,0)
(0,0,0)
(0,0,0)
(0,0,0)
(0,0,0)
(0,0,0)
(0,0,0)
(0,0,0)
(0,0,0)
(0,0,0)
(0,0,0)
(0,0,0)
(0,0,0)
(0,0,0)
(0,0,0)
(0,0,0)
(0,0,0)
(0,0,0)
(0,0,0)
(0,0,0)
(0,0,0)
(0,0,0)
(0,0,0)
(0,0,0)
(0,0,0)
(0,0,0)
(0,0,0)
(0,0,0)
(0,0,0)
(0,0,0)
(-8.50870974787985e-13,-3.3140610998965e-11,3.74092507257499e-11)
(-2.22969004443084e-12,-6.99264917670093e-11,3.56202796100807e-11)
(-2.50562409391205e-12,-1.15564628617285e-10,3.15602911070631e-11)
(-1.86725504118692e-12,-1.78381828843653e-10,2.5171735149754e-11)
(1.08711256933952e-13,-2.69061550624211e-10,1.62807478223658e-11)
(1.49902704287997e-12,-4.0251993336018e-10,6.29869562748157e-12)
(4.14151176147419e-12,-5.99698210056298e-10,-2.62340649338684e-12)
(7.83147393750515e-12,-8.86338714467413e-10,-6.13753552079755e-12)
(9.09445751499394e-12,-1.29725062008073e-09,-5.09239298791786e-12)
(9.80957450171609e-12,-1.80132005978129e-09,-2.45602560972099e-12)
(0,0,0)
(0,0,0)
(0,0,0)
(0,0,0)
(0,0,0)
(0,0,0)
(-1.00699351126286e-12,-3.13029476438117e-11,7.77575788982529e-11)
(-2.93596620554443e-12,-6.60859272492846e-11,7.42097649972602e-11)
(-3.65325235850599e-12,-1.09351221155128e-10,6.66107256534148e-11)
(-3.02494768591137e-12,-1.69766905197066e-10,5.42037760707746e-11)
(-1.37827292275346e-13,-2.59293688061971e-10,3.66707729357328e-11)
(2.03924654411106e-12,-3.94494720771433e-10,1.51615531773789e-11)
(6.60528887602366e-12,-5.97877639963196e-10,-5.38371878468367e-12)
(1.37530889059361e-11,-8.896411620936e-10,-1.14161773709219e-11)
(1.73404978501683e-11,-1.30189929150357e-09,-8.23888609580311e-12)
(1.90490987100678e-11,-1.80511814559641e-09,-3.48403362666415e-12)
(0,0,0)
(0,0,0)
(0,0,0)
(0,0,0)
(0,0,0)
(0,0,0)
(-1.01612447162347e-12,-2.79175821103667e-11,1.26562523793337e-10)
(-3.40610628933506e-12,-5.89852478759767e-11,1.2199117207105e-10)
(-4.5390866868782e-12,-9.75149430000044e-11,1.11945872555208e-10)
(-4.12526423505471e-12,-1.52781915117576e-10,9.47091198807818e-11)
(-2.37951458877351e-12,-2.38242205950625e-10,6.88279823224975e-11)
(-2.64454792569763e-13,-3.75618298292318e-10,3.37721902455963e-11)
(5.5561222188862e-12,-5.94881174129357e-10,-4.6249414099273e-12)
(1.88677534072465e-11,-8.98552423324369e-10,-9.57476362066315e-12)
(2.59121364475986e-11,-1.31159670621634e-09,-3.38453312365425e-12)
(2.77752966299405e-11,-1.81198045401402e-09,2.55674796283622e-13)
(0,0,0)
(0,0,0)
(0,0,0)
(0,0,0)
(0,0,0)
(0,0,0)
(-1.13274003705197e-12,-2.37858249453966e-11,1.92140028293928e-10)
(-3.56532214960386e-12,-4.97398008066681e-11,1.86753961267033e-10)
(-6.14680809173959e-12,-8.11536102627544e-11,1.75126703221145e-10)
(-7.48285424471348e-12,-1.27166891593799e-10,1.56275801127296e-10)
(-8.62133163683701e-12,-2.02594428199897e-10,1.27169050090889e-10)
(-9.0535652062802e-12,-3.36659128276365e-10,8.33389252868634e-11)
(-2.11763278653525e-12,-5.87002877803638e-10,2.45528891038146e-11)
(2.31859546761833e-11,-9.15325548316343e-10,2.18814701162484e-11)
(3.10698650225398e-11,-1.32451241446328e-09,2.34412071034585e-11)
(3.26028993434673e-11,-1.81817114338623e-09,1.51924110775764e-11)
(0,0,0)
(0,0,0)
(0,0,0)
(0,0,0)
(0,0,0)
(0,0,0)
(-8.92258252422294e-13,-1.86377505569511e-11,2.82469219173091e-10)
(-3.61349005747661e-12,-3.82931845785035e-11,2.76893697661349e-10)
(-7.77200227517179e-12,-6.20696957835349e-11,2.66303557194131e-10)
(-1.14947430034112e-11,-9.6226523668231e-11,2.50200439210237e-10)
(-1.66286936579804e-11,-1.53376340414817e-10,2.2698679568517e-10)
(-1.95690389056595e-11,-2.62942937480567e-10,2.00109761490751e-10)
(2.22385220345229e-11,-5.22945968628811e-10,2.1536364327508e-10)
(3.09122346303984e-11,-9.33539753355574e-10,1.42157713031977e-10)
(3.09090764100272e-11,-1.33077487852108e-09,9.60270562396632e-11)
(3.01398938535197e-11,-1.81240324548502e-09,5.01101871324453e-11)
(0,0,0)
(0,0,0)
(0,0,0)
(0,0,0)
(0,0,0)
(0,0,0)
(-1.14428246946596e-12,-1.31551645678875e-11,4.09463414920592e-10)
(-4.20798071266223e-12,-2.69768779541459e-11,4.05443097358453e-10)
(-9.37649419316812e-12,-4.33793180253991e-11,3.97829664361467e-10)
(-1.36986049328847e-11,-6.58204983449575e-11,3.87074793888214e-10)
(-1.84147102756204e-11,-1.06390516175163e-10,3.73137386348589e-10)
(-2.02006104873188e-11,-2.06780894907815e-10,3.56536558828661e-10)
(1.39156278455077e-11,-5.28546953930125e-10,3.6367751209199e-10)
(2.37267465540958e-11,-9.23894195133342e-10,2.88268873162082e-10)
(2.37993768199254e-11,-1.30269989139499e-09,2.0004738060919e-10)
(2.29500093135683e-11,-1.77282509054778e-09,1.03013409629422e-10)
(0,0,0)
(0,0,0)
(0,0,0)
(0,0,0)
(0,0,0)
(0,0,0)
(-2.1497295740056e-12,-8.92511357651045e-12,5.95873580129176e-10)
(-5.56013096004583e-12,-1.78845710192978e-11,5.93560762315304e-10)
(-1.02817267504243e-11,-2.8296786911048e-11,5.8984542852051e-10)
(-1.26483426192854e-11,-4.09945648561102e-11,5.86505262776698e-10)
(-7.52686053415401e-12,-6.25391430712082e-11,5.88676625058704e-10)
(1.67212821276896e-11,-1.2606105896556e-10,5.98701553558446e-10)
(1.30540778678639e-12,-4.91406834298345e-10,5.24357697490207e-10)
(7.66593889706268e-12,-8.66004330909074e-10,5.0389021597771e-10)
(1.13023472934993e-11,-1.22083389767756e-09,3.50933610033543e-10)
(1.25377755473254e-11,-1.67895467153723e-09,1.80839362650951e-10)
(0,0,0)
(0,0,0)
(0,0,0)
(0,0,0)
(0,0,0)
(0,0,0)
(-4.18232098299566e-12,-6.41054595668035e-12,8.75388892814488e-10)
(-7.77070078898765e-12,-1.26012612790107e-11,8.7370531325522e-10)
(-1.21234249912117e-11,-2.0568920373395e-11,8.71430739615793e-10)
(-1.47820792607329e-11,-3.39137456262255e-11,8.70318568266062e-10)
(-1.26314094018467e-11,-6.57620291429673e-11,8.73751533600798e-10)
(-3.35476187928651e-12,-1.61895224051302e-10,8.81002624614659e-10)
(-4.57181820699615e-12,-4.43594303544022e-10,8.61199229357541e-10)
(-1.3276444695433e-12,-7.15621901723527e-10,7.33837574524037e-10)
(2.3684766999248e-12,-1.05629315214488e-09,5.35520430603342e-10)
(4.44477254018452e-12,-1.50350211645074e-09,2.8871137182428e-10)
(0,0,0)
(0,0,0)
(0,0,0)
(0,0,0)
(0,0,0)
(0,0,0)
(-5.98928361880731e-12,-4.49395689720039e-12,1.28363473656793e-09)
(-1.05596147124417e-11,-8.77434480038835e-12,1.28189644581638e-09)
(-1.49717986452238e-11,-1.54117020673668e-11,1.27924993626158e-09)
(-1.71277832693671e-11,-2.93018591071058e-11,1.27592688027218e-09)
(-1.64066047604827e-11,-6.13873903394188e-11,1.27020961707164e-09)
(-1.19295131752028e-11,-1.41486126993365e-10,1.2543196402536e-09)
(-9.29558115065815e-12,-3.11317029246911e-10,1.20046496666297e-09)
(-6.54091518105601e-12,-5.17622852108212e-10,1.05477397395904e-09)
(-3.22119357843103e-12,-8.11792907526662e-10,8.16244632257152e-10)
(-1.4396008633819e-12,-1.21736422107934e-09,4.68550740893308e-10)
(0,0,0)
(0,0,0)
(0,0,0)
(0,0,0)
(0,0,0)
(0,0,0)
(-7.05027823629187e-12,-2.54630007644203e-12,1.78671798042742e-09)
(-1.23109581976446e-11,-4.76330780085228e-12,1.78447540131106e-09)
(-1.67435860349686e-11,-8.73984003118133e-12,1.78109347606279e-09)
(-1.79801375331727e-11,-1.76886257804024e-11,1.77514488319565e-09)
(-1.74651015978529e-11,-3.70232139038696e-11,1.7619407642723e-09)
(-1.42061552746036e-11,-8.03094286272428e-11,1.73084427955143e-09)