/*--------------------------------*- C++ -*----------------------------------*\
| =========                 |                                                 |
| \\      /  F ield         | foam-extend: Open Source CFD                    |
|  \\    /   O peration     | Version:     4.0                                |
|   \\  /    A nd           | Web:         http://www.foam-extend.org         |
|    \\/     M anipulation  |                                                 |
\*---------------------------------------------------------------------------*/
FoamFile
{
    version 2.0;
    format ascii;
    class volVectorField;
    location "Data/3680";
    object      E;
}
// * * * * * * * * * * * * * * * * * * * * * * * * * * * * * * * * * * * * * //

dimensions      [0 1 -1 0 0 0 0];

internalField   nonuniform List<vector>
4096
(
(0,0,0)
(0,0,0)
(0,0,0)
(0,0,0)
(0,0,0)
(0,0,0)
(0,0,0)
(0,0,0)
(0,0,0)
(0,0,0)
(0,0,0)
(0,0,0)
(0,0,0)
(0,0,0)
(0,0,0)
(0,0,0)
(0,0,0)
(0,0,0)
(0,0,0)
(0,0,0)
(0,0,0)
(0,0,0)
(0,0,0)
(0,0,0)
(0,0,0)
(0,0,0)
(0,0,0)
(0,0,0)
(0,0,0)
(0,0,0)
(0,0,0)
(0,0,0)
(0,0,0)
(0,0,0)
(0,0,0)
(0,0,0)
(0,0,0)
(0,0,0)
(0,0,0)
(0,0,0)
(0,0,0)
(0,0,0)
(0,0,0)
(0,0,0)
(0,0,0)
(0,0,0)
(0,0,0)
(0,0,0)
(0,0,0)
(0,0,0)
(0,0,0)
(0,0,0)
(0,0,0)
(0,0,0)
(0,0,0)
(0,0,0)
(0,0,0)
(0,0,0)
(0,0,0)
(0,0,0)
(0,0,0)
(0,0,0)
(0,0,0)
(0,0,0)
(0,0,0)
(0,0,0)
(0,0,0)
(0,0,0)
(0,0,0)
(0,0,0)
(0,0,0)
(0,0,0)
(0,0,0)
(0,0,0)
(0,0,0)
(0,0,0)
(0,0,0)
(0,0,0)
(0,0,0)
(0,0,0)
(0,0,0)
(0,0,0)
(0,0,0)
(0,0,0)
(0,0,0)
(0,0,0)
(0,0,0)
(0,0,0)
(0,0,0)
(0,0,0)
(0,0,0)
(0,0,0)
(0,0,0)
(0,0,0)
(0,0,0)
(0,0,0)
(0,0,0)
(0,0,0)
(0,0,0)
(0,0,0)
(0,0,0)
(0,0,0)
(0,0,0)
(0,0,0)
(0,0,0)
(0,0,0)
(0,0,0)
(0,0,0)
(0,0,0)
(0,0,0)
(0,0,0)
(0,0,0)
(0,0,0)
(0,0,0)
(0,0,0)
(0,0,0)
(0,0,0)
(0,0,0)
(0,0,0)
(0,0,0)
(0,0,0)
(0,0,0)
(0,0,0)
(0,0,0)
(0,0,0)
(0,0,0)
(0,0,0)
(0,0,0)
(0,0,0)
(0,0,0)
(0,0,0)
(0,0,0)
(0,0,0)
(0,0,0)
(0,0,0)
(0,0,0)
(0,0,0)
(0,0,0)
(0,0,0)
(0,0,0)
(0,0,0)
(0,0,0)
(0,0,0)
(0,0,0)
(0,0,0)
(0,0,0)
(0,0,0)
(0,0,0)
(0,0,0)
(0,0,0)
(0,0,0)
(0,0,0)
(0,0,0)
(0,0,0)
(0,0,0)
(0,0,0)
(0,0,0)
(0,0,0)
(0,0,0)
(0,0,0)
(0,0,0)
(0,0,0)
(0,0,0)
(0,0,0)
(0,0,0)
(0,0,0)
(0,0,0)
(0,0,0)
(0,0,0)
(0,0,0)
(0,0,0)
(0,0,0)
(0,0,0)
(0,0,0)
(0,0,0)
(0,0,0)
(0,0,0)
(0,0,0)
(0,0,0)
(0,0,0)
(0,0,0)
(0,0,0)
(0,0,0)
(0,0,0)
(0,0,0)
(0,0,0)
(0,0,0)
(0,0,0)
(0,0,0)
(0,0,0)
(0,0,0)
(0,0,0)
(0,0,0)
(0,0,0)
(0,0,0)
(0,0,0)
(0,0,0)
(0,0,0)
(0,0,0)
(0,0,0)
(0,0,0)
(0,0,0)
(0,0,0)
(0,0,0)
(0,0,0)
(0,0,0)
(0,0,0)
(0,0,0)
(0,0,0)
(0,0,0)
(0,0,0)
(0,0,0)
(0,0,0)
(0,0,0)
(0,0,0)
(0,0,0)
(0,0,0)
(0,0,0)
(0,0,0)
(0,0,0)
(0,0,0)
(0,0,0)
(0,0,0)
(0,0,0)
(0,0,0)
(0,0,0)
(0,0,0)
(0,0,0)
(0,0,0)
(0,0,0)
(0,0,0)
(0,0,0)
(0,0,0)
(0,0,0)
(0,0,0)
(0,0,0)
(0,0,0)
(0,0,0)
(0,0,0)
(0,0,0)
(0,0,0)
(0,0,0)
(0,0,0)
(0,0,0)
(0,0,0)
(0,0,0)
(0,0,0)
(0,0,0)
(0,0,0)
(0,0,0)
(0,0,0)
(0,0,0)
(0,0,0)
(0,0,0)
(0,0,0)
(0,0,0)
(0,0,0)
(0,0,0)
(0,0,0)
(0,0,0)
(0,0,0)
(0,0,0)
(0,0,0)
(0,0,0)
(0,0,0)
(0,0,0)
(0,0,0)
(0,0,0)
(0,0,0)
(0,0,0)
(0,0,0)
(0,0,0)
(0,0,0)
(0,0,0)
(0,0,0)
(0,0,0)
(0,0,0)
(0,0,0)
(0,0,0)
(0,0,0)
(0,0,0)
(0,0,0)
(0,0,0)
(0,0,0)
(0,0,0)
(0,0,0)
(0,0,0)
(0,0,0)
(0,0,0)
(0,0,0)
(0,0,0)
(0,0,0)
(0,0,0)
(0,0,0)
(0,0,0)
(0,0,0)
(0,0,0)
(0,0,0)
(0,0,0)
(0,0,0)
(0,0,0)
(0,0,0)
(0,0,0)
(0,0,0)
(0,0,0)
(0,0,0)
(0,0,0)
(0,0,0)
(0,0,0)
(0,0,0)
(0,0,0)
(0,0,0)
(0,0,0)
(0,0,0)
(0,0,0)
(0,0,0)
(0,0,0)
(0,0,0)
(0,0,0)
(0,0,0)
(0,0,0)
(0,0,0)
(0,0,0)
(0,0,0)
(0,0,0)
(0,0,0)
(0,0,0)
(0,0,0)
(0,0,0)
(0,0,0)
(0,0,0)
(0,0,0)
(0,0,0)
(0,0,0)
(0,0,0)
(0,0,0)
(0,0,0)
(0,0,0)
(0,0,0)
(0,0,0)
(0,0,0)
(0,0,0)
(0,0,0)
(0,0,0)
(0,0,0)
(0,0,0)
(0,0,0)
(0,0,0)
(0,0,0)
(0,0,0)
(0,0,0)
(0,0,0)
(0,0,0)
(0,0,0)
(0,0,0)
(0,0,0)
(0,0,0)
(0,0,0)
(0,0,0)
(0,0,0)
(0,0,0)
(0,0,0)
(0,0,0)
(0,0,0)
(0,0,0)
(0,0,0)
(0,0,0)
(0,0,0)
(0,0,0)
(0,0,0)
(0,0,0)
(0,0,0)
(0,0,0)
(0,0,0)
(0,0,0)
(0,0,0)
(0,0,0)
(0,0,0)
(0,0,0)
(0,0,0)
(0,0,0)
(0,0,0)
(0,0,0)
(0,0,0)
(0,0,0)
(0,0,0)
(0,0,0)
(0,0,0)
(0,0,0)
(0,0,0)
(0,0,0)
(0,0,0)
(0,0,0)
(0,0,0)
(0,0,0)
(0,0,0)
(0,0,0)
(0,0,0)
(0,0,0)
(0,0,0)
(0,0,0)
(0,0,0)
(0,0,0)
(0,0,0)
(0,0,0)
(0,0,0)
(0,0,0)
(0,0,0)
(0,0,0)
(0,0,0)
(0,0,0)
(0,0,0)
(0,0,0)
(0,0,0)
(0,0,0)
(0,0,0)
(0,0,0)
(0,0,0)
(0,0,0)
(0,0,0)
(0,0,0)
(0,0,0)
(0,0,0)
(0,0,0)
(0,0,0)
(0,0,0)
(0,0,0)
(0,0,0)
(0,0,0)
(0,0,0)
(0,0,0)
(0,0,0)
(0,0,0)
(0,0,0)
(0,0,0)
(0,0,0)
(0,0,0)
(0,0,0)
(0,0,0)
(0,0,0)
(0,0,0)
(0,0,0)
(0,0,0)
(0,0,0)
(0,0,0)
(0,0,0)
(0,0,0)
(0,0,0)
(0,0,0)
(0,0,0)
(0,0,0)
(0,0,0)
(0,0,0)
(0,0,0)
(0,0,0)
(0,0,0)
(0,0,0)
(0,0,0)
(0,0,0)
(0,0,0)
(0,0,0)
(0,0,0)
(0,0,0)
(0,0,0)
(0,0,0)
(0,0,0)
(0,0,0)
(0,0,0)
(0,0,0)
(0,0,0)
(0,0,0)
(0,0,0)
(0,0,0)
(0,0,0)
(0,0,0)
(0,0,0)
(0,0,0)
(0,0,0)
(0,0,0)
(0,0,0)
(0,0,0)
(0,0,0)
(0,0,0)
(0,0,0)
(0,0,0)
(0,0,0)
(0,0,0)
(0,0,0)
(0,0,0)
(0,0,0)
(0,0,0)
(0,0,0)
(0,0,0)
(0,0,0)
(0,0,0)
(0,0,0)
(0,0,0)
(0,0,0)
(0,0,0)
(0,0,0)
(0,0,0)
(0,0,0)
(0,0,0)
(0,0,0)
(0,0,0)
(0,0,0)
(0,0,0)
(0,0,0)
(0,0,0)
(0,0,0)
(0,0,0)
(0,0,0)
(0,0,0)
(0,0,0)
(0,0,0)
(0,0,0)
(0,0,0)
(0,0,0)
(0,0,0)
(0,0,0)
(0,0,0)
(0,0,0)
(0,0,0)
(0,0,0)
(0,0,0)
(0,0,0)
(0,0,0)
(0,0,0)
(0,0,0)
(0,0,0)
(0,0,0)
(0,0,0)
(0,0,0)
(0,0,0)
(0,0,0)
(0,0,0)
(0,0,0)
(0,0,0)
(0,0,0)
(0,0,0)
(0,0,0)
(0,0,0)
(0,0,0)
(0,0,0)
(0,0,0)
(0,0,0)
(0,0,0)
(0,0,0)
(0,0,0)
(0,0,0)
(0,0,0)
(0,0,0)
(0,0,0)
(0,0,0)
(0,0,0)
(0,0,0)
(0,0,0)
(0,0,0)
(0,0,0)
(0,0,0)
(0,0,0)
(0,0,0)
(0,0,0)
(0,0,0)
(0,0,0)
(0,0,0)
(0,0,0)
(0,0,0)
(0,0,0)
(0,0,0)
(0,0,0)
(0,0,0)
(0,0,0)
(0,0,0)
(0,0,0)
(0,0,0)
(0,0,0)
(0,0,0)
(0,0,0)
(0,0,0)
(0,0,0)
(0,0,0)
(0,0,0)
(0,0,0)
(0,0,0)
(0,0,0)
(0,0,0)
(0,0,0)
(0,0,0)
(0,0,0)
(0,0,0)
(0,0,0)
(0,0,0)
(0,0,0)
(0,0,0)
(0,0,0)
(0,0,0)
(0,0,0)
(0,0,0)
(0,0,0)
(0,0,0)
(0,0,0)
(0,0,0)
(0,0,0)
(0,0,0)
(0,0,0)
(0,0,0)
(0,0,0)
(0,0,0)
(0,0,0)
(0,0,0)
(0,0,0)
(0,0,0)
(0,0,0)
(0,0,0)
(0,0,0)
(0,0,0)
(0,0,0)
(0,0,0)
(0,0,0)
(0,0,0)
(0,0,0)
(0,0,0)
(0,0,0)
(0,0,0)
(0,0,0)
(0,0,0)
(0,0,0)
(0,0,0)
(0,0,0)
(0,0,0)
(0,0,0)
(0,0,0)
(0,0,0)
(0,0,0)
(0,0,0)
(0,0,0)
(0,0,0)
(0,0,0)
(0,0,0)
(0,0,0)
(0,0,0)
(0,0,0)
(0,0,0)
(0,0,0)
(0,0,0)
(0,0,0)
(0,0,0)
(0,0,0)
(0,0,0)
(0,0,0)
(0,0,0)
(0,0,0)
(0,0,0)
(0,0,0)
(0,0,0)
(0,0,0)
(0,0,0)
(0,0,0)
(0,0,0)
(0,0,0)
(0,0,0)
(0,0,0)
(0,0,0)
(0,0,0)
(0,0,0)
(0,0,0)
(0,0,0)
(0,0,0)
(0,0,0)
(0,0,0)
(0,0,0)
(0,0,0)
(0,0,0)
(0,0,0)
(0,0,0)
(0,0,0)
(0,0,0)
(0,0,0)
(0,0,0)
(0,0,0)
(0,0,0)
(0,0,0)
(0,0,0)
(0,0,0)
(0,0,0)
(0,0,0)
(0,0,0)
(0,0,0)
(0,0,0)
(0,0,0)
(0,0,0)
(0,0,0)
(0,0,0)
(0,0,0)
(0,0,0)
(0,0,0)
(0,0,0)
(0,0,0)
(0,0,0)
(0,0,0)
(0,0,0)
(0,0,0)
(0,0,0)
(0,0,0)
(0,0,0)
(0,0,0)
(0,0,0)
(0,0,0)
(0,0,0)
(0,0,0)
(0,0,0)
(0,0,0)
(0,0,0)
(0,0,0)
(0,0,0)
(0,0,0)
(0,0,0)
(0,0,0)
(0,0,0)
(0,0,0)
(0,0,0)
(0,0,0)
(0,0,0)
(0,0,0)
(0,0,0)
(0,0,0)
(0,0,0)
(0,0,0)
(0,0,0)
(0,0,0)
(0,0,0)
(0,0,0)
(0,0,0)
(0,0,0)
(0,0,0)
(0,0,0)
(0,0,0)
(0,0,0)
(0,0,0)
(0,0,0)
(0,0,0)
(0,0,0)
(0,0,0)
(0,0,0)
(0,0,0)
(0,0,0)
(0,0,0)
(0,0,0)
(0,0,0)
(0,0,0)
(0,0,0)
(0,0,0)
(0,0,0)
(0,0,0)
(0,0,0)
(0,0,0)
(0,0,0)
(0,0,0)
(0,0,0)
(0,0,0)
(0,0,0)
(0,0,0)
(0,0,0)
(0,0,0)
(0,0,0)
(0,0,0)
(0,0,0)
(0,0,0)
(0,0,0)
(0,0,0)
(0,0,0)
(0,0,0)
(0,0,0)
(0,0,0)
(0,0,0)
(0,0,0)
(0,0,0)
(0,0,0)
(0,0,0)
(0,0,0)
(0,0,0)
(0,0,0)
(0,0,0)
(0,0,0)
(0,0,0)
(0,0,0)
(0,0,0)
(0,0,0)
(0,0,0)
(0,0,0)
(0,0,0)
(0,0,0)
(0,0,0)
(0,0,0)
(0,0,0)
(0,0,0)
(0,0,0)
(0,0,0)
(0,0,0)
(0,0,0)
(0,0,0)
(0,0,0)
(0,0,0)
(0,0,0)
(0,0,0)
(0,0,0)
(0,0,0)
(0,0,0)
(0,0,0)
(0,0,0)
(0,0,0)
(0,0,0)
(0,0,0)
(0,0,0)
(0,0,0)
(0,0,0)
(0,0,0)
(0,0,0)
(-216563.490464971,115192.102010848,101371.388454122)
(-229080.353616507,110416.16104146,220035.581029167)
(-257995.805664946,100525.469280447,377505.917413661)
(-312626.91275712,84963.6255365933,605169.204634201)
(-411160.953655721,63995.2026745089,952334.95561541)
(-587917.702349339,39888.4029683127,1500364.25499644)
(-907868.525035798,18013.4689657727,2390219.3110665)
(-1486023.23355598,4596.52842425384,3871646.01619823)
(-2450733.04654962,101.74051480666,6322277.32223301)
(-3414478.00890089,-245.733883683021,9737001.06501763)
(0,0,0)
(0,0,0)
(0,0,0)
(0,0,0)
(0,0,0)
(0,0,0)
(-229066.223264586,247595.235392141,96663.0898832926)
(-241693.697210472,238582.06063026,210190.887504965)
(-271083.545661749,219752.59759876,362047.304848399)
(-326996.190995399,189723.23552867,584283.885851721)
(-428240.302016855,148261.249965929,928258.140577155)
(-609238.38631542,98963.9771254068,1478420.95273547)
(-932725.177689688,52363.4098068866,2376796.18958404)
(-1508683.86204408,22836.216641966,3867240.36341035)
(-2465836.82955817,11211.8425496502,6321967.09093375)
(-3421518.60787695,5789.11705075994,9737450.84787613)
(0,0,0)
(0,0,0)
(0,0,0)
(0,0,0)
(0,0,0)
(0,0,0)
(-257691.831725709,417546.962691453,87740.1044263965)
(-270506.059693998,405434.99728006,191393.227470598)
(-300817.262579639,379900.711949717,332062.375699286)
(-359529.671381196,338472.705530748,542842.577078405)
(-467231.502391822,279393.797332813,878941.53210333)
(-659443.065906513,205593.073310902,1431755.50182435)
(-994051.944047187,130884.961169266,2347285.89450918)
(-1565145.84768987,79571.6363034906,3855696.32253747)
(-2502196.47813696,52483.8345538856,6316620.80867022)
(-3437975.95309114,28468.3223786849,9731917.5564335)
(0,0,0)
(0,0,0)
(0,0,0)
(0,0,0)
(0,0,0)
(0,0,0)
(-311007.300108069,652784.223954604,75770.0388449166)
(-324030.614333242,639284.923894038,165950.726564183)
(-355488.097614081,610640.475754769,290699.060373205)
(-418223.457878204,563595.596592891,483799.627189254)
(-536591.239575592,494663.50101546,805121.163082215)
(-750351.619047836,404050.178674462,1357015.67676648)
(-1111533.69163024,303432.472022854,2296001.85754312)
(-1674406.92187269,221282.984172087,3828697.4315472)
(-2568845.62846103,157273.148194538,6292753.74636751)
(-3467041.40354325,84643.2466578755,9703620.2256318)
(0,0,0)
(0,0,0)
(0,0,0)
(0,0,0)
(0,0,0)
(0,0,0)
(-406527.303478175,996911.013316367,62400.5141164074)
(-419497.722193128,983783.962711106,137399.197492465)
(-451555.939306059,955898.428693486,243697.18385981)
(-517645.357047343,910015.917920673,414922.219579374)
(-647004.753266314,842047.163093171,714543.310767969)
(-887449.970812319,749658.059563894,1256385.40069084)
(-1290429.67679498,636413.974598383,2213833.5749103)
(-1840750.05778399,511176.020341501,3764690.5965249)
(-2665684.19721909,367456.111684533,6220191.8302541)
(-3509051.72255684,194780.681438818,9619106.11803)
(0,0,0)
(0,0,0)
(0,0,0)
(0,0,0)
(0,0,0)
(0,0,0)
(-578858.793181937,1526401.11759204,49368.6889062647)
(-591175.634516207,1514711.64834321,109616.63779036)
(-622183.705458024,1489838.0907676,197860.681174268)
(-687599.158413363,1448492.99479461,346982.762713687)
(-818293.214606546,1385176.59936697,622146.54104645)
(-1063289.04640485,1291974.19132371,1143119.45569148)
(-1467497.42790928,1158478.1465659,2088552.71163325)
(-1992874.15010047,971702.840727767,3620900.04134747)
(-2770552.2729647,711479.033260061,6047429.39273665)
(-3561897.19066257,379815.839982079,9424291.42485591)
(0,0,0)
(0,0,0)
(0,0,0)
(0,0,0)
(0,0,0)
(0,0,0)
(-895158.15637994,2383786.91902811,37772.3549438719)
(-906048.724382409,2373675.32536556,84857.4023039518)
(-933886.910801344,2352005.44585822,156576.958014676)
(-993651.59372568,2314995.49430631,283726.052228654)
(-1115026.12520954,2254979.34568003,528949.431125132)
(-1345181.35866599,2156487.15293769,1009617.82817715)
(-1724507.19658046,1990806.30294031,1901796.86838321)
(-2202251.82738857,1715157.5417432,3360593.99475634)
(-2926807.7885069,1283304.29360587,5715576.52291742)
(-3648105.33092497,699229.051653957,9044268.64217058)
(0,0,0)
(0,0,0)
(0,0,0)
(0,0,0)
(0,0,0)
(0,0,0)
(-1473578.54493182,3829621.97074505,27743.4932148678)
(-1482295.28394692,3820445.09648795,63269.0060393963)
(-1504733.68845969,3800301.46853255,119706.67182478)
(-1553355.39993394,3764253.51683111,223804.049233887)
(-1653104.23816458,3701393.82722023,430493.805858267)
(-1844382.09684635,3587353.70304369,844009.352598591)
(-2162018.60062325,3370661.71280196,1626172.54336015)
(-2548788.69434809,2961515.19708558,2928603.58236591)
(-3210532.45856192,2291159.81886024,5131280.51567347)
(-3812975.27322683,1298687.07770278,8344797.76285143)
(0,0,0)
(0,0,0)
(0,0,0)
(0,0,0)
(0,0,0)
(0,0,0)
(-2442195.0983858,6253219.43981398,18597.6293168664)
(-2448154.98738732,6244026.13864282,43171.574549307)
(-2463406.83706093,6223052.69565195,83827.1844907892)
(-2496107.27532659,6183134.05258514,161053.924063334)
(-2562001.77384009,6107984.08875512,316465.436368555)
(-2685759.61329126,5962228.59154208,627350.16116144)
(-2893661.14623273,5674697.8036872,1216975.21650895)
(-3202592.46643684,5123065.44380922,2258017.43622219)
(-3733936.37699878,4144648.41070747,4138465.22137361)
(-4100563.14127029,2492013.41478993,7045702.02555674)
(0,0,0)
(0,0,0)
(0,0,0)
(0,0,0)
(0,0,0)
(0,0,0)
(-3410550.44048295,9654297.85657273,9472.0237241839)
(-3413523.67377522,9644748.05272304,22273.7834191476)
(-3421082.90243874,9622400.45506281,44008.9264470523)
(-3437134.90337245,9578310.58793026,85967.2944744412)
(-3469035.95287167,9492326.35576432,170660.980336949)
(-3528636.5578708,9321741.47367093,339784.656078842)
(-3632677.76313573,8981959.0453566,665201.177545163)
(-3808027.68806303,8316977.42198128,1279316.88743609)
(-4099614.43157347,7038044.76076337,2485534.96895357)
(-4128720.56545112,4552929.50275631,4553339.44643841)
(0,0,0)
(0,0,0)
(0,0,0)
(0,0,0)
(0,0,0)
(0,0,0)
(0,0,0)
(0,0,0)
(0,0,0)
(0,0,0)
(0,0,0)
(0,0,0)
(0,0,0)
(0,0,0)
(0,0,0)
(0,0,0)
(0,0,0)
(0,0,0)
(0,0,0)
(0,0,0)
(0,0,0)
(0,0,0)
(0,0,0)
(0,0,0)
(0,0,0)
(0,0,0)
(0,0,0)
(0,0,0)
(0,0,0)
(0,0,0)
(0,0,0)
(0,0,0)
(0,0,0)
(0,0,0)
(0,0,0)
(0,0,0)
(0,0,0)
(0,0,0)
(0,0,0)
(0,0,0)
(0,0,0)
(0,0,0)
(0,0,0)
(0,0,0)
(0,0,0)
(0,0,0)
(0,0,0)
(0,0,0)
(0,0,0)
(0,0,0)
(0,0,0)
(0,0,0)
(0,0,0)
(0,0,0)
(0,0,0)
(0,0,0)
(0,0,0)
(0,0,0)
(0,0,0)
(0,0,0)
(0,0,0)
(0,0,0)
(0,0,0)
(0,0,0)
(0,0,0)
(0,0,0)
(0,0,0)
(0,0,0)
(0,0,0)
(0,0,0)
(0,0,0)
(0,0,0)
(0,0,0)
(0,0,0)
(0,0,0)
(0,0,0)
(0,0,0)
(0,0,0)
(0,0,0)
(0,0,0)
(0,0,0)
(0,0,0)
(0,0,0)
(0,0,0)
(0,0,0)
(0,0,0)
(0,0,0)
(0,0,0)
(0,0,0)
(0,0,0)
(0,0,0)
(0,0,0)
(0,0,0)
(0,0,0)
(0,0,0)
(0,0,0)
(0,0,0)
(0,0,0)
(0,0,0)
(0,0,0)
(0,0,0)
(0,0,0)
(32020654.0541967,102683.295129645,88886.6940043252)
(31999718.9983409,97779.4468066033,191095.429036116)
(31951622.3142945,87406.9737428965,322857.869129321)
(31861794.8146133,70572.908804354,506650.766750112)
(31701892.3400189,46878.6143073712,775506.392563693)
(31417617.5540842,18528.0947454357,1180230.5751802)
(30896266.9887265,-6883.33328626492,1811765.92849957)
(29866084.6040033,-18109.9046261883,2906555.52936209)
(27541626.130491,-15054.1591267085,5358038.04524381)
(21228881.4320548,-7351.92726439934,13150818.0653483)
(0,0,0)
(0,0,0)
(0,0,0)
(0,0,0)
(0,0,0)
(0,0,0)
(31999353.9930543,218986.191450105,84064.4211562893)
(31978388.9610484,209739.859957107,180808.883542536)
(31929848.2678662,189953.136677287,306118.440875806)
(31838310.986221,157155.682139786,483016.024119643)
(31674031.5375816,109238.930547684,747171.402076615)
(31381771.1668105,48706.2617279128,1154771.21576386)
(30852432.6389107,-9040.42471015279,1800558.02438311)
(29826548.6181681,-33714.0195424841,2909717.19288281)
(27517054.7586714,-25233.6609821108,5365792.64030402)
(21218143.3789705,-10744.8536759895,13158311.1136636)
(0,0,0)
(0,0,0)
(0,0,0)
(0,0,0)
(0,0,0)
(0,0,0)
(31950953.5528672,364228.273297444,74900.0673552141)
(31929962.6972088,351897.374438868,161061.329766214)
(31880497.4964506,325166.61601245,273320.625196563)
(31784952.9032397,279703.256403087,435078.010108086)
(31609308.0859712,209962.942359613,686601.943728729)
(31293115.7661375,114583.759285181,1096953.1479232)
(30733453.6137031,13298.6114535269,1775896.08780487)
(29717337.3999387,-29798.0269983854,2918284.38142795)
(27453539.2791092,-14250.8256325728,5380353.32262769)
(21191823.5322167,-652.05132157521,13169248.568761)
(0,0,0)
(0,0,0)
(0,0,0)
(0,0,0)
(0,0,0)
(0,0,0)
(31862059.4377335,557246.723971004,62702.3452805265)
(31841108.4916164,543803.37085144,134444.776713966)
(31790485.5385227,514526.196103886,227899.094281313)
(31688733.6274624,464085.44356171,365347.355577698)
(31492145.6255316,384138.583942699,591222.382683097)
(31121791.9843254,266809.186271427,995640.886119236)
(30468961.3024802,124406.495163676,1732825.54209431)
(29468666.6460931,54829.9767737127,2933911.50415212)
(27325151.5115149,60363.3633254015,5394087.70901378)
(21142531.4192829,42591.2536477052,13170059.1150141)
(0,0,0)
(0,0,0)
(0,0,0)
(0,0,0)
(0,0,0)
(0,0,0)
(31705673.8665561,824465.943491476,49367.14424085)
(31685191.6601916,812002.660977931,105266.005525209)
(31634338.0035823,785173.03818871,177512.754347841)
(31527320.1883208,739944.782393827,285475.403943084)
(31306790.9561092,670624.211265227,473981.601040804)
(30855227.2747823,573658.56384816,853242.511665219)
(29993542.7933317,459210.188635468,1663253.8818624)
(29007683.2486439,358971.231973482,2939466.85403039)
(27123971.5840613,262541.716606395,5376420.25326455)
(21069218.6725372,141905.774686732,13127622.8709269)
(0,0,0)
(0,0,0)
(0,0,0)
(0,0,0)
(0,0,0)
(0,0,0)
(31427536.9582535,1209888.37749111,36969.348360401)
(31408444.634516,1199621.49887308,78517.7752286568)
(31360020.0227548,1177943.49791774,132331.121082494)
(31254989.6330598,1142284.30389758,216190.341901333)
(31031970.1350039,1088301.19003774,377037.547313961)
(30567531.5744726,1009894.21467138,738768.809408864)
(29695010.0201677,901294.899853845,1562964.18390923)
(28752662.7831412,762217.49738469,2842968.51905196)
(26952843.6297618,555165.928885949,5255735.93784162)
(20985250.6098643,293583.869707376,12985697.5760896)
(0,0,0)
(0,0,0)
(0,0,0)
(0,0,0)
(0,0,0)
(0,0,0)
(30911678.2423486,1805039.21478851,26800.2977695742)
(30895074.6075607,1797114.60449821,56971.3939969425)
(30852176.4182354,1780874.93560041,96764.1610732394)
(30756838.4516167,1755061.98172329,162283.971700746)
(30548950.5063807,1716719.09082255,298676.973121327)
(30104930.5853089,1657075.82263366,630170.954979803)
(29258795.9312002,1553091.88165183,1423858.37919664)
(28408353.1145018,1368467.37357591,2635791.09491075)
(26699480.3760883,999484.549350317,4993971.84364665)
(20841999.6277351,534312.424501115,12691925.8639886)
(0,0,0)
(0,0,0)
(0,0,0)
(0,0,0)
(0,0,0)
(0,0,0)
(29880612.7313035,2860645.56106354,18989.911285303)
(29867522.301737,2854241.33851607,40833.1253790595)
(29833353.2188526,2841309.03113026,71099.6563325085)
(29756342.8215768,2821205.60435228,124045.345988372)
(29585091.8875117,2792245.99012242,239109.854807824)
(29208555.4076329,2745752.09918044,526283.607577484)
(28468079.3928439,2638803.44517089,1239261.58438688)
(27913533.4520925,2307524.59456196,2266669.75075572)
(26188212.3128992,1767616.34379447,4528580.71864612)
(20510339.4634327,1011008.6814883,12157357.2587951)
(0,0,0)
(0,0,0)
(0,0,0)
(0,0,0)
(0,0,0)
(0,0,0)
(27550120.4196098,5284484.46027032,12633.116593266)
(27541289.1024003,5278279.15687593,27938.7422413933)
(27518463.5781831,5265010.44299853,51154.4489246882)
(27468114.3225157,5241749.85780401,95176.1314262341)
(27360954.1094476,5200624.5511832,192629.220873298)
(27142985.7941197,5119054.03613722,419369.410301332)
(26749942.4221206,4935428.16975803,907928.651156623)
(26197698.9080553,4517410.39218887,1726539.01283331)
(24638610.9914835,3778766.23291139,3771629.28902977)
(19501221.6353554,2463727.5906011,11145913.1370869)
(0,0,0)
(0,0,0)
(0,0,0)
(0,0,0)
(0,0,0)
(0,0,0)
(21232030.854332,13064219.7351067,6470.96414416448)
(21227650.8143381,13057681.6096274,14681.557074816)
(21216479.9185183,13042962.1891951,27954.5237168765)
(21192309.5214339,13014969.0169032,54078.473607083)
(21142498.8371009,12960935.5844629,111020.184150524)
(21044563.6515618,12849962.7372485,235698.807402311)
(20863156.7633799,12614291.7752972,489788.209143148)
(20515633.5747095,12124672.6435509,987652.228804433)
(19502013.6853876,11137303.8933083,2456273.98524221)
(15856868.9875656,8681409.53806552,8681790.01855665)
(0,0,0)
(0,0,0)
(0,0,0)
(0,0,0)
(0,0,0)
(0,0,0)
(0,0,0)
(0,0,0)
(0,0,0)
(0,0,0)
(0,0,0)
(0,0,0)
(0,0,0)
(0,0,0)
(0,0,0)
(0,0,0)
(0,0,0)
(0,0,0)
(0,0,0)
(0,0,0)
(0,0,0)
(0,0,0)
(0,0,0)
(0,0,0)
(0,0,0)
(0,0,0)
(0,0,0)
(0,0,0)
(0,0,0)
(0,0,0)
(0,0,0)
(0,0,0)
(0,0,0)
(0,0,0)
(0,0,0)
(0,0,0)
(0,0,0)
(0,0,0)
(0,0,0)
(0,0,0)
(0,0,0)
(0,0,0)
(0,0,0)
(0,0,0)
(0,0,0)
(0,0,0)
(0,0,0)
(0,0,0)
(0,0,0)
(0,0,0)
(0,0,0)
(0,0,0)
(0,0,0)
(0,0,0)
(0,0,0)
(0,0,0)
(0,0,0)
(0,0,0)
(0,0,0)
(0,0,0)
(0,0,0)
(0,0,0)
(0,0,0)
(0,0,0)
(0,0,0)
(0,0,0)
(0,0,0)
(0,0,0)
(0,0,0)
(0,0,0)
(0,0,0)
(0,0,0)
(0,0,0)
(0,0,0)
(0,0,0)
(0,0,0)
(0,0,0)
(0,0,0)
(0,0,0)
(0,0,0)
(0,0,0)
(0,0,0)
(0,0,0)
(0,0,0)
(0,0,0)
(0,0,0)
(0,0,0)
(0,0,0)
(0,0,0)
(0,0,0)
(0,0,0)
(0,0,0)
(0,0,0)
(0,0,0)
(0,0,0)
(0,0,0)
(0,0,0)
(0,0,0)
(0,0,0)
(0,0,0)
(0,0,0)
(0,0,0)
(-557495.991579309,81354.4685086714,68008.043471696)
(-580575.501430823,76426.4132024825,143088.596245135)
(-632798.494132764,65599.1055580489,233122.765318806)
(-727800.628930577,47080.2616644221,346850.413402689)
(-890276.963343483,19020.3931045425,491211.789864966)
(-1161278.3362456,-17331.8626251156,658652.00902439)
(-1604292.83902305,-50769.3103507054,781193.613329201)
(-2305333.29415168,-57713.7565532546,581537.734241828)
(-3310418.74511055,-39676.0573721052,-955528.866580134)
(-4057774.77526894,-18153.4388243549,-8079506.75422765)
(0,0,0)
(0,0,0)
(0,0,0)
(0,0,0)
(0,0,0)
(0,0,0)
(-581882.950268305,170669.917495007,63133.9605406324)
(-604556.298353524,161374.085398945,132344.013950468)
(-656244.747113675,140608.460382889,214640.140309895)
(-751362.433516401,103822.454629044,318783.833287008)
(-916341.006726547,44534.8640025517,454854.372901425)
(-1194707.29810119,-39991.0104349394,625204.451827297)
(-1648094.53520252,-128109.774615309,774284.556409396)
(-2342326.75466994,-143025.356591116,599683.995489674)
(-3328963.78185703,-88839.0802089898,-933921.974940374)
(-4064316.71853672,-37165.332497944,-8061237.5175551)
(0,0,0)
(0,0,0)
(0,0,0)
(0,0,0)
(0,0,0)
(0,0,0)
(-636431.11975679,275393.980131692,53873.0761918449)
(-658316.10215547,263113.472035711,111624.955123785)
(-709047.113577624,235164.209484949,177826.282254195)
(-805069.800983848,183448.691689087,259435.215621991)
(-978565.443847698,92753.2179490067,370302.857698829)
(-1285588.39373538,-56831.4169908098,537059.890331824)
(-1794496.73363783,-251295.227931968,759408.157193772)
(-2470488.59595996,-278563.476727805,653984.739433378)
(-3385217.33764299,-142736.428730179,-882148.829088671)
(-4082335.63236305,-50029.6688463561,-8023912.86195613)
(0,0,0)
(0,0,0)
(0,0,0)
(0,0,0)
(0,0,0)
(0,0,0)
(-733848.112810225,400815.476313308,41698.5205664473)
(-754570.414990013,387887.448684699,83815.9167282181)
(-803822.289111245,358346.883702402,126153.536349141)
(-901742.531870324,302568.332961319,168722.52061402)
(-1094534.94896356,198635.014355048,220733.764907469)
(-1485760.34055265,71.0929716584843,342596.046027453)
(-2249492.639975,-351197.802325233,732165.029080218)
(-2890102.1455019,-406307.543614305,789890.353766015)
(-3526203.10579787,-140945.108418581,-789333.883028341)
(-4121040.65837342,-30793.1055404608,-7973785.90247369)
(0,0,0)
(0,0,0)
(0,0,0)
(0,0,0)
(0,0,0)
(0,0,0)
(-897293.224646815,546143.976578138,28851.0571424861)
(-916339.634407475,535094.663297955,54387.6033327251)
(-962837.577905008,510678.625666519,70443.9090600933)
(-1060722.64330999,467407.52639365,64860.0134630457)
(-1276312.4167354,395545.454225733,22265.4126412028)
(-1828264.22435935,285677.613371239,-8637.14241248358)
(-3632511.72499796,160359.856225427,677072.183570825)
(-4309348.48790655,103717.571647656,1055291.27106369)
(-3802647.59363588,91256.3021997442,-679078.495653018)
(-4184460.40255797,57880.0381845564,-7942860.09807833)
(0,0,0)
(0,0,0)
(0,0,0)
(0,0,0)
(0,0,0)
(0,0,0)
(-1166691.96708511,693720.331931706,17865.036189576)
(-1183376.32478959,685922.80311277,30070.3218847333)
(-1225020.02158983,669762.088455146,27239.3696450468)
(-1316037.90546818,643827.170678956,-6940.2699080207)
(-1525607.36089113,604951.011644313,-87555.8652271473)
(-2076128.88943901,546919.025358629,-133924.347098498)
(-3792372.09186493,464694.323299197,620335.764064622)
(-4412445.60602097,417624.771887664,1042749.41919111)
(-3931030.88165769,301610.002633061,-712517.303618462)
(-4247666.56824198,150257.603973744,-8000765.2250969)
(0,0,0)
(0,0,0)
(0,0,0)
(0,0,0)
(0,0,0)
(0,0,0)
(-1607101.59382516,773547.698480486,10164.9358294492)
(-1620836.04647041,769138.465336677,14072.393841049)
(-1655849.10348011,761634.59065886,1437.87955710812)
(-1735187.6717046,754182.850011646,-45679.21024987)
(-1927561.90458334,752472.942420525,-145476.263857666)
(-2466592.16971596,760248.4408409,-216070.458110708)
(-4256473.46432891,761929.62549764,573176.101424467)
(-4829481.00706932,873299.966184597,926547.494903018)
(-4125023.32537607,487965.616493289,-864091.951288298)
(-4351920.75560404,202527.427216541,-8151228.92498767)
(0,0,0)
(0,0,0)
(0,0,0)
(0,0,0)
(0,0,0)
(0,0,0)
(-2310106.89912389,529608.769504544,5871.02560767103)
(-2320440.0550544,527501.776923045,6682.53701717476)
(-2347179.97740031,525929.385884305,-5866.59575095018)
(-2409398.38851239,532501.936899554,-47232.0063452692)
(-2568557.39451772,567653.524063081,-137550.839753993)
(-3062967.19496673,679712.589309462,-214279.919418595)
(-5017751.87824946,920206.878528089,684486.564848723)
(-4089810.94057085,591316.445579196,541026.944321889)
(-4279501.05360907,217727.971486037,-1149809.57795816)
(-4513384.37503512,1732.61833276213,-8354078.46440217)
(0,0,0)
(0,0,0)
(0,0,0)
(0,0,0)
(0,0,0)
(0,0,0)
(-3318518.08837431,-1034358.00044623,3817.74413926866)
(-3325240.31215296,-1036087.29500759,5148.69682757569)
(-3342380.64003226,-1037695.37367092,830.140802559994)
(-3380616.14387203,-1034741.81748265,-11983.1722230726)
(-3468245.78510881,-1018486.39213115,-25430.8952679877)
(-3677764.91235656,-980007.928050132,26252.7947720871)
(-4135925.30379026,-951966.993682683,355506.859098004)
(-4286323.24249521,-1165161.54950808,167219.470940018)
(-4680807.26119008,-1358241.64511419,-1366180.19358179)
(-4754876.52915511,-1180874.65653695,-8356262.28799716)
(0,0,0)
(0,0,0)
(0,0,0)
(0,0,0)
(0,0,0)
(0,0,0)
(-4064053.3185146,-8169166.70498527,2105.34359007332)
(-4067329.84099947,-8171290.72005221,3501.89017666337)
(-4075522.99021694,-8174751.48866337,3773.38010876797)
(-4093197.52937723,-8178506.03859167,4257.11823312456)
(-4130844.78628435,-8182701.33814639,13028.1538380072)
(-4209735.24368877,-8195716.57734524,54248.1645879709)
(-4355598.02280583,-8249928.29159623,142176.714891654)
(-4518073.81260344,-8391968.85449178,-26096.1266075141)
(-4756302.06248053,-8365642.5585313,-1189166.999118)
(-4590025.43254701,-7176134.43024327,-7175800.33909472)
(0,0,0)
(0,0,0)
(0,0,0)
(0,0,0)
(0,0,0)
(0,0,0)
(0,0,0)
(0,0,0)
(0,0,0)
(0,0,0)
(0,0,0)
(0,0,0)
(0,0,0)
(0,0,0)
(0,0,0)
(0,0,0)
(0,0,0)
(0,0,0)
(0,0,0)
(0,0,0)
(0,0,0)
(0,0,0)
(0,0,0)
(0,0,0)
(0,0,0)
(0,0,0)
(0,0,0)
(0,0,0)
(0,0,0)
(0,0,0)
(0,0,0)
(0,0,0)
(0,0,0)
(0,0,0)
(0,0,0)
(0,0,0)
(0,0,0)
(0,0,0)
(0,0,0)
(0,0,0)
(0,0,0)
(0,0,0)
(0,0,0)
(0,0,0)
(0,0,0)
(0,0,0)
(0,0,0)
(0,0,0)
(0,0,0)
(0,0,0)
(0,0,0)
(0,0,0)
(0,0,0)
(0,0,0)
(0,0,0)
(0,0,0)
(0,0,0)
(0,0,0)
(0,0,0)
(0,0,0)
(0,0,0)
(0,0,0)
(0,0,0)
(0,0,0)
(0,0,0)
(0,0,0)
(0,0,0)
(0,0,0)
(0,0,0)
(0,0,0)
(0,0,0)
(0,0,0)
(0,0,0)
(0,0,0)
(0,0,0)
(0,0,0)
(0,0,0)
(0,0,0)
(0,0,0)
(0,0,0)
(0,0,0)
(0,0,0)
(0,0,0)
(0,0,0)
(0,0,0)
(0,0,0)
(0,0,0)
(0,0,0)
(0,0,0)
(0,0,0)
(0,0,0)
(0,0,0)
(0,0,0)
(0,0,0)
(0,0,0)
(0,0,0)
(0,0,0)
(0,0,0)
(0,0,0)
(0,0,0)
(0,0,0)
(0,0,0)
(-659410.553890933,56945.8712060515,44968.6911055734)
(-678992.419758042,52423.0490547129,90962.5603780798)
(-722201.534036458,42131.0274901285,138234.572791648)
(-797532.329818405,23534.3061098567,184431.967569619)
(-919031.649814825,-6985.28377276924,220171.937813732)
(-1105776.94074741,-50728.7048798959,215399.247195443)
(-1374055.08752821,-94598.880336216,79760.3760368089)
(-1706647.9854268,-94761.7975952968,-424163.13509277)
(-1972567.59421973,-58261.9021620553,-1703752.38382149)
(-1713968.81507831,-24729.3759010723,-4022828.96811101)
(0,0,0)
(0,0,0)
(0,0,0)
(0,0,0)
(0,0,0)
(0,0,0)
(-681591.851933221,116195.928031579,40458.8448393838)
(-700067.591744263,107673.235296898,80719.951987942)
(-740860.842785382,87841.8396439669,119625.235505812)
(-812206.644090401,50139.6695229771,153864.082666686)
(-928209.053160472,-17678.4042686837,176425.24959652)
(-1109604.89761486,-130935.278666061,171529.422896354)
(-1376143.72155736,-274628.119100076,79607.8480150543)
(-1698608.17714155,-271306.372836365,-387566.154272264)
(-1959512.72378382,-145181.448168445,-1670097.66633906)
(-1705931.18914891,-55265.4049992138,-3997947.16662882)
(0,0,0)
(0,0,0)
(0,0,0)
(0,0,0)
(0,0,0)
(0,0,0)
(-730188.525957186,178003.487786992,31949.8464449857)
(-746528.591128787,166895.54252574,60940.0281894606)
(-782557.89046451,140383.623497059,81909.0212232527)
(-845676.734422836,86681.6998276916,85973.9243575241)
(-950096.779124903,-23336.0798335978,63162.9351996416)
(-1124072.3173186,-257144.513912583,27856.094029366)
(-1417847.78447128,-706408.492799285,82987.5185620194)
(-1699226.45253565,-698281.438916587,-261299.558782087)
(-1927844.06741745,-283817.304814889,-1580036.97236118)
(-1686329.51439445,-88800.8535162876,-3942507.64181274)
(0,0,0)
(0,0,0)
(0,0,0)
(0,0,0)
(0,0,0)
(0,0,0)
(-813968.85369621,237193.234454899,20930.9942180865)
(-827318.9127642,226004.667107018,34570.3674110023)
(-856354.327254422,199214.490116373,28271.5389348692)
(-906100.757030451,143392.98815369,-24081.5242309977)
(-987950.791643745,16623.2400648264,-170625.001449234)
(-1149509.4274842,-342640.648924152,-421379.779506119)
(-1734101.31760442,-1734350.45877636,91170.8641003886)
(-1824806.62672715,-1825679.22495761,153273.131366645)
(-1854311.6679155,-417522.994192419,-1384912.6171382)
(-1646817.89664912,-94286.3913529506,-3853649.84102592)
(0,0,0)
(0,0,0)
(0,0,0)
(0,0,0)
(0,0,0)
(0,0,0)
(-946316.451837184,276428.111180627,9788.35046464148)
(-956182.931867623,267774.049059512,7862.26597229985)
(-976497.705667827,248226.981852304,-27490.098000804)
(-1005804.74240871,211799.67172671,-150814.682475103)
(-1026608.775416,145915.806210512,-529810.88994019)
(-925156.742024174,37453.1995905051,-1813012.22079002)
(2.58926658204688e-05,7.60681536747383e-06,-1.79385132768885e-05)