/*--------------------------------*- C++ -*----------------------------------*\
| =========                 |                                                 |
| \\      /  F ield         | foam-extend: Open Source CFD                    |
|  \\    /   O peration     | Version:     4.0                                |
|   \\  /    A nd           | Web:         http://www.foam-extend.org         |
|    \\/     M anipulation  |                                                 |
\*---------------------------------------------------------------------------*/
FoamFile
{
    version 2.0;
    format ascii;
    class volVectorField;
    location "2127";
    object      H;
}
// * * * * * * * * * * * * * * * * * * * * * * * * * * * * * * * * * * * * * //

dimensions      [0 1 -1 0 0 0 0];

internalField   nonuniform List<vector>
4096
(
(0,0,0)
(0,0,0)
(0,0,0)
(0,0,0)
(0,0,0)
(0,0,0)
(0,0,0)
(0,0,0)
(0,0,0)
(0,0,0)
(0,0,0)
(0,0,0)
(0,0,0)
(0,0,0)
(0,0,0)
(0,0,0)
(0,0,0)
(0,0,0)
(0,0,0)
(0,0,0)
(0,0,0)
(0,0,0)
(0,0,0)
(0,0,0)
(0,0,0)
(0,0,0)
(0,0,0)
(0,0,0)
(0,0,0)
(0,0,0)
(0,0,0)
(0,0,0)
(0,0,0)
(0,0,0)
(0,0,0)
(0,0,0)
(0,0,0)
(0,0,0)
(0,0,0)
(0,0,0)
(0,0,0)
(0,0,0)
(0,0,0)
(0,0,0)
(0,0,0)
(0,0,0)
(0,0,0)
(0,0,0)
(0,0,0)
(0,0,0)
(0,0,0)
(0,0,0)
(0,0,0)
(0,0,0)
(0,0,0)
(0,0,0)
(0,0,0)
(0,0,0)
(0,0,0)
(0,0,0)
(0,0,0)
(0,0,0)
(0,0,0)
(0,0,0)
(0,0,0)
(0,0,0)
(0,0,0)
(0,0,0)
(0,0,0)
(0,0,0)
(0,0,0)
(0,0,0)
(0,0,0)
(0,0,0)
(0,0,0)
(0,0,0)
(0,0,0)
(0,0,0)
(0,0,0)
(0,0,0)
(0,0,0)
(0,0,0)
(0,0,0)
(0,0,0)
(0,0,0)
(0,0,0)
(0,0,0)
(0,0,0)
(0,0,0)
(0,0,0)
(0,0,0)
(0,0,0)
(0,0,0)
(0,0,0)
(0,0,0)
(0,0,0)
(0,0,0)
(0,0,0)
(0,0,0)
(0,0,0)
(0,0,0)
(0,0,0)
(0,0,0)
(0,0,0)
(0,0,0)
(0,0,0)
(0,0,0)
(0,0,0)
(0,0,0)
(0,0,0)
(0,0,0)
(0,0,0)
(0,0,0)
(0,0,0)
(0,0,0)
(0,0,0)
(0,0,0)
(0,0,0)
(0,0,0)
(0,0,0)
(0,0,0)
(0,0,0)
(0,0,0)
(0,0,0)
(0,0,0)
(0,0,0)
(0,0,0)
(0,0,0)
(0,0,0)
(0,0,0)
(0,0,0)
(0,0,0)
(0,0,0)
(0,0,0)
(0,0,0)
(0,0,0)
(0,0,0)
(0,0,0)
(0,0,0)
(0,0,0)
(0,0,0)
(0,0,0)
(0,0,0)
(0,0,0)
(0,0,0)
(0,0,0)
(0,0,0)
(0,0,0)
(0,0,0)
(0,0,0)
(0,0,0)
(0,0,0)
(0,0,0)
(0,0,0)
(0,0,0)
(0,0,0)
(0,0,0)
(0,0,0)
(0,0,0)
(0,0,0)
(0,0,0)
(0,0,0)
(0,0,0)
(0,0,0)
(0,0,0)
(0,0,0)
(0,0,0)
(0,0,0)
(0,0,0)
(0,0,0)
(0,0,0)
(0,0,0)
(0,0,0)
(0,0,0)
(0,0,0)
(0,0,0)
(0,0,0)
(0,0,0)
(0,0,0)
(0,0,0)
(0,0,0)
(0,0,0)
(0,0,0)
(0,0,0)
(0,0,0)
(0,0,0)
(0,0,0)
(0,0,0)
(0,0,0)
(0,0,0)
(0,0,0)
(0,0,0)
(0,0,0)
(0,0,0)
(0,0,0)
(0,0,0)
(0,0,0)
(0,0,0)
(0,0,0)
(0,0,0)
(0,0,0)
(0,0,0)
(0,0,0)
(0,0,0)
(0,0,0)
(0,0,0)
(0,0,0)
(0,0,0)
(0,0,0)
(0,0,0)
(0,0,0)
(0,0,0)
(0,0,0)
(0,0,0)
(0,0,0)
(0,0,0)
(0,0,0)
(0,0,0)
(0,0,0)
(0,0,0)
(0,0,0)
(0,0,0)
(0,0,0)
(0,0,0)
(0,0,0)
(0,0,0)
(0,0,0)
(0,0,0)
(0,0,0)
(0,0,0)
(0,0,0)
(0,0,0)
(0,0,0)
(0,0,0)
(0,0,0)
(0,0,0)
(0,0,0)
(0,0,0)
(0,0,0)
(0,0,0)
(0,0,0)
(0,0,0)
(0,0,0)
(0,0,0)
(0,0,0)
(0,0,0)
(0,0,0)
(0,0,0)
(0,0,0)
(0,0,0)
(0,0,0)
(0,0,0)
(0,0,0)
(0,0,0)
(0,0,0)
(0,0,0)
(0,0,0)
(0,0,0)
(0,0,0)
(0,0,0)
(0,0,0)
(0,0,0)
(0,0,0)
(0,0,0)
(0,0,0)
(0,0,0)
(0,0,0)
(0,0,0)
(0,0,0)
(0,0,0)
(0,0,0)
(0,0,0)
(0,0,0)
(0,0,0)
(0,0,0)
(0,0,0)
(0,0,0)
(0,0,0)
(0,0,0)
(0,0,0)
(0,0,0)
(0,0,0)
(0,0,0)
(0,0,0)
(0,0,0)
(0,0,0)
(0,0,0)
(0,0,0)
(0,0,0)
(0,0,0)
(0,0,0)
(0,0,0)
(0,0,0)
(0,0,0)
(0,0,0)
(0,0,0)
(0,0,0)
(0,0,0)
(0,0,0)
(0,0,0)
(0,0,0)
(0,0,0)
(0,0,0)
(0,0,0)
(0,0,0)
(0,0,0)
(0,0,0)
(0,0,0)
(0,0,0)
(0,0,0)
(0,0,0)
(0,0,0)
(0,0,0)
(0,0,0)
(0,0,0)
(0,0,0)
(0,0,0)
(0,0,0)
(0,0,0)
(0,0,0)
(0,0,0)
(0,0,0)
(0,0,0)
(0,0,0)
(0,0,0)
(0,0,0)
(0,0,0)
(0,0,0)
(0,0,0)
(0,0,0)
(0,0,0)
(0,0,0)
(0,0,0)
(0,0,0)
(0,0,0)
(0,0,0)
(0,0,0)
(0,0,0)
(0,0,0)
(0,0,0)
(0,0,0)
(0,0,0)
(0,0,0)
(0,0,0)
(0,0,0)
(0,0,0)
(0,0,0)
(0,0,0)
(0,0,0)
(0,0,0)
(0,0,0)
(0,0,0)
(0,0,0)
(0,0,0)
(0,0,0)
(0,0,0)
(0,0,0)
(0,0,0)
(0,0,0)
(0,0,0)
(0,0,0)
(0,0,0)
(0,0,0)
(0,0,0)
(0,0,0)
(0,0,0)
(0,0,0)
(0,0,0)
(0,0,0)
(0,0,0)
(0,0,0)
(0,0,0)
(0,0,0)
(0,0,0)
(0,0,0)
(0,0,0)
(0,0,0)
(0,0,0)
(0,0,0)
(0,0,0)
(0,0,0)
(0,0,0)
(0,0,0)
(0,0,0)
(0,0,0)
(0,0,0)
(0,0,0)
(0,0,0)
(0,0,0)
(0,0,0)
(0,0,0)
(0,0,0)
(0,0,0)
(0,0,0)
(0,0,0)
(0,0,0)
(0,0,0)
(0,0,0)
(0,0,0)
(0,0,0)
(0,0,0)
(0,0,0)
(0,0,0)
(0,0,0)
(0,0,0)
(0,0,0)
(0,0,0)
(0,0,0)
(0,0,0)
(0,0,0)
(0,0,0)
(0,0,0)
(0,0,0)
(0,0,0)
(0,0,0)
(0,0,0)
(0,0,0)
(0,0,0)
(0,0,0)
(0,0,0)
(0,0,0)
(0,0,0)
(0,0,0)
(0,0,0)
(0,0,0)
(0,0,0)
(0,0,0)
(0,0,0)
(0,0,0)
(0,0,0)
(0,0,0)
(0,0,0)
(0,0,0)
(0,0,0)
(0,0,0)
(0,0,0)
(0,0,0)
(0,0,0)
(0,0,0)
(0,0,0)
(0,0,0)
(0,0,0)
(0,0,0)
(0,0,0)
(0,0,0)
(0,0,0)
(0,0,0)
(0,0,0)
(0,0,0)
(0,0,0)
(0,0,0)
(0,0,0)
(0,0,0)
(0,0,0)
(0,0,0)
(0,0,0)
(0,0,0)
(0,0,0)
(0,0,0)
(0,0,0)
(0,0,0)
(0,0,0)
(0,0,0)
(0,0,0)
(0,0,0)
(0,0,0)
(0,0,0)
(0,0,0)
(0,0,0)
(0,0,0)
(0,0,0)
(0,0,0)
(0,0,0)
(0,0,0)
(0,0,0)
(0,0,0)
(0,0,0)
(0,0,0)
(0,0,0)
(0,0,0)
(0,0,0)
(0,0,0)
(0,0,0)
(0,0,0)
(0,0,0)
(0,0,0)
(0,0,0)
(0,0,0)
(0,0,0)
(0,0,0)
(0,0,0)
(0,0,0)
(0,0,0)
(0,0,0)
(0,0,0)
(0,0,0)
(0,0,0)
(0,0,0)
(0,0,0)
(0,0,0)
(0,0,0)
(0,0,0)
(0,0,0)
(0,0,0)
(0,0,0)
(0,0,0)
(0,0,0)
(0,0,0)
(0,0,0)
(0,0,0)
(0,0,0)
(0,0,0)
(0,0,0)
(0,0,0)
(0,0,0)
(0,0,0)
(0,0,0)
(0,0,0)
(0,0,0)
(0,0,0)
(0,0,0)
(0,0,0)
(0,0,0)
(0,0,0)
(0,0,0)
(0,0,0)
(0,0,0)
(0,0,0)
(0,0,0)
(0,0,0)
(0,0,0)
(0,0,0)
(0,0,0)
(0,0,0)
(0,0,0)
(0,0,0)
(0,0,0)
(0,0,0)
(0,0,0)
(0,0,0)
(0,0,0)
(0,0,0)
(0,0,0)
(0,0,0)
(0,0,0)
(0,0,0)
(0,0,0)
(0,0,0)
(0,0,0)
(0,0,0)
(0,0,0)
(0,0,0)
(0,0,0)
(0,0,0)
(0,0,0)
(0,0,0)
(0,0,0)
(0,0,0)
(0,0,0)
(0,0,0)
(0,0,0)
(0,0,0)
(0,0,0)
(0,0,0)
(0,0,0)
(0,0,0)
(0,0,0)
(0,0,0)
(0,0,0)
(0,0,0)
(0,0,0)
(0,0,0)
(0,0,0)
(0,0,0)
(0,0,0)
(0,0,0)
(0,0,0)
(0,0,0)
(0,0,0)
(0,0,0)
(0,0,0)
(0,0,0)
(0,0,0)
(0,0,0)
(0,0,0)
(0,0,0)
(0,0,0)
(0,0,0)
(0,0,0)
(0,0,0)
(0,0,0)
(0,0,0)
(0,0,0)
(0,0,0)
(0,0,0)
(0,0,0)
(0,0,0)
(0,0,0)
(0,0,0)
(0,0,0)
(0,0,0)
(0,0,0)
(0,0,0)
(0,0,0)
(0,0,0)
(0,0,0)
(0,0,0)
(0,0,0)
(0,0,0)
(0,0,0)
(0,0,0)
(0,0,0)
(0,0,0)
(0,0,0)
(0,0,0)
(0,0,0)
(0,0,0)
(0,0,0)
(0,0,0)
(0,0,0)
(0,0,0)
(0,0,0)
(0,0,0)
(0,0,0)
(0,0,0)
(0,0,0)
(0,0,0)
(0,0,0)
(0,0,0)
(0,0,0)
(0,0,0)
(0,0,0)
(0,0,0)
(0,0,0)
(0,0,0)
(0,0,0)
(0,0,0)
(0,0,0)
(0,0,0)
(0,0,0)
(0,0,0)
(0,0,0)
(0,0,0)
(0,0,0)
(0,0,0)
(0,0,0)
(0,0,0)
(0,0,0)
(0,0,0)
(0,0,0)
(0,0,0)
(0,0,0)
(0,0,0)
(0,0,0)
(0,0,0)
(0,0,0)
(0,0,0)
(0,0,0)
(0,0,0)
(0,0,0)
(0,0,0)
(0,0,0)
(0,0,0)
(0,0,0)
(0,0,0)
(0,0,0)
(0,0,0)
(0,0,0)
(0,0,0)
(0,0,0)
(0,0,0)
(0,0,0)
(0,0,0)
(0,0,0)
(0,0,0)
(0,0,0)
(0,0,0)
(0,0,0)
(0,0,0)
(0,0,0)
(0,0,0)
(0,0,0)
(0,0,0)
(0,0,0)
(0,0,0)
(0,0,0)
(0,0,0)
(0,0,0)
(0,0,0)
(0,0,0)
(0,0,0)
(0,0,0)
(0,0,0)
(0,0,0)
(0,0,0)
(0,0,0)
(0,0,0)
(0,0,0)
(0,0,0)
(0,0,0)
(0,0,0)
(0,0,0)
(0,0,0)
(0,0,0)
(0,0,0)
(0,0,0)
(0,0,0)
(0,0,0)
(0,0,0)
(0,0,0)
(0,0,0)
(0,0,0)
(0,0,0)
(0,0,0)
(0,0,0)
(0,0,0)
(0,0,0)
(0,0,0)
(0,0,0)
(0,0,0)
(0,0,0)
(0,0,0)
(0,0,0)
(0,0,0)
(0,0,0)
(0,0,0)
(0,0,0)
(0,0,0)
(0,0,0)
(0,0,0)
(0,0,0)
(0,0,0)
(0,0,0)
(0,0,0)
(0,0,0)
(0,0,0)
(0,0,0)
(0,0,0)
(0,0,0)
(0,0,0)
(0,0,0)
(0,0,0)
(0,0,0)
(0,0,0)
(0,0,0)
(0,0,0)
(0,0,0)
(0,0,0)
(0,0,0)
(0,0,0)
(0,0,0)
(0,0,0)
(0,0,0)
(0,0,0)
(0,0,0)
(0,0,0)
(0,0,0)
(0,0,0)
(0,0,0)
(0,0,0)
(0,0,0)
(0,0,0)
(0,0,0)
(0,0,0)
(0,0,0)
(0,0,0)
(0,0,0)
(0,0,0)
(0,0,0)
(0,0,0)
(0,0,0)
(0,0,0)
(0,0,0)
(0,0,0)
(0,0,0)
(0,0,0)
(0,0,0)
(0,0,0)
(0,0,0)
(0,0,0)
(0,0,0)
(0,0,0)
(0,0,0)
(0,0,0)
(0,0,0)
(0,0,0)
(0,0,0)
(0,0,0)
(0,0,0)
(0,0,0)
(0,0,0)
(0,0,0)
(0,0,0)
(0,0,0)
(0,0,0)
(0,0,0)
(0,0,0)
(0,0,0)
(0,0,0)
(0,0,0)
(0,0,0)
(0,0,0)
(0,0,0)
(0,0,0)
(0,0,0)
(0,0,0)
(0,0,0)
(0,0,0)
(0,0,0)
(0,0,0)
(0,0,0)
(0,0,0)
(0,0,0)
(0,0,0)
(0,0,0)
(0,0,0)
(0,0,0)
(0,0,0)
(0,0,0)
(9.77747967148447e-13,4.85771821254402e-12,-6.21823897404638e-12)
(1.96090268318045e-12,9.5207816282321e-12,-5.85665854402268e-12)
(3.07527468537474e-12,1.50596652468722e-11,-5.25072736325091e-12)
(4.84502293995904e-12,2.27622424397674e-11,-4.50564895086096e-12)
(5.1414159453594e-12,3.48627017526934e-11,-3.47036258570482e-12)
(5.23786822346998e-12,5.51793008033282e-11,-2.65858352973556e-12)
(5.37471542266643e-12,8.83897792624893e-11,-1.86265895403626e-12)
(4.99417201202321e-12,1.42673781059912e-10,-9.35488420205109e-13)
(5.74501612859801e-12,2.33385251546864e-10,-5.46250445282079e-13)
(6.28568144338965e-12,3.60273218670953e-10,-1.79347498980162e-13)
(0,0,0)
(0,0,0)
(0,0,0)
(0,0,0)
(0,0,0)
(0,0,0)
(2.5357049905517e-12,4.49524491987935e-12,-1.21741388717919e-11)
(3.76396964522526e-12,9.01480182374836e-12,-1.14632410397459e-11)
(5.5123496871479e-12,1.45744031610875e-11,-1.03148757016663e-11)
(8.62560536133551e-12,2.2084225720943e-11,-8.86383676300503e-12)
(9.64673294386145e-12,3.4255943462484e-11,-6.99593837488236e-12)
(1.03894632294468e-11,5.45461221391624e-11,-5.14227011323033e-12)
(1.08432329099185e-11,8.75297258188359e-11,-3.25083459598033e-12)
(1.03651250266031e-11,1.42291052541501e-10,-1.85326908766032e-12)
(1.07406436126944e-11,2.33846064888521e-10,-9.93927878406991e-13)
(1.07898371362813e-11,3.61386121235045e-10,-8.7565841327266e-14)
(0,0,0)
(0,0,0)
(0,0,0)
(0,0,0)
(0,0,0)
(0,0,0)
(2.79395225742535e-12,4.27287885607497e-12,-1.90178543509972e-11)
(5.38241721403652e-12,8.16105652661896e-12,-1.80570969828515e-11)
(8.19463150870315e-12,1.33022293321223e-11,-1.66073722012704e-11)
(1.17005928668534e-11,2.07869853085854e-11,-1.47581451887941e-11)
(1.38255083337797e-11,3.28116346650631e-11,-1.23144307077963e-11)
(1.50857901963276e-11,5.3100394888074e-11,-9.34462687936771e-12)
(1.56616441112995e-11,8.66188952918133e-11,-6.22783021557085e-12)
(1.47427247922971e-11,1.42163655871714e-10,-4.19330879504388e-12)
(1.44250270804486e-11,2.34092801783972e-10,-2.70411018933895e-12)
(1.51274115645762e-11,3.62435792638368e-10,-1.18346800968054e-12)
(0,0,0)
(0,0,0)
(0,0,0)
(0,0,0)
(0,0,0)
(0,0,0)
(4.20835545467645e-12,3.54629091994681e-12,-2.91010545380607e-11)
(8.00469756539129e-12,6.68329520085864e-12,-2.77005111812606e-11)
(1.07030564719574e-11,1.13149221987948e-11,-2.56093717964394e-11)
(1.37561797074649e-11,1.87797583245045e-11,-2.32675429846279e-11)
(1.71214529756344e-11,3.03165365886527e-11,-2.06546903239043e-11)
(1.89928723593554e-11,5.04549581092214e-11,-1.73965304273388e-11)
(1.88780853643045e-11,8.49492386500259e-11,-1.35936205806813e-11)
(1.73574449657873e-11,1.41594987388568e-10,-1.04161317443114e-11)
(1.67866854686354e-11,2.33570326788122e-10,-7.15659155052662e-12)
(1.75772167684482e-11,3.62214501455564e-10,-3.87676550810125e-12)
(0,0,0)
(0,0,0)
(0,0,0)
(0,0,0)
(0,0,0)
(0,0,0)
(5.14552806774229e-12,2.56968962170671e-12,-4.18274336415015e-11)
(9.73769390657806e-12,4.91756375929681e-12,-4.06847508470674e-11)
(1.17054613123915e-11,8.76569273010114e-12,-3.89335806781428e-11)
(1.4223466087863e-11,1.57782933094529e-11,-3.70521253067223e-11)
(1.78949753945652e-11,2.67324872508921e-11,-3.47308520604473e-11)
(2.01863700730836e-11,4.64629760862828e-11,-3.17283545874916e-11)
(2.01645737632405e-11,8.16077575514398e-11,-2.76084736946232e-11)
(1.88178395197668e-11,1.39517221326847e-10,-2.16572106176518e-11)
(1.7835418834353e-11,2.31562123471577e-10,-1.50320613729884e-11)
(1.81487611175408e-11,3.59539638424251e-10,-8.1081236719503e-12)
(0,0,0)
(0,0,0)
(0,0,0)
(0,0,0)
(0,0,0)
(0,0,0)
(5.21380195452788e-12,1.9425304538569e-12,-6.12847667398871e-11)
(1.0254245198892e-11,3.79914721611949e-12,-6.0722787632369e-11)
(1.2936121418763e-11,6.42600185692916e-12,-5.95161752639531e-11)
(1.60994031293024e-11,1.22935334865779e-11,-5.80804346413569e-11)
(1.83505845335601e-11,2.2644539247567e-11,-5.59240411607055e-11)
(2.01278266930332e-11,4.17329802093739e-11,-5.29837311011695e-11)
(2.08157761140737e-11,7.70609298860027e-11,-4.78164643666882e-11)
(1.93246240901915e-11,1.34885338935279e-10,-3.91778877688468e-11)
(1.83391838826644e-11,2.26091434807613e-10,-2.78287232128979e-11)
(1.8738702596937e-11,3.52769008717577e-10,-1.46411430984247e-11)
(0,0,0)
(0,0,0)
(0,0,0)
(0,0,0)
(0,0,0)
(0,0,0)
(5.8813494269703e-12,1.32266524731993e-12,-9.38463759098347e-11)
(1.11044558998428e-11,2.80125271961602e-12,-9.36698266365636e-11)
(1.37040288458388e-11,4.48087216992057e-12,-9.28184124336138e-11)
(1.70431596626039e-11,9.29476802831728e-12,-9.18353151312229e-11)
(1.78103060547794e-11,1.88443774051863e-11,-8.97182453918836e-11)
(1.80829620893788e-11,3.63651238244327e-11,-8.62379603022616e-11)
(1.82935369886812e-11,7.059372383818e-11,-7.90896535700468e-11)
(1.74030054822581e-11,1.2610967579208e-10,-6.74212519419102e-11)
(1.71038714503592e-11,2.14741355637601e-10,-4.97863613721125e-11)
(1.7501732469283e-11,3.39630703714299e-10,-2.70323646059358e-11)
(0,0,0)
(0,0,0)
(0,0,0)
(0,0,0)
(0,0,0)
(0,0,0)
(6.1670456912887e-12,6.74792470409905e-13,-1.47433563596764e-10)
(1.16552179608003e-11,1.90368375946583e-12,-1.4749559864941e-10)
(1.36880246737125e-11,3.16776421543036e-12,-1.4648847420913e-10)
(1.56709561300943e-11,6.93997953325456e-12,-1.45564277686737e-10)
(1.57385761264814e-11,1.54933257106649e-11,-1.43649874973748e-10)
(1.52995811433078e-11,3.07441896532273e-11,-1.39403272709426e-10)
(1.45514425235533e-11,6.07000002969278e-11,-1.307742390123e-10)
(1.35656039841184e-11,1.10463249916848e-10,-1.14276489988349e-10)
(1.25239123264041e-11,1.93446740947214e-10,-8.73893720914602e-11)
(1.25309957116355e-11,3.13513336294505e-10,-4.92500915584323e-11)
(0,0,0)
(0,0,0)
(0,0,0)
(0,0,0)
(0,0,0)
(0,0,0)
(6.19806252514203e-12,1.74985079287405e-13,-2.3623865191302e-10)
(1.1162224320772e-11,1.08241116952953e-12,-2.36384433634429e-10)
(1.29150890173553e-11,2.23057281658434e-12,-2.35531747959149e-10)
(1.43555267978719e-11,4.86795893383647e-12,-2.34305623139468e-10)
(1.36937652216293e-11,1.13936643116651e-11,-2.31655555507441e-10)
(1.19859211940337e-11,2.3023993658379e-11,-2.26195490096781e-10)
(9.48589805957503e-12,4.54205855244331e-11,-2.15295447619996e-10)
(8.31260931874734e-12,8.48870886750658e-11,-1.94001691908356e-10)
(7.82849640578368e-12,1.55859686450876e-10,-1.56538254832072e-10)
(8.57201583387675e-12,2.64482462174818e-10,-9.42018039193848e-11)
(0,0,0)
(0,0,0)
(0,0,0)
(0,0,0)
(0,0,0)
(0,0,0)
(5.2446903871002e-12,5.29580749163036e-13,-3.63085983207693e-10)
(9.66688410390555e-12,8.60284891405473e-13,-3.62453854289962e-10)
(1.23024089805449e-11,1.23046503895355e-12,-3.61544040955606e-10)
(1.42374113486881e-11,2.52333349327839e-12,-3.60286217066939e-10)
(1.24588410270412e-11,6.31114230123103e-12,-3.57313940658778e-10)
(9.42437995901449e-12,1.27768803176539e-11,-3.50962134033184e-10)
(6.43913896974666e-12,2.4785809508482e-11,-3.37926739611437e-10)
(4.74128217273518e-12,4.80061825799203e-11,-3.12674733887699e-10)
(4.0382503095402e-12,9.38339832677103e-11,-2.64627181969668e-10)
(4.64063038865464e-12,1.71282375672871e-10,-1.71336720740344e-10)
(0,0,0)
(0,0,0)
(0,0,0)
(0,0,0)
(0,0,0)
(0,0,0)
(0,0,0)
(0,0,0)
(0,0,0)
(0,0,0)
(0,0,0)
(0,0,0)
(0,0,0)
(0,0,0)
(0,0,0)
(0,0,0)
(0,0,0)
(0,0,0)
(0,0,0)
(0,0,0)
(0,0,0)
(0,0,0)
(0,0,0)
(0,0,0)
(0,0,0)
(0,0,0)
(0,0,0)
(0,0,0)
(0,0,0)
(0,0,0)
(0,0,0)
(0,0,0)
(0,0,0)
(0,0,0)
(0,0,0)
(0,0,0)
(0,0,0)
(0,0,0)
(0,0,0)
(0,0,0)
(0,0,0)
(0,0,0)
(0,0,0)
(0,0,0)
(0,0,0)
(0,0,0)
(0,0,0)
(0,0,0)
(0,0,0)
(0,0,0)
(0,0,0)
(0,0,0)
(0,0,0)
(0,0,0)
(0,0,0)
(0,0,0)
(0,0,0)
(0,0,0)
(0,0,0)
(0,0,0)
(0,0,0)
(0,0,0)
(0,0,0)
(0,0,0)
(0,0,0)
(0,0,0)
(0,0,0)
(0,0,0)
(0,0,0)
(0,0,0)
(0,0,0)
(0,0,0)
(0,0,0)
(0,0,0)
(0,0,0)
(0,0,0)
(0,0,0)
(0,0,0)
(0,0,0)
(0,0,0)
(0,0,0)
(0,0,0)
(0,0,0)
(0,0,0)
(0,0,0)
(0,0,0)
(0,0,0)
(0,0,0)
(0,0,0)
(0,0,0)
(0,0,0)
(0,0,0)
(0,0,0)
(0,0,0)
(0,0,0)
(0,0,0)
(0,0,0)
(0,0,0)
(0,0,0)
(0,0,0)
(0,0,0)
(0,0,0)
(9.78640829785775e-13,9.72769309986489e-12,-1.1662753636598e-11)
(1.86095130689104e-12,1.90802062991846e-11,-1.06132846494998e-11)
(2.8154583587475e-12,2.91538706749738e-11,-9.06109544970676e-12)
(4.48775329362516e-12,4.24573073044343e-11,-7.26079383275141e-12)
(4.93639517955345e-12,6.37222774098291e-11,-5.405140551347e-12)
(5.07512231196157e-12,9.8203483847272e-11,-3.80154802514901e-12)
(5.30759833255439e-12,1.5428314883354e-10,-2.01930576869589e-12)
(4.98766255534401e-12,2.48631583505934e-10,-6.2447162922919e-13)
(4.91729984029457e-12,4.30863706857985e-10,-9.6016594822424e-14)
(4.99343137987474e-12,8.49336842443299e-10,9.65316708453581e-14)
(0,0,0)
(0,0,0)
(0,0,0)
(0,0,0)
(0,0,0)
(0,0,0)
(2.04717322231118e-12,8.83669285105242e-12,-2.27010594370575e-11)
(3.46934960427853e-12,1.77765027657691e-11,-2.12139412098752e-11)
(5.33348457746039e-12,2.78400819989261e-11,-1.85363701979753e-11)
(8.05494738556252e-12,4.13283988136188e-11,-1.52958324208503e-11)
(9.23737347962731e-12,6.26849407213238e-11,-1.18575863533245e-11)
(9.94375496325899e-12,9.69589568816257e-11,-8.10550455574237e-12)
(1.03564979285316e-11,1.53437329748813e-10,-4.14282553979954e-12)
(9.63318048735665e-12,2.4888461336451e-10,-1.75173228475686e-12)
(9.58754468056924e-12,4.31926381996041e-10,-8.70788518814361e-13)
(9.65259989186205e-12,8.50747733928607e-10,-2.58229791984462e-14)
(0,0,0)
(0,0,0)
(0,0,0)
(0,0,0)
(0,0,0)
(0,0,0)
(2.55978282540864e-12,7.80630602441288e-12,-3.46021659153324e-11)
(5.41045375822092e-12,1.55613639509811e-11,-3.30142226495001e-11)
(8.33271162957052e-12,2.5061216812388e-11,-3.02256649530485e-11)
(1.12641053699419e-11,3.85978178968525e-11,-2.63268725678204e-11)
(1.33508025817099e-11,5.94193138349577e-11,-2.14451368504125e-11)
(1.46144303113798e-11,9.36736727469669e-11,-1.52829385618637e-11)
(1.52967793325916e-11,1.52035573249704e-10,-8.64992867627615e-12)
(1.38221946695915e-11,2.4974339501025e-10,-5.25829983242712e-12)
(1.34268598964107e-11,4.330761831511e-10,-3.98428159586052e-12)
(1.41652347375167e-11,8.52412373554268e-10,-2.24408622201565e-12)
(0,0,0)
(0,0,0)
(0,0,0)
(0,0,0)
(0,0,0)
(0,0,0)
(3.7844133961157e-12,6.20652030805806e-12,-5.19611275581565e-11)
(7.67928962212873e-12,1.25360678852634e-11,-5.03372135513852e-11)
(1.09104571288319e-11,2.09131271223912e-11,-4.73204882939617e-11)
(1.41447920617975e-11,3.37918916309559e-11,-4.2885248854516e-11)
(1.74473424168228e-11,5.33766705270879e-11,-3.70917491132954e-11)
(1.91819445356503e-11,8.74343811240912e-11,-2.94684343525552e-11)
(1.90420776265031e-11,1.49038495960504e-10,-2.08291929848206e-11)
(1.6175670833796e-11,2.50439493537284e-10,-1.55004804731071e-11)
(1.55150627431994e-11,4.33864212441138e-10,-1.16315866429907e-11)
(1.63753142924945e-11,8.53053683037614e-10,-6.68176025779434e-12)
(0,0,0)
(0,0,0)
(0,0,0)
(0,0,0)
(0,0,0)
(0,0,0)
(4.63000444115799e-12,4.7211356273462e-12,-7.52119972984199e-11)
(9.10494028082852e-12,9.45402967679449e-12,-7.39193456460098e-11)
(1.21636968141424e-11,1.60917246999394e-11,-7.16014797478109e-11)
(1.53869526644593e-11,2.73563893928656e-11,-6.79037241467307e-11)
(1.89804259249448e-11,4.5036728233682e-11,-6.27662985631952e-11)
(2.07964850571187e-11,7.75886086692533e-11,-5.64361037739518e-11)
(1.87601383517107e-11,1.41425441095323e-10,-5.01106517894013e-11)
(1.68245726668747e-11,2.48605701386609e-10,-3.77459063805339e-11)
(1.63821697972335e-11,4.31904922460829e-10,-2.63831885760951e-11)
(1.68112671518471e-11,8.50029904838648e-10,-1.43263870573785e-11)
(0,0,0)
(0,0,0)
(0,0,0)
(0,0,0)
(0,0,0)
(0,0,0)
(5.27168805354715e-12,3.45600107467495e-12,-1.09830996679493e-10)
(1.00455273269785e-11,6.85808789403377e-12,-1.08649284214111e-10)
(1.34455104831715e-11,1.1218772447285e-11,-1.06719797957812e-10)
(1.69417751069215e-11,2.01072640215857e-11,-1.03849112730033e-10)
(1.92104363164174e-11,3.57740983749552e-11,-9.97189251770389e-11)
(2.03284163434589e-11,6.71831957117705e-11,-9.45071715802885e-11)
(1.86444055640972e-11,1.3420011040747e-10,-8.69187826901674e-11)
(1.67511226774715e-11,2.41203487887866e-10,-7.06721202599205e-11)
(1.65016829380813e-11,4.2286090519911e-10,-5.0026119654402e-11)
(1.72358645019051e-11,8.3913705121866e-10,-2.64011727759643e-11)
(0,0,0)
(0,0,0)
(0,0,0)
(0,0,0)
(0,0,0)
(0,0,0)
(6.3526729306084e-12,2.09620288507027e-12,-1.65660166438097e-10)
(1.11506106570443e-11,4.52398769032352e-12,-1.64437457146361e-10)
(1.40340394979387e-11,7.09974201567055e-12,-1.62672125774053e-10)
(1.72808784183208e-11,1.39530495688175e-11,-1.60844836926851e-10)
(1.76810726596994e-11,2.75627923300939e-11,-1.5790049972933e-10)
(1.65555895283929e-11,5.58619959613198e-11,-1.53324998705747e-10)
(1.65188589018534e-11,1.22875314029748e-10,-1.40310972076319e-10)
(1.54145407875135e-11,2.2529510648485e-10,-1.21649425661535e-10)
(1.56444893742675e-11,4.02544231614906e-10,-8.90890576155608e-11)
(1.65867352837049e-11,8.15999957830764e-10,-4.80578501544321e-11)
(0,0,0)
(0,0,0)
(0,0,0)
(0,0,0)
(0,0,0)
(0,0,0)
(6.72888813505714e-12,8.53304626919584e-13,-2.57884431763646e-10)
(1.14693661104568e-11,2.79009489110279e-12,-2.57177760312854e-10)
(1.37010195501688e-11,4.64915652433219e-12,-2.55568869682017e-10)
(1.5828574016524e-11,1.0182358900257e-11,-2.54305387247717e-10)
(1.55916352611339e-11,2.33039578225991e-11,-2.52088006182374e-10)
(1.43907434410561e-11,4.97829821265895e-11,-2.46600671188175e-10)
(1.33331082721265e-11,1.06824282738723e-10,-2.3278159615404e-10)
(1.22546473288294e-11,1.95883712579132e-10,-2.03386512959097e-10)
(1.19716862898937e-11,3.64143681070109e-10,-1.55356085459788e-10)
(1.23117782722952e-11,7.70199798999961e-10,-8.77663855048442e-11)
(0,0,0)
(0,0,0)
(0,0,0)
(0,0,0)
(0,0,0)
(0,0,0)
(5.98924857667577e-12,3.29715941441384e-13,-4.36078912372649e-10)
(1.0531664923616e-11,1.75075556986762e-12,-4.36044773380598e-10)
(1.26890719753076e-11,3.20468294122361e-12,-4.34742933205301e-10)
(1.40500846064066e-11,7.32321788846945e-12,-4.33169226817817e-10)
(1.33162218214168e-11,1.77343356214469e-11,-4.29745971985042e-10)
(1.13329920579534e-11,3.83765263695247e-11,-4.21402822312025e-10)
(8.82691836388838e-12,7.9453295210437e-11,-4.03092485631133e-10)
(7.73007833760292e-12,1.50046014038156e-10,-3.6549588126378e-10)
(7.51774867624092e-12,2.97958432694762e-10,-2.99208261529446e-10)
(7.57029841657198e-12,6.8293703702673e-10,-1.8648592883065e-10)
(0,0,0)
(0,0,0)
(0,0,0)
(0,0,0)
(0,0,0)
(0,0,0)
(5.14214221853292e-12,6.03157243235744e-13,-8.53884618113004e-10)
(9.61735566095487e-12,1.15843889714743e-12,-8.53184480498493e-10)
(1.22750501308298e-11,1.720902797776e-12,-8.51797960718933e-10)
(1.37884684338056e-11,3.88764185608682e-12,-8.49818937401047e-10)
(1.24181767026699e-11,9.78782714832896e-12,-8.45047706912965e-10)
(9.16586585491098e-12,2.11438021821033e-11,-8.34269384017866e-10)
(5.97294275447511e-12,4.29173028436251e-11,-8.12143170061791e-10)
(4.69991283467249e-12,8.50366860413828e-11,-7.68470485377449e-10)
(4.58177234792719e-12,1.85970797238371e-10,-6.82626878458193e-10)
(4.58628532127612e-12,4.96632593555493e-10,-4.96398534936534e-10)
(0,0,0)
(0,0,0)
(0,0,0)
(0,0,0)
(0,0,0)
(0,0,0)
(0,0,0)
(0,0,0)
(0,0,0)
(0,0,0)
(0,0,0)
(0,0,0)
(0,0,0)
(0,0,0)
(0,0,0)
(0,0,0)
(0,0,0)
(0,0,0)
(0,0,0)
(0,0,0)
(0,0,0)
(0,0,0)
(0,0,0)
(0,0,0)
(0,0,0)
(0,0,0)
(0,0,0)
(0,0,0)
(0,0,0)
(0,0,0)
(0,0,0)
(0,0,0)
(0,0,0)
(0,0,0)
(0,0,0)
(0,0,0)
(0,0,0)
(0,0,0)
(0,0,0)
(0,0,0)
(0,0,0)
(0,0,0)
(0,0,0)
(0,0,0)
(0,0,0)
(0,0,0)
(0,0,0)
(0,0,0)
(0,0,0)
(0,0,0)
(0,0,0)
(0,0,0)
(0,0,0)
(0,0,0)
(0,0,0)
(0,0,0)
(0,0,0)
(0,0,0)
(0,0,0)
(0,0,0)
(0,0,0)
(0,0,0)
(0,0,0)
(0,0,0)
(0,0,0)
(0,0,0)
(0,0,0)
(0,0,0)
(0,0,0)
(0,0,0)
(0,0,0)
(0,0,0)
(0,0,0)
(0,0,0)
(0,0,0)
(0,0,0)
(0,0,0)
(0,0,0)
(0,0,0)
(0,0,0)
(0,0,0)
(0,0,0)
(0,0,0)
(0,0,0)
(0,0,0)
(0,0,0)
(0,0,0)
(0,0,0)
(0,0,0)
(0,0,0)
(0,0,0)
(0,0,0)
(0,0,0)
(0,0,0)
(0,0,0)
(0,0,0)
(0,0,0)
(0,0,0)
(0,0,0)
(0,0,0)
(0,0,0)
(0,0,0)
(8.20172091485706e-13,1.28579768597867e-11,-1.54805861195204e-11)
(1.61246564022346e-12,2.54103293764643e-11,-1.40171845472191e-11)
(2.32894541843461e-12,3.83366698468671e-11,-1.15727540887438e-11)
(3.7610085032868e-12,5.49698267140869e-11,-8.65857901416784e-12)
(4.37013934159924e-12,8.11483018126809e-11,-5.79370973812387e-12)
(4.53740702130553e-12,1.21624899242967e-10,-2.8644742773324e-12)
(4.7585832772948e-12,1.81490860344815e-10,2.9896685636528e-13)
(4.20617766240422e-12,2.68598233617861e-10,1.8685811676407e-12)
(3.66207643667541e-12,3.9400845791784e-10,1.84854940735349e-12)
(3.67907156522371e-12,5.47377481800417e-10,1.02906307759842e-12)
(0,0,0)
(0,0,0)
(0,0,0)
(0,0,0)
(0,0,0)
(0,0,0)
(1.59044182142017e-12,1.1653481969377e-11,-2.93954849609573e-11)
(3.00691740646017e-12,2.34527512846621e-11,-2.73620643412741e-11)
(4.87181198587091e-12,3.59233727226482e-11,-2.34195452793096e-11)
(7.34728223578011e-12,5.27868460519907e-11,-1.86625605472954e-11)
(8.75091856829425e-12,7.89745369873673e-11,-1.32912377294626e-11)
(9.26636008207678e-12,1.19366518199428e-10,-6.33541578025115e-12)
(9.36716117153456e-12,1.81138028200621e-10,9.58428216665503e-13)
(7.89345507691385e-12,2.69762863468065e-10,3.46412374118016e-12)
(7.59277798583131e-12,3.95415439414182e-10,2.59520348405051e-12)
(7.96213728725495e-12,5.48494463638582e-10,1.24915744190397e-12)
(0,0,0)
(0,0,0)
(0,0,0)
(0,0,0)
(0,0,0)
(0,0,0)
(2.57162527399453e-12,9.8486997804158e-12,-4.47165695738191e-11)
(5.64719212856296e-12,1.98279042594618e-11,-4.24583249667425e-11)
(8.58200893493472e-12,3.15097232612062e-11,-3.83656106630049e-11)
(1.11882959177893e-11,4.80657320778712e-11,-3.25074283479495e-11)
(1.32312476009754e-11,7.29252343611109e-11,-2.4305055022148e-11)
(1.42207120486317e-11,1.13535963541457e-10,-1.2277200149013e-11)
(1.49022277788869e-11,1.80609124516149e-10,1.50356933175247e-12)
(1.18520779049672e-11,2.73248679645588e-10,3.55372515959303e-12)
(1.08986352335187e-11,3.98774201023868e-10,1.10724808105606e-12)
(1.12798390314303e-11,5.51181724202012e-10,-3.04559761603944e-13)
(0,0,0)
(0,0,0)
(0,0,0)
(0,0,0)
(0,0,0)
(0,0,0)
(3.6458840693596e-12,7.88266035504089e-12,-6.63540856957802e-11)
(7.74460257434465e-12,1.58973923655942e-11,-6.44376968490486e-11)
(1.12966201111938e-11,2.5860397311765e-11,-6.05904802845448e-11)
(1.4786794557997e-11,4.03483236193334e-11,-5.40579546017224e-11)
(1.81639699502031e-11,6.20025882151289e-11,-4.3738712709059e-11)
(2.03884756221623e-11,1.01359436317552e-10,-2.75089389509992e-11)
(2.13264199802339e-11,1.78835062544851e-10,-5.67717586879292e-12)
(1.41405691547218e-11,2.79882370445965e-10,-4.7799602838361e-12)
(1.25245263386736e-11,4.04093933243083e-10,-6.86722554595e-12)
(1.27173322330406e-11,5.54421921860706e-10,-5.02462393096309e-12)
(0,0,0)
(0,0,0)
(0,0,0)
(0,0,0)
(0,0,0)
(0,0,0)
(4.60248734098554e-12,6.26375658932603e-12,-9.66332987737083e-11)
(9.38301616638968e-12,1.21061256788411e-11,-9.4932380380727e-11)
(1.33388934644669e-11,1.92798035402009e-11,-9.1677635545274e-11)
(1.74986524524286e-11,2.99760067151754e-11,-8.59476355930165e-11)
(2.19128609953992e-11,4.60346486033236e-11,-7.71604128733055e-11)
(2.48764460290839e-11,7.73220223530554e-11,-6.62609585250414e-11)
(1.36207236297795e-11,1.57770605241474e-10,-6.78850530488465e-11)
(1.28640683611824e-11,2.86490996687018e-10,-4.10171488045834e-11)
(1.33693855418348e-11,4.06850591429877e-10,-2.82694023720918e-11)
(1.33777337139991e-11,5.53683843148413e-10,-1.52578419701802e-11)
(0,0,0)
(0,0,0)
(0,0,0)
(0,0,0)
(0,0,0)
(0,0,0)
(5.44977377834195e-12,4.41438451180883e-12,-1.38365954681491e-10)
(1.04501412740699e-11,8.27333912480493e-12,-1.36541639123582e-10)
(1.46938556868089e-11,1.23872674641329e-11,-1.33642191036329e-10)
(1.89658020079691e-11,1.90363869688862e-11,-1.29441881637184e-10)
(2.22099887634641e-11,3.01301591814752e-11,-1.23414189316395e-10)
(2.4061227203947e-11,5.85385125591735e-11,-1.1625108764169e-10)
(1.37225395119604e-11,1.57709299703917e-10,-1.16449468643256e-10)
(1.20135034742669e-11,2.81380482369293e-10,-8.85569068752749e-11)
(1.31934096445617e-11,3.98190639607765e-10,-6.08533184067372e-11)
(1.3971785112924e-11,5.42077238618294e-10,-3.1305480431387e-11)
(0,0,0)
(0,0,0)
(0,0,0)
(0,0,0)
(0,0,0)
(0,0,0)
(6.37286189764337e-12,2.27704909322001e-12,-1.97627171446628e-10)
(1.11191720833839e-11,4.87810165422061e-12,-1.95861285244269e-10)
(1.46573361421412e-11,6.80497509101482e-12,-1.93667594344158e-10)
(1.81072318894048e-11,1.00500809448105e-11,-1.91881436168684e-10)
(1.73644061438782e-11,1.55357890086514e-11,-1.90746764268651e-10)
(9.62057673348109e-12,3.23642197152482e-11,-1.92306106068354e-10)
(1.39083437782779e-11,1.45809112305314e-10,-1.6713107570314e-10)
(1.22655666467219e-11,2.63395437446663e-10,-1.58365781738508e-10)
(1.30138324583727e-11,3.73634140464568e-10,-1.09306274439375e-10)
(1.4329043960624e-11,5.14298436419678e-10,-5.62979698313559e-11)
(0,0,0)
(0,0,0)
(0,0,0)
(0,0,0)
(0,0,0)
(0,0,0)
(6.54580537003514e-12,7.16463615509601e-13,-2.8127322335123e-10)
(1.08998148009633e-11,2.76980766244708e-12,-2.80140073012693e-10)
(1.38820106982061e-11,4.21114432409643e-12,-2.78847846946504e-10)
(1.64703339641862e-11,7.06713961356778e-12,-2.78135295518265e-10)
(1.56739224673183e-11,1.65282616338321e-11,-2.77964428908979e-10)
(1.1978124164288e-11,4.5121547661639e-11,-2.78698693277884e-10)
(1.13090126055271e-11,1.33729274308304e-10,-2.71487808966297e-10)
(1.00619183693238e-11,2.18811951483983e-10,-2.29970839647208e-10)
(1.05672347106491e-11,3.24423641331523e-10,-1.66836902024822e-10)
(1.1808154741286e-11,4.61202487894357e-10,-8.96286821028093e-11)
(0,0,0)
(0,0,0)
(0,0,0)
(0,0,0)
(0,0,0)
(0,0,0)
(5.68166828272271e-12,1.1960685082608e-13,-4.01165598407137e-10)
(9.8221414208486e-12,1.8181751975851e-12,-4.00934833335455e-10)
(1.25991457319183e-11,3.18523790595798e-12,-3.99931549002865e-10)
(1.40624058060948e-11,6.10337741226527e-12,-3.98480662155757e-10)
(1.29195806219002e-11,1.58105371436175e-11,-3.95770112142481e-10)
(1.02553795641484e-11,4.06216731378466e-11,-3.89839151226921e-10)
(7.76630636319515e-12,9.42993792597167e-11,-3.72738210463601e-10)
(6.45178659901925e-12,1.58673877817758e-10,-3.26754952891127e-10)
(6.7830514346324e-12,2.49826994218886e-10,-2.51928881108147e-10)
(7.38881305700381e-12,3.73599033555179e-10,-1.43975211005342e-10)
(0,0,0)
(0,0,0)
(0,0,0)
(0,0,0)
(0,0,0)
(0,0,0)
(5.04516184666993e-12,2.15084328794798e-13,-5.50754075911824e-10)
(9.38927477817747e-12,1.24985998458334e-12,-5.50521836519648e-10)
(1.20169296111605e-11,1.94031794304435e-12,-5.49139396796393e-10)
(1.29048798014664e-11,3.76516896882002e-12,-5.46728184781524e-10)
(1.14276809562946e-11,9.74105269645485e-12,-5.4167790701701e-10)
(8.1834540803747e-12,2.35003960584031e-11,-5.3132464173581e-10)
(5.21756091415029e-12,4.92661869310023e-11,-5.08390532766406e-10)
(3.89299195564304e-12,8.54804015124971e-11,-4.59246234601526e-10)
(4.32422606515304e-12,1.43165827578392e-10,-3.72973153712427e-10)
(4.82034394088672e-12,2.30114613946239e-10,-2.29306288835348e-10)