/*--------------------------------*- C++ -*----------------------------------*\
| =========                 |                                                 |
| \\      /  F ield         | foam-extend: Open Source Cstd::filesystem::create_directory();FD                    |
|  \\    /   O peration     | Version:     4.0                                |
|   \\  /    A nd           | Web:         http://www.foam-extend.org         |
|    \\/     M anipulation  |                                                 |
\*---------------------------------------------------------------------------*/
FoamFile
{
    version 2.0;
    format ascii;
    class volVectorField;
    location "Data/480";
    object      H;
}
// * * * * * * * * * * * * * * * * * * * * * * * * * * * * * * * * * * * * * //

dimensions      [0 1 -1 0 0 0 0];

internalField   nonuniform List<vector>
4096
(
(0,0,0)
(0,0,0)
(0,0,0)
(0,0,0)
(0,0,0)
(0,0,0)
(0,0,0)
(0,0,0)
(0,0,0)
(0,0,0)
(0,0,0)
(0,0,0)
(0,0,0)
(0,0,0)
(0,0,0)
(0,0,0)
(0,0,0)
(0,0,0)
(0,0,0)
(0,0,0)
(0,0,0)
(0,0,0)
(0,0,0)
(0,0,0)
(0,0,0)
(0,0,0)
(0,0,0)
(0,0,0)
(0,0,0)
(0,0,0)
(0,0,0)
(0,0,0)
(0,0,0)
(0,0,0)
(0,0,0)
(0,0,0)
(0,0,0)
(0,0,0)
(0,0,0)
(0,0,0)
(0,0,0)
(0,0,0)
(0,0,0)
(0,0,0)
(0,0,0)
(0,0,0)
(0,0,0)
(0,0,0)
(0,0,0)
(0,0,0)
(0,0,0)
(0,0,0)
(0,0,0)
(0,0,0)
(0,0,0)
(0,0,0)
(0,0,0)
(0,0,0)
(0,0,0)
(0,0,0)
(0,0,0)
(0,0,0)
(0,0,0)
(0,0,0)
(0,0,0)
(0,0,0)
(0,0,0)
(0,0,0)
(0,0,0)
(0,0,0)
(0,0,0)
(0,0,0)
(0,0,0)
(0,0,0)
(0,0,0)
(0,0,0)
(0,0,0)
(0,0,0)
(0,0,0)
(0,0,0)
(0,0,0)
(0,0,0)
(0,0,0)
(0,0,0)
(0,0,0)
(0,0,0)
(0,0,0)
(0,0,0)
(0,0,0)
(0,0,0)
(0,0,0)
(0,0,0)
(0,0,0)
(0,0,0)
(0,0,0)
(0,0,0)
(0,0,0)
(0,0,0)
(0,0,0)
(0,0,0)
(0,0,0)
(0,0,0)
(0,0,0)
(0,0,0)
(0,0,0)
(0,0,0)
(0,0,0)
(0,0,0)
(0,0,0)
(0,0,0)
(0,0,0)
(0,0,0)
(0,0,0)
(0,0,0)
(0,0,0)
(0,0,0)
(0,0,0)
(0,0,0)
(0,0,0)
(0,0,0)
(0,0,0)
(0,0,0)
(0,0,0)
(0,0,0)
(0,0,0)
(0,0,0)
(0,0,0)
(0,0,0)
(0,0,0)
(0,0,0)
(0,0,0)
(0,0,0)
(0,0,0)
(0,0,0)
(0,0,0)
(0,0,0)
(0,0,0)
(0,0,0)
(0,0,0)
(0,0,0)
(0,0,0)
(0,0,0)
(0,0,0)
(0,0,0)
(0,0,0)
(0,0,0)
(0,0,0)
(0,0,0)
(0,0,0)
(0,0,0)
(0,0,0)
(0,0,0)
(0,0,0)
(0,0,0)
(0,0,0)
(0,0,0)
(0,0,0)
(0,0,0)
(0,0,0)
(0,0,0)
(0,0,0)
(0,0,0)
(0,0,0)
(0,0,0)
(0,0,0)
(0,0,0)
(0,0,0)
(0,0,0)
(0,0,0)
(0,0,0)
(0,0,0)
(0,0,0)
(0,0,0)
(0,0,0)
(0,0,0)
(0,0,0)
(0,0,0)
(0,0,0)
(0,0,0)
(0,0,0)
(0,0,0)
(0,0,0)
(0,0,0)
(0,0,0)
(0,0,0)
(0,0,0)
(0,0,0)
(0,0,0)
(0,0,0)
(0,0,0)
(0,0,0)
(0,0,0)
(0,0,0)
(0,0,0)
(0,0,0)
(0,0,0)
(0,0,0)
(0,0,0)
(0,0,0)
(0,0,0)
(0,0,0)
(0,0,0)
(0,0,0)
(0,0,0)
(0,0,0)
(0,0,0)
(0,0,0)
(0,0,0)
(0,0,0)
(0,0,0)
(0,0,0)
(0,0,0)
(0,0,0)
(0,0,0)
(0,0,0)
(0,0,0)
(0,0,0)
(0,0,0)
(0,0,0)
(0,0,0)
(0,0,0)
(0,0,0)
(0,0,0)
(0,0,0)
(0,0,0)
(0,0,0)
(0,0,0)
(0,0,0)
(0,0,0)
(0,0,0)
(0,0,0)
(0,0,0)
(0,0,0)
(0,0,0)
(0,0,0)
(0,0,0)
(0,0,0)
(0,0,0)
(0,0,0)
(0,0,0)
(0,0,0)
(0,0,0)
(0,0,0)
(0,0,0)
(0,0,0)
(0,0,0)
(0,0,0)
(0,0,0)
(0,0,0)
(0,0,0)
(0,0,0)
(0,0,0)
(0,0,0)
(0,0,0)
(0,0,0)
(0,0,0)
(0,0,0)
(0,0,0)
(0,0,0)
(0,0,0)
(0,0,0)
(0,0,0)
(0,0,0)
(0,0,0)
(0,0,0)
(0,0,0)
(0,0,0)
(0,0,0)
(0,0,0)
(0,0,0)
(0,0,0)
(0,0,0)
(0,0,0)
(0,0,0)
(0,0,0)
(0,0,0)
(0,0,0)
(0,0,0)
(0,0,0)
(0,0,0)
(0,0,0)
(0,0,0)
(0,0,0)
(0,0,0)
(0,0,0)
(0,0,0)
(0,0,0)
(0,0,0)
(0,0,0)
(0,0,0)
(0,0,0)
(0,0,0)
(0,0,0)
(0,0,0)
(0,0,0)
(0,0,0)
(0,0,0)
(0,0,0)
(0,0,0)
(0,0,0)
(0,0,0)
(0,0,0)
(0,0,0)
(0,0,0)
(0,0,0)
(0,0,0)
(0,0,0)
(0,0,0)
(0,0,0)
(0,0,0)
(0,0,0)
(0,0,0)
(0,0,0)
(0,0,0)
(0,0,0)
(0,0,0)
(0,0,0)
(0,0,0)
(0,0,0)
(0,0,0)
(0,0,0)
(0,0,0)
(0,0,0)
(0,0,0)
(0,0,0)
(0,0,0)
(0,0,0)
(0,0,0)
(0,0,0)
(0,0,0)
(0,0,0)
(0,0,0)
(0,0,0)
(0,0,0)
(0,0,0)
(0,0,0)
(0,0,0)
(0,0,0)
(0,0,0)
(0,0,0)
(0,0,0)
(0,0,0)
(0,0,0)
(0,0,0)
(0,0,0)
(0,0,0)
(0,0,0)
(0,0,0)
(0,0,0)
(0,0,0)
(0,0,0)
(0,0,0)
(0,0,0)
(0,0,0)
(0,0,0)
(0,0,0)
(0,0,0)
(0,0,0)
(0,0,0)
(0,0,0)
(0,0,0)
(0,0,0)
(0,0,0)
(0,0,0)
(0,0,0)
(0,0,0)
(0,0,0)
(0,0,0)
(0,0,0)
(0,0,0)
(0,0,0)
(0,0,0)
(0,0,0)
(0,0,0)
(0,0,0)
(0,0,0)
(0,0,0)
(0,0,0)
(0,0,0)
(0,0,0)
(0,0,0)
(0,0,0)
(0,0,0)
(0,0,0)
(0,0,0)
(0,0,0)
(0,0,0)
(0,0,0)
(0,0,0)
(0,0,0)
(0,0,0)
(0,0,0)
(0,0,0)
(0,0,0)
(0,0,0)
(0,0,0)
(0,0,0)
(0,0,0)
(0,0,0)
(0,0,0)
(0,0,0)
(0,0,0)
(0,0,0)
(0,0,0)
(0,0,0)
(0,0,0)
(0,0,0)
(0,0,0)
(0,0,0)
(0,0,0)
(0,0,0)
(0,0,0)
(0,0,0)
(0,0,0)
(0,0,0)
(0,0,0)
(0,0,0)
(0,0,0)
(0,0,0)
(0,0,0)
(0,0,0)
(0,0,0)
(0,0,0)
(0,0,0)
(0,0,0)
(0,0,0)
(0,0,0)
(0,0,0)
(0,0,0)
(0,0,0)
(0,0,0)
(0,0,0)
(0,0,0)
(0,0,0)
(0,0,0)
(0,0,0)
(0,0,0)
(0,0,0)
(0,0,0)
(0,0,0)
(0,0,0)
(0,0,0)
(0,0,0)
(0,0,0)
(0,0,0)
(0,0,0)
(0,0,0)
(0,0,0)
(0,0,0)
(0,0,0)
(0,0,0)
(0,0,0)
(0,0,0)
(0,0,0)
(0,0,0)
(0,0,0)
(0,0,0)
(0,0,0)
(0,0,0)
(0,0,0)
(0,0,0)
(0,0,0)
(0,0,0)
(0,0,0)
(0,0,0)
(0,0,0)
(0,0,0)
(0,0,0)
(0,0,0)
(0,0,0)
(0,0,0)
(0,0,0)
(0,0,0)
(0,0,0)
(0,0,0)
(0,0,0)
(0,0,0)
(0,0,0)
(0,0,0)
(0,0,0)
(0,0,0)
(0,0,0)
(0,0,0)
(0,0,0)
(0,0,0)
(0,0,0)
(0,0,0)
(0,0,0)
(0,0,0)
(0,0,0)
(0,0,0)
(0,0,0)
(0,0,0)
(0,0,0)
(0,0,0)
(0,0,0)
(0,0,0)
(0,0,0)
(0,0,0)
(0,0,0)
(0,0,0)
(0,0,0)
(0,0,0)
(0,0,0)
(0,0,0)
(0,0,0)
(0,0,0)
(0,0,0)
(0,0,0)
(0,0,0)
(0,0,0)
(0,0,0)
(0,0,0)
(0,0,0)
(0,0,0)
(0,0,0)
(0,0,0)
(0,0,0)
(0,0,0)
(0,0,0)
(0,0,0)
(0,0,0)
(0,0,0)
(0,0,0)
(0,0,0)
(0,0,0)
(0,0,0)
(0,0,0)
(0,0,0)
(0,0,0)
(0,0,0)
(0,0,0)
(0,0,0)
(0,0,0)
(0,0,0)
(0,0,0)
(0,0,0)
(0,0,0)
(0,0,0)
(0,0,0)
(0,0,0)
(0,0,0)
(0,0,0)
(0,0,0)
(0,0,0)
(0,0,0)
(0,0,0)
(0,0,0)
(0,0,0)
(0,0,0)
(0,0,0)
(0,0,0)
(0,0,0)
(0,0,0)
(0,0,0)
(0,0,0)
(0,0,0)
(0,0,0)
(0,0,0)
(0,0,0)
(0,0,0)
(0,0,0)
(0,0,0)
(0,0,0)
(0,0,0)
(0,0,0)
(0,0,0)
(0,0,0)
(0,0,0)
(0,0,0)
(0,0,0)
(0,0,0)
(0,0,0)
(0,0,0)
(0,0,0)
(0,0,0)
(0,0,0)
(0,0,0)
(0,0,0)
(0,0,0)
(0,0,0)
(0,0,0)
(0,0,0)
(0,0,0)
(0,0,0)
(0,0,0)
(0,0,0)
(0,0,0)
(0,0,0)
(0,0,0)
(0,0,0)
(0,0,0)
(0,0,0)
(0,0,0)
(0,0,0)
(0,0,0)
(0,0,0)
(0,0,0)
(0,0,0)
(0,0,0)
(0,0,0)
(0,0,0)
(0,0,0)
(0,0,0)
(0,0,0)
(0,0,0)
(0,0,0)
(0,0,0)
(0,0,0)
(0,0,0)
(0,0,0)
(0,0,0)
(0,0,0)
(0,0,0)
(0,0,0)
(0,0,0)
(0,0,0)
(0,0,0)
(0,0,0)
(0,0,0)
(0,0,0)
(0,0,0)
(0,0,0)
(0,0,0)
(0,0,0)
(0,0,0)
(0,0,0)
(0,0,0)
(0,0,0)
(0,0,0)
(0,0,0)
(0,0,0)
(0,0,0)
(0,0,0)
(0,0,0)
(0,0,0)
(0,0,0)
(0,0,0)
(0,0,0)
(0,0,0)
(0,0,0)
(0,0,0)
(0,0,0)
(0,0,0)
(0,0,0)
(0,0,0)
(0,0,0)
(0,0,0)
(0,0,0)
(0,0,0)
(0,0,0)
(0,0,0)
(0,0,0)
(0,0,0)
(0,0,0)
(0,0,0)
(0,0,0)
(0,0,0)
(0,0,0)
(0,0,0)
(0,0,0)
(0,0,0)
(0,0,0)
(0,0,0)
(0,0,0)
(0,0,0)
(0,0,0)
(0,0,0)
(0,0,0)
(0,0,0)
(0,0,0)
(0,0,0)
(0,0,0)
(0,0,0)
(0,0,0)
(0,0,0)
(0,0,0)
(0,0,0)
(0,0,0)
(0,0,0)
(0,0,0)
(0,0,0)
(0,0,0)
(0,0,0)
(0,0,0)
(0,0,0)
(0,0,0)
(0,0,0)
(0,0,0)
(0,0,0)
(0,0,0)
(0,0,0)
(0,0,0)
(0,0,0)
(0,0,0)
(0,0,0)
(0,0,0)
(0,0,0)
(0,0,0)
(0,0,0)
(0,0,0)
(0,0,0)
(0,0,0)
(0,0,0)
(0,0,0)
(0,0,0)
(0,0,0)
(0,0,0)
(0,0,0)
(0,0,0)
(0,0,0)
(0,0,0)
(0,0,0)
(0,0,0)
(0,0,0)
(0,0,0)
(0,0,0)
(0,0,0)
(0,0,0)
(0,0,0)
(0,0,0)
(0,0,0)
(0,0,0)
(0,0,0)
(0,0,0)
(0,0,0)
(0,0,0)
(0,0,0)
(0,0,0)
(0,0,0)
(0,0,0)
(0,0,0)
(0,0,0)
(0,0,0)
(0,0,0)
(0,0,0)
(0,0,0)
(0,0,0)
(0,0,0)
(0,0,0)
(0,0,0)
(0,0,0)
(0,0,0)
(0,0,0)
(0,0,0)
(0,0,0)
(0,0,0)
(0,0,0)
(0,0,0)
(0,0,0)
(0,0,0)
(0,0,0)
(0,0,0)
(0,0,0)
(0,0,0)
(0,0,0)
(0,0,0)
(0,0,0)
(0,0,0)
(0,0,0)
(0,0,0)
(0,0,0)
(0,0,0)
(0,0,0)
(0,0,0)
(0,0,0)
(0,0,0)
(0,0,0)
(0,0,0)
(0,0,0)
(0,0,0)
(0,0,0)
(0,0,0)
(0,0,0)
(0,0,0)
(0,0,0)
(0,0,0)
(0,0,0)
(0,0,0)
(0,0,0)
(0,0,0)
(0,0,0)
(0,0,0)
(0,0,0)
(0,0,0)
(0,0,0)
(0,0,0)
(0,0,0)
(0,0,0)
(0,0,0)
(0,0,0)
(0,0,0)
(0,0,0)
(0,0,0)
(0,0,0)
(0,0,0)
(0,0,0)
(0,0,0)
(0,0,0)
(0,0,0)
(0,0,0)
(0,0,0)
(0,0,0)
(0,0,0)
(0,0,0)
(0,0,0)
(0,0,0)
(0,0,0)
(0,0,0)
(0,0,0)
(0,0,0)
(0,0,0)
(0,0,0)
(0,0,0)
(0,0,0)
(0,0,0)
(0,0,0)
(0,0,0)
(0,0,0)
(-1.85131035292067e-13,2.31163384545143e-12,-2.25103245508672e-12)
(-9.62196476858218e-13,4.49605124910549e-12,-1.84820074577291e-12)
(-1.51536303246254e-12,9.11248674412307e-12,-1.76285447278584e-12)
(-6.09458250993553e-13,1.59834515280364e-11,-1.90237559548408e-12)
(2.77044950971294e-13,2.78285959433914e-11,-1.58729203861509e-12)
(6.3814467562625e-13,4.49981316652368e-11,-5.72612351999528e-13)
(1.7819659612185e-12,7.14379999429974e-11,5.22576963406955e-14)
(1.76642351948076e-12,1.15553851579852e-10,2.6332615937248e-13)
(8.12476513429445e-13,1.88569535702482e-10,6.02824555436529e-13)
(5.48383089543559e-13,2.89696348952624e-10,3.98071256033058e-13)
(0,0,0)
(0,0,0)
(0,0,0)
(0,0,0)
(0,0,0)
(0,0,0)
(-1.31573327884938e-12,2.17186603712556e-12,-5.53900796927474e-12)
(-2.58579709424504e-12,4.47636658717845e-12,-5.44971769824137e-12)
(-3.24377569559861e-12,9.03605472488974e-12,-5.54069693513088e-12)
(-2.19538115628595e-12,1.59250863100131e-11,-5.36273461891243e-12)
(-1.09916782633523e-12,2.72708745913522e-11,-4.50116803113445e-12)
(3.86235988605177e-13,4.45272059021472e-11,-2.95317327901803e-12)
(2.42540176398407e-12,7.1370612382557e-11,-1.58117747934719e-12)
(2.38287595562883e-12,1.15405757297529e-10,-6.40324976494455e-13)
(1.05782546739915e-12,1.88587508678504e-10,1.66586806883401e-13)
(4.14474652511202e-13,2.89904588965148e-10,3.5009396984179e-13)
(0,0,0)
(0,0,0)
(0,0,0)
(0,0,0)
(0,0,0)
(0,0,0)
(-2.61068187812958e-12,1.91350471789053e-12,-1.03209700388643e-11)
(-3.45712929987551e-12,3.9965149564336e-12,-1.04822448827088e-11)
(-3.48577710012212e-12,8.22514716512202e-12,-1.05226251873074e-11)
(-2.7188644695287e-12,1.50344702270082e-11,-9.84373126318483e-12)
(-1.69118638521127e-12,2.60237319238324e-11,-8.28625276019273e-12)
(-7.15769569640984e-14,4.34134040582225e-11,-6.29804638146885e-12)
(1.30683655665891e-12,7.0780797099432e-11,-4.2643385001704e-12)
(2.89455947417091e-13,1.15293165201572e-10,-2.61816178962845e-12)
(-1.44078969429228e-12,1.88682547979857e-10,-1.33680195524375e-12)
(-1.90072954792828e-12,2.90375905423193e-10,-3.04461397788964e-13)
(0,0,0)
(0,0,0)
(0,0,0)
(0,0,0)
(0,0,0)
(0,0,0)
(-2.96723437406728e-12,1.49323164075366e-12,-1.76343746471663e-11)
(-3.46534179345527e-12,3.28926875596305e-12,-1.78747355561616e-11)
(-3.23920197348455e-12,6.91358473071711e-12,-1.79262604112361e-11)
(-2.71988919456348e-12,1.33110107193438e-11,-1.72566928676306e-11)
(-2.23929130252594e-12,2.41776546012276e-11,-1.53130680422024e-11)
(-1.55434549844478e-12,4.15891375807725e-11,-1.26698277680977e-11)
(-1.25173650089769e-12,6.94092855835276e-11,-1.01467357596238e-11)
(-2.79628386194779e-12,1.14419371351641e-10,-7.87965578353908e-12)
(-4.66582465781571e-12,1.8770610525653e-10,-5.57960169535858e-12)
(-4.90418635676681e-12,2.89783508552818e-10,-2.94077049241408e-12)
(0,0,0)
(0,0,0)
(0,0,0)
(0,0,0)
(0,0,0)
(0,0,0)
(-2.34041297581235e-12,1.13273930892701e-12,-2.87949751779702e-11)
(-2.35639995969535e-12,2.66777165416212e-12,-2.91828702345153e-11)
(-2.37623557889031e-12,5.77105189876143e-12,-2.92537415976076e-11)
(-2.30527264875357e-12,1.12192936583549e-11,-2.84947244125682e-11)
(-1.70854926265527e-12,2.13985631730014e-11,-2.65924090206158e-11)
(-1.7357557795437e-12,3.87227463796218e-11,-2.39824238038884e-11)
(-2.61330336628802e-12,6.71115072407873e-11,-2.09562114051611e-11)
(-3.87420831486092e-12,1.12302994126608e-10,-1.69955246772201e-11)
(-4.66064036091593e-12,1.84984462563593e-10,-1.24654610277949e-11)
(-4.54520750786254e-12,2.86574362529239e-10,-6.86435862448302e-12)
(0,0,0)
(0,0,0)
(0,0,0)
(0,0,0)
(0,0,0)
(0,0,0)
(-1.0512117028107e-12,1.11592827755446e-12,-4.59408096570887e-11)
(-7.58167575737689e-13,2.24916434739785e-12,-4.59435481277867e-11)
(-4.54419544874701e-13,4.64102266496489e-12,-4.56777730654966e-11)
(-6.42220408067738e-13,9.17663933346342e-12,-4.48388555913445e-11)
(-7.37889455992423e-13,1.85623651502728e-11,-4.33533826855822e-11)
(-1.37960898459561e-12,3.52720228718149e-11,-4.05810330596103e-11)
(-1.74806728751212e-12,6.38951271247297e-11,-3.6096243285928e-11)
(-1.96498942366614e-12,1.08309073632309e-10,-2.99492706388053e-11)
(-2.26251518389308e-12,1.79710166552844e-10,-2.17503398877347e-11)
(-2.16600647660293e-12,2.80080229855923e-10,-1.15759155567468e-11)
(0,0,0)
(0,0,0)
(0,0,0)
(0,0,0)
(0,0,0)
(0,0,0)
(-1.40589199062056e-12,1.09124436707167e-12,-7.12380381722755e-11)
(-1.27858868168561e-12,1.78372887186492e-12,-7.11753721957476e-11)
(-7.48224679154454e-13,3.72320092414498e-12,-7.10045841375718e-11)
(-6.08037740431347e-13,7.68406667442878e-12,-7.02867024657114e-11)
(-2.80481472277483e-13,1.57664399872271e-11,-6.9362667973334e-11)
(-5.50591943187954e-13,3.09194725038391e-11,-6.64244319289694e-11)
(5.83279591073207e-13,5.81271442913611e-11,-6.03970183713819e-11)
(8.76478965541973e-13,1.0063013964684e-10,-5.17088517276251e-11)
(-1.49335852499608e-13,1.69994428513332e-10,-3.83579375016564e-11)
(-1.16957627320993e-12,2.68900162811359e-10,-2.05690391962783e-11)
(0,0,0)
(0,0,0)
(0,0,0)
(0,0,0)
(0,0,0)
(0,0,0)
(-5.21163638921129e-13,9.6079691025097e-13,-1.14013661840794e-10)
(-4.49790040526834e-13,1.39625557167639e-12,-1.13879852035261e-10)
(-2.74544516979452e-13,2.98299471419664e-12,-1.13538385582418e-10)
(3.53132424753686e-14,6.64893587197258e-12,-1.13006173212088e-10)
(1.68546170097111e-12,1.32838584072545e-11,-1.1202873508936e-10)
(1.9927234543211e-12,2.6293144548652e-11,-1.08393539952928e-10)
(2.6449430889258e-12,4.98917913015996e-11,-1.00975844022356e-10)
(2.60764820936219e-12,8.78047960142339e-11,-8.83031174697741e-11)
(1.55962813566335e-12,1.52518394907212e-10,-6.8088842611341e-11)
(7.60331713273748e-13,2.47752922930923e-10,-3.84403032022818e-11)
(0,0,0)
(0,0,0)
(0,0,0)
(0,0,0)
(0,0,0)
(0,0,0)
(-4.63038106409981e-14,1.33747589148357e-12,-1.87156430746014e-10)
(-1.87399553356665e-13,1.62244337150414e-12,-1.86438677980019e-10)
(5.22811500927308e-15,2.71609951725002e-12,-1.85434770205903e-10)
(1.11098985754083e-12,5.27052359248857e-12,-1.84363568399968e-10)
(4.0926513339256e-12,1.00208975898209e-11,-1.82730381950372e-10)
(5.8598277393039e-12,1.96854083045757e-11,-1.78169458958081e-10)
(6.58754681069075e-12,3.72099571869749e-11,-1.68599948895086e-10)
(6.4455782839934e-12,6.74818521479896e-11,-1.51496727238987e-10)
(4.55193855432921e-12,1.22632879863461e-10,-1.22119562728503e-10)
(3.11087807855674e-12,2.08329675293343e-10,-7.33247623327677e-11)
(0,0,0)
(0,0,0)
(0,0,0)
(0,0,0)
(0,0,0)
(0,0,0)
(-3.61420320147482e-13,1.24863920704977e-12,-2.8953675020843e-10)
(-9.57078587037756e-13,1.18896326662906e-12,-2.87858016759671e-10)
(-2.33388801146595e-13,1.63739279077613e-12,-2.86443530346704e-10)
(2.29275561987485e-12,2.77084850206922e-12,-2.84987751975226e-10)
(5.9069233660453e-12,5.34047391414165e-12,-2.8298241637833e-10)
(9.03042247490979e-12,1.06848126930404e-11,-2.78035933601767e-10)
(9.26575949247513e-12,2.04276960667895e-11,-2.66762594316968e-10)
(8.23537846696282e-12,3.83283083233168e-11,-2.45795683149602e-10)
(5.71299542878599e-12,7.36420249010544e-11,-2.07029093211468e-10)
(3.39570379101589e-12,1.34117725155403e-10,-1.33365447385064e-10)
(0,0,0)
(0,0,0)
(0,0,0)
(0,0,0)
(0,0,0)
(0,0,0)
(0,0,0)
(0,0,0)
(0,0,0)
(0,0,0)
(0,0,0)
(0,0,0)
(0,0,0)
(0,0,0)
(0,0,0)
(0,0,0)
(0,0,0)
(0,0,0)
(0,0,0)
(0,0,0)
(0,0,0)
(0,0,0)
(0,0,0)
(0,0,0)
(0,0,0)
(0,0,0)
(0,0,0)
(0,0,0)
(0,0,0)
(0,0,0)
(0,0,0)
(0,0,0)
(0,0,0)
(0,0,0)
(0,0,0)
(0,0,0)
(0,0,0)
(0,0,0)
(0,0,0)
(0,0,0)
(0,0,0)
(0,0,0)
(0,0,0)
(0,0,0)
(0,0,0)
(0,0,0)
(0,0,0)
(0,0,0)
(0,0,0)
(0,0,0)
(0,0,0)
(0,0,0)
(0,0,0)
(0,0,0)
(0,0,0)
(0,0,0)
(0,0,0)
(0,0,0)
(0,0,0)
(0,0,0)
(0,0,0)
(0,0,0)
(0,0,0)
(0,0,0)
(0,0,0)
(0,0,0)
(0,0,0)
(0,0,0)
(0,0,0)
(0,0,0)
(0,0,0)
(0,0,0)
(0,0,0)
(0,0,0)
(0,0,0)
(0,0,0)
(0,0,0)
(0,0,0)
(0,0,0)
(0,0,0)
(0,0,0)
(0,0,0)
(0,0,0)
(0,0,0)
(0,0,0)
(0,0,0)
(0,0,0)
(0,0,0)
(0,0,0)
(0,0,0)
(0,0,0)
(0,0,0)
(0,0,0)
(0,0,0)
(0,0,0)
(0,0,0)
(0,0,0)
(0,0,0)
(0,0,0)
(0,0,0)
(0,0,0)
(0,0,0)
(-4.48194936279007e-13,4.51396916945352e-12,-4.71215331007178e-12)
(-1.02785808791724e-12,9.62802846629894e-12,-4.12420203085659e-12)
(-1.29940989054217e-12,1.81132370448759e-11,-3.62413743625577e-12)
(-8.66176589846386e-13,3.09670329699664e-11,-3.32885184518778e-12)
(-1.79913383641949e-13,5.16309998961857e-11,-2.50791095289487e-12)
(4.84200390447556e-13,8.16761475366939e-11,-9.26375342051796e-13)
(1.63828505869281e-12,1.27840134522049e-10,3.606671281617e-13)
(1.57501940554378e-12,2.05081978126159e-10,1.04029884021189e-12)
(9.99256836747325e-13,3.50964979351441e-10,1.39555151975339e-12)
(7.38214332832952e-13,6.82300823123758e-10,9.25863739752649e-13)
(0,0,0)
(0,0,0)
(0,0,0)
(0,0,0)
(0,0,0)
(0,0,0)
(-1.14666223064906e-12,4.18322976434197e-12,-1.20399694822693e-11)
(-2.01496622660854e-12,9.23252085470747e-12,-1.13243286030075e-11)
(-2.61083045203895e-12,1.7537777517342e-11,-1.05575262576352e-11)
(-2.16633166105723e-12,3.02989070735009e-11,-9.47753569462511e-12)
(-1.40001991092672e-12,5.04846684960955e-11,-7.32359442614166e-12)
(1.28042032830745e-13,8.0839179782424e-11,-4.42964522813484e-12)
(2.07436454422268e-12,1.27674254683612e-10,-1.67235898664329e-12)
(1.68855626835534e-12,2.05085272060235e-10,1.59509965939408e-13)
(7.79279003347923e-13,3.51497857120204e-10,1.01770880681885e-12)
(2.93252164519215e-13,6.83114641804059e-10,9.5783616174817e-13)
(0,0,0)
(0,0,0)
(0,0,0)
(0,0,0)
(0,0,0)
(0,0,0)
(-2.02913395714781e-12,3.54354223191867e-12,-2.19357426416307e-11)
(-2.70950279480776e-12,8.31242157805108e-12,-2.13051700789876e-11)
(-2.85310858983884e-12,1.60829614971506e-11,-2.03625893338869e-11)
(-2.55288346485134e-12,2.82511480026914e-11,-1.84601740187501e-11)
(-1.83331544133837e-12,4.7809206598953e-11,-1.48607428215245e-11)
(-2.81018360856793e-13,7.83665308319283e-11,-1.05240977045617e-11)
(1.03217136199658e-12,1.26231947156452e-10,-5.75040068477178e-12)
(-1.18110037017961e-13,2.04835007843378e-10,-2.91247418670093e-12)
(-1.49668752841794e-12,3.51931584801811e-10,-1.48175594784873e-12)
(-1.61279407561486e-12,6.84361986774913e-10,-4.46910510973862e-13)
(0,0,0)
(0,0,0)
(0,0,0)
(0,0,0)
(0,0,0)
(0,0,0)
(-2.36638113324571e-12,2.80459658440753e-12,-3.52124492507126e-11)
(-2.79231983657936e-12,6.99520741071227e-12,-3.47269721814078e-11)
(-2.76623668513394e-12,1.37277380968449e-11,-3.35102536735039e-11)
(-2.57179695900093e-12,2.46832176832657e-11,-3.12791817986352e-11)
(-2.10344014840856e-12,4.34036615570567e-11,-2.70361424292138e-11)
(-1.21104630576243e-12,7.33313196323784e-11,-2.13670527691256e-11)
(-1.22103813426418e-12,1.22882380714988e-10,-1.51997883552571e-11)
(-2.97996072509134e-12,2.03814764232599e-10,-1.15102684932448e-11)
(-4.58301316757205e-12,3.51151350830757e-10,-8.36308520056359e-12)
(-4.63581082542441e-12,6.84273231963029e-10,-4.60915307758767e-12)
(0,0,0)
(0,0,0)
(0,0,0)
(0,0,0)
(0,0,0)
(0,0,0)
(-1.93570688789459e-12,2.20254881555725e-12,-5.42213125965058e-11)
(-1.86692128983718e-12,5.37976045425999e-12,-5.40390984638472e-11)
(-2.00522353013713e-12,1.08181115752152e-11,-5.27654007695197e-11)
(-2.16493371581239e-12,2.01333792018708e-11,-5.0636218790535e-11)
(-1.48233645665187e-12,3.71015284926964e-11,-4.69493556245585e-11)
(-1.31124467047766e-12,6.57237499783946e-11,-4.21000911603079e-11)
(-3.35760997814641e-12,1.16819275841371e-10,-3.74472256449485e-11)
(-4.41035146990492e-12,2.01241831211247e-10,-2.92126656787781e-11)
(-4.98744675353544e-12,3.47621454111905e-10,-2.07230065610878e-11)
(-4.91543345915779e-12,6.79788394781311e-10,-1.12043584698801e-11)
(0,0,0)
(0,0,0)
(0,0,0)
(0,0,0)
(0,0,0)
(0,0,0)
(-1.02378932163062e-12,1.91301006834711e-12,-8.25586173687798e-11)
(-5.58507162495764e-13,3.7739468729101e-12,-8.2370015901573e-11)
(-3.75515278206514e-13,7.9362082138903e-12,-8.13349081448762e-11)
(-6.35120654796888e-13,1.5764233899602e-11,-7.97738234601404e-11)
(-7.14313918913493e-13,3.09651511766105e-11,-7.67530277430466e-11)
(-1.51184839031358e-12,5.86884765167363e-11,-7.14621578143243e-11)
(-2.12705710123756e-12,1.13063512266291e-10,-6.39919374509291e-11)
(-2.48498618922317e-12,1.95519326616458e-10,-5.30248004256086e-11)
(-2.72120147544147e-12,3.38911358014476e-10,-3.80717072955303e-11)
(-2.56185498856269e-12,6.68749458879249e-10,-2.02534304252954e-11)
(0,0,0)
(0,0,0)
(0,0,0)
(0,0,0)
(0,0,0)
(0,0,0)
(-1.33811051032721e-12,1.76775637180341e-12,-1.25786155332869e-10)
(-1.06190343967339e-12,2.77186421748681e-12,-1.25875190094733e-10)
(-7.2590014106771e-13,6.15907997389249e-12,-1.25645374995262e-10)
(-4.96941430352385e-13,1.22470717329903e-11,-1.24519587762017e-10)
(-7.36135936671512e-13,2.4725701016902e-11,-1.22622748468155e-10)
(-1.95167754559382e-12,4.93635107671836e-11,-1.1785175016698e-10)
(1.30465937056668e-13,1.02612012969099e-10,-1.06383073666866e-10)
(3.50908372164485e-13,1.81839626405982e-10,-9.27126886773268e-11)
(-4.62200551883034e-13,3.21539838469567e-10,-6.83987529488446e-11)
(-5.91375588806437e-13,6.48731069578616e-10,-3.6946423453546e-11)
(0,0,0)
(0,0,0)
(0,0,0)
(0,0,0)
(0,0,0)
(0,0,0)
(-1.03165242568686e-12,1.46084525527864e-12,-2.00095113116193e-10)
(-1.01744429319727e-12,2.05423084943919e-12,-2.00271175082677e-10)
(-5.3986169036132e-13,4.71016383008806e-12,-2.00234661206187e-10)
(4.3628739923171e-13,9.85906254621537e-12,-1.99296498183927e-10)
(1.31322738197281e-12,2.06853810367975e-11,-1.97422325437428e-10)
(1.18276376783138e-12,4.33069899777212e-11,-1.92256777545377e-10)
(2.65405065097007e-12,8.85441095475194e-11,-1.80456424362366e-10)
(2.71631721712067e-12,1.57338800618501e-10,-1.57667183856925e-10)
(1.79660377037332e-12,2.89442450014188e-10,-1.21279994153377e-10)
(1.7432761484549e-12,6.10848199026025e-10,-6.91241184653292e-11)
(0,0,0)
(0,0,0)
(0,0,0)
(0,0,0)
(0,0,0)
(0,0,0)
(-6.7521989220312e-13,1.40582168428844e-12,-3.44820475031102e-10)
(-7.5782722259731e-13,1.72561846581831e-12,-3.44310777131911e-10)
(1.27330355483156e-14,3.55604066507164e-12,-3.43341507897086e-10)
(1.97747849836455e-12,7.39099014849563e-12,-3.41818625780075e-10)
(4.21215201731574e-12,1.56123094853598e-11,-3.39062554058529e-10)
(5.29091328784496e-12,3.28003434712195e-11,-3.32104513778646e-10)
(6.26658627477303e-12,6.54776599949136e-11,-3.16545855930797e-10)
(6.22195759819466e-12,1.20367004294173e-10,-2.86466716820403e-10)
(4.74799312093688e-12,2.36282068874636e-10,-2.34932282114896e-10)
(3.99806588380445e-12,5.40457622019948e-10,-1.47049769032473e-10)
(0,0,0)
(0,0,0)
(0,0,0)
(0,0,0)
(0,0,0)
(0,0,0)
(-7.91514561856195e-13,9.6040565498412e-13,-6.76007837763473e-10)
(-1.18260173337577e-12,9.08191581377573e-13,-6.7491476667741e-10)
(-5.1774381849217e-14,1.9250938477908e-12,-6.73691283118861e-10)
(3.05826852504939e-12,4.01634495508307e-12,-6.71766482641041e-10)
(6.30091450362278e-12,8.58054274597172e-12,-6.68481138461015e-10)
(8.44189588314788e-12,1.7835225736821e-11,-6.6048726299346e-10)
(8.72654439189715e-12,3.57029066676922e-11,-6.42382834215202e-10)
(7.79709685213843e-12,6.87483825739597e-11,-6.06524817720769e-10)
(5.69137450343887e-12,1.47542443336459e-10,-5.37976111559209e-10)
(4.14798156136491e-12,3.92165799637604e-10,-3.91072377448434e-10)
(0,0,0)
(0,0,0)
(0,0,0)
(0,0,0)
(0,0,0)
(0,0,0)
(0,0,0)
(0,0,0)
(0,0,0)
(0,0,0)
(0,0,0)
(0,0,0)
(0,0,0)
(0,0,0)
(0,0,0)
(0,0,0)
(0,0,0)
(0,0,0)
(0,0,0)
(0,0,0)
(0,0,0)
(0,0,0)
(0,0,0)
(0,0,0)
(0,0,0)
(0,0,0)
(0,0,0)
(0,0,0)
(0,0,0)
(0,0,0)
(0,0,0)
(0,0,0)
(0,0,0)
(0,0,0)
(0,0,0)
(0,0,0)
(0,0,0)
(0,0,0)
(0,0,0)
(0,0,0)
(0,0,0)
(0,0,0)
(0,0,0)
(0,0,0)
(0,0,0)
(0,0,0)
(0,0,0)
(0,0,0)
(0,0,0)
(0,0,0)
(0,0,0)
(0,0,0)
(0,0,0)
(0,0,0)
(0,0,0)
(0,0,0)
(0,0,0)
(0,0,0)
(0,0,0)
(0,0,0)
(0,0,0)
(0,0,0)
(0,0,0)
(0,0,0)
(0,0,0)
(0,0,0)
(0,0,0)
(0,0,0)
(0,0,0)
(0,0,0)
(0,0,0)
(0,0,0)
(0,0,0)
(0,0,0)
(0,0,0)
(0,0,0)
(0,0,0)
(0,0,0)
(0,0,0)
(0,0,0)
(0,0,0)
(0,0,0)
(0,0,0)
(0,0,0)
(0,0,0)
(0,0,0)
(0,0,0)
(0,0,0)
(0,0,0)
(0,0,0)
(0,0,0)
(0,0,0)
(0,0,0)
(0,0,0)
(0,0,0)
(0,0,0)
(0,0,0)
(0,0,0)
(0,0,0)
(0,0,0)
(0,0,0)
(0,0,0)
(-7.05406810771859e-13,7.11436679623614e-12,-8.48064826525593e-12)
(-1.13241507086142e-12,1.52249802063178e-11,-8.07816974191786e-12)
(-1.0192359544887e-12,2.68481783768383e-11,-7.51304325626076e-12)
(-1.01899158500121e-12,4.40819949821143e-11,-6.38989663954567e-12)
(-6.15117594611751e-13,7.05002746826313e-11,-4.32288541754318e-12)
(3.41256746659191e-14,1.06195303056738e-10,-1.39588810679512e-12)
(1.12453318484168e-12,1.55695908466283e-10,1.25701438960781e-12)
(1.21647279185446e-12,2.25890512477139e-10,2.38603916276948e-12)
(9.36066847790311e-13,3.25850789587014e-10,2.05006588353505e-12)
(8.50259392420224e-13,4.47944804335393e-10,1.0281745310587e-12)
(0,0,0)
(0,0,0)
(0,0,0)
(0,0,0)
(0,0,0)
(0,0,0)
(-1.22261557775439e-12,6.60218087970595e-12,-1.85915661582861e-11)
(-1.86166929495174e-12,1.42702911670441e-11,-1.77188184104276e-11)
(-2.23600499523757e-12,2.53365710074503e-11,-1.61877799063845e-11)
(-2.27251385854071e-12,4.20653768785155e-11,-1.3615725249593e-11)
(-1.61850721167795e-12,6.77604480382736e-11,-9.34190635442664e-12)
(-1.56595258189091e-13,1.03838892751955e-10,-3.81282838606552e-12)
(1.68480311844915e-12,1.55019612297214e-10,1.73747687109432e-12)
(1.08062164499347e-12,2.26503920616205e-10,3.72112284515241e-12)
(4.05423966355776e-13,3.27187930309275e-10,2.87991895768936e-12)
(3.74335555166555e-15,4.49329806239048e-10,1.3960089619154e-12)
(0,0,0)
(0,0,0)
(0,0,0)
(0,0,0)
(0,0,0)
(0,0,0)
(-1.92076087238934e-12,5.68433799612437e-12,-3.16277757503159e-11)
(-2.33486937251989e-12,1.25082004434449e-11,-3.05529023234064e-11)
(-2.40030050446342e-12,2.24346632817222e-11,-2.82786283529e-11)
(-2.58438434261716e-12,3.7866864890221e-11,-2.42770663323233e-11)
(-1.7644155164935e-12,6.22682227412847e-11,-1.77437094672315e-11)
(-1.95041813475862e-14,9.85325298671706e-11,-8.9607549728502e-12)
(1.54381130585428e-12,1.5333856680351e-10,1.47289682729603e-12)
(-5.28584665226404e-13,2.27759119069564e-10,3.11391224098783e-12)
(-1.75129899406386e-12,3.29218013462326e-10,1.53202725660333e-12)
(-1.97094977481445e-12,4.51542533871509e-10,3.72793825260013e-13)
(0,0,0)
(0,0,0)
(0,0,0)
(0,0,0)
(0,0,0)
(0,0,0)
(-2.2498104337379e-12,4.36281197787146e-12,-4.91060686072633e-11)
(-2.39359138815709e-12,9.94054924154358e-12,-4.81232197218496e-11)
(-2.08768203837877e-12,1.83065972726086e-11,-4.54183575783229e-11)
(-2.26499784721426e-12,3.16484417533717e-11,-4.06075998630431e-11)
(-1.47039674376455e-12,5.37156988682019e-11,-3.27041462402027e-11)
(2.2925893456616e-13,8.81362628679169e-11,-2.04959576611392e-11)
(1.1525468768605e-12,1.49724183544731e-10,-4.24887011770557e-12)
(-3.55421099654943e-12,2.30113820411996e-10,-4.42710704957593e-12)
(-4.80704857158959e-12,3.31186356958925e-10,-5.61619770722307e-12)
(-4.76012672111419e-12,4.52948287288156e-10,-3.98651598946228e-12)
(0,0,0)
(0,0,0)
(0,0,0)
(0,0,0)
(0,0,0)
(0,0,0)
(-1.82838227325555e-12,2.95292307039969e-12,-7.30144562983335e-11)
(-1.53480540305416e-12,7.0239296146141e-12,-7.21827835359253e-11)
(-1.25250214732147e-12,1.35058769702853e-11,-6.9447216145039e-11)
(-1.48265158015579e-12,2.38004734750655e-11,-6.50948374915188e-11)
(-1.9522360402283e-13,4.12700106532073e-11,-5.84832216298386e-11)
(1.07116327536674e-12,6.95169520533078e-11,-4.99908427625381e-11)
(-7.83640636926158e-12,1.31544360623876e-10,-5.15756427871511e-11)
(-7.17750599302819e-12,2.32877347380552e-10,-3.33873154222537e-11)
(-5.79599874687233e-12,3.31072336012862e-10,-2.31669269834385e-11)
(-5.08085602709349e-12,4.50200393660656e-10,-1.25836796217816e-11)
(0,0,0)
(0,0,0)
(0,0,0)
(0,0,0)
(0,0,0)
(0,0,0)
(-1.06713709227692e-12,1.81929188210715e-12,-1.05063707932706e-10)
(-5.91532263548569e-13,4.2816582762024e-12,-1.04729592910231e-10)
(-1.59471723030492e-13,8.85235483963763e-12,-1.02756591457998e-10)
(-1.38754205386853e-13,1.58670518018576e-11,-9.97735369772701e-11)
(2.34266312043937e-13,2.93544877337663e-11,-9.49005660974349e-11)
(3.42896995673497e-13,5.66031803548667e-11,-8.70519523764489e-11)
(-2.64269482897333e-12,1.38991062629894e-10,-8.10018949645012e-11)
(-3.75837910918103e-12,2.30318532990157e-10,-6.61503805450626e-11)
(-3.16795880048228e-12,3.22678624349485e-10,-4.70701014749184e-11)
(-2.79689611372676e-12,4.38359747674011e-10,-2.48010443646879e-11)
(0,0,0)
(0,0,0)
(0,0,0)
(0,0,0)
(0,0,0)
(0,0,0)
(-9.42164631502936e-13,1.40412967582175e-12,-1.50617423484996e-10)
(-5.74085171236189e-13,2.63391076261614e-12,-1.50565532710921e-10)
(-4.02771230929443e-13,5.53060002024151e-12,-1.49798753607527e-10)
(-5.7715366952025e-15,9.12085277232573e-12,-1.48639044071639e-10)
(-1.46681425763568e-12,1.72331893144522e-11,-1.47970351893614e-10)
(-7.36383325697137e-12,3.4755400522427e-11,-1.46684176268436e-10)
(5.27984369423873e-13,1.22932792568842e-10,-1.22408859435133e-10)
(5.3779843064839e-13,2.13666650641344e-10,-1.19295538306748e-10)
(1.82858408926166e-13,3.01021038651027e-10,-8.40046835244245e-11)
(3.45071510082911e-13,4.13287069764283e-10,-4.36069707703192e-11)
(0,0,0)
(0,0,0)
(0,0,0)
(0,0,0)
(0,0,0)
(0,0,0)
(-8.00566888101757e-13,9.77370430486695e-13,-2.1765076142078e-10)
(-7.25345786355057e-13,1.40929651459227e-12,-2.17842085339103e-10)
(-3.23901547560462e-13,3.39460051828905e-12,-2.18166026135678e-10)
(1.03018705089946e-12,6.65774317572029e-12,-2.17920826099223e-10)
(1.22075104072733e-12,1.6583212751603e-11,-2.17778011197086e-10)
(-1.10942908598431e-13,4.16777613962251e-11,-2.16687464841971e-10)
(2.93125969861209e-12,1.10904395732805e-10,-2.08351721422781e-10)
(3.30092383751288e-12,1.76742838747627e-10,-1.77296943321378e-10)
(2.80110922162804e-12,2.59445288531696e-10,-1.29517644731837e-10)
(3.00973468955601e-12,3.68120740240871e-10,-6.99718507996618e-11)
(0,0,0)
(0,0,0)
(0,0,0)
(0,0,0)
(0,0,0)
(0,0,0)
(-7.3950176237972e-13,8.39611182824427e-13,-3.16219970774355e-10)
(-9.09669572767889e-13,7.0942804493872e-13,-3.15806896679295e-10)
(1.20797735499145e-13,1.94146322856965e-12,-3.15846904529889e-10)
(2.59605197064502e-12,5.1639389866404e-12,-3.15403997201096e-10)
(4.28587847681681e-12,1.47212320788741e-11,-3.13535100091333e-10)
(4.69737317475972e-12,3.56113790676072e-11,-3.07665146615992e-10)
(5.96220049117812e-12,7.77098245152837e-11,-2.9232092751688e-10)
(6.30614461303928e-12,1.27667838630029e-10,-2.55767924109387e-10)
(5.60510557645407e-12,1.98634240624663e-10,-1.97601645417029e-10)
(5.2401192336372e-12,2.96623231131442e-10,-1.13450974867485e-10)
(0,0,0)
(0,0,0)
(0,0,0)
(0,0,0)
(0,0,0)
(0,0,0)
(-9.24179993354708e-13,5.64205859147351e-13,-4.37628056441527e-10)
(-1.49789371072121e-12,3.36605818857514e-13,-4.36775132998111e-10)
(-5.14810116309747e-14,1.1299274121158e-12,-4.36462010769237e-10)
(3.78926929965334e-12,3.21910370686451e-12,-4.35543972165357e-10)
(6.88758178227888e-12,8.91762179941832e-12,-4.32407884099444e-10)
(8.17269284163378e-12,2.0124241868273e-11,-4.23324556664385e-10)