/*--------------------------------*- C++ -*----------------------------------*\
| =========                 |                                                 |
| \\      /  F ield         | foam-extend: Open Source CFD                    |
|  \\    /   O peration     | Version:     4.0                                |
|   \\  /    A nd           | Web:         http://www.foam-extend.org         |
|    \\/     M anipulation  |                                                 |
\*---------------------------------------------------------------------------*/
FoamFile
{
    version 2.0;
    format ascii;
    class volVectorField;
    location "2928";
    object      H;
}
// * * * * * * * * * * * * * * * * * * * * * * * * * * * * * * * * * * * * * //

dimensions      [0 1 -1 0 0 0 0];

internalField   nonuniform List<vector>
4096
(
(0,0,0)
(0,0,0)
(0,0,0)
(0,0,0)
(0,0,0)
(0,0,0)
(0,0,0)
(0,0,0)
(0,0,0)
(0,0,0)
(0,0,0)
(0,0,0)
(0,0,0)
(0,0,0)
(0,0,0)
(0,0,0)
(0,0,0)
(0,0,0)
(0,0,0)
(0,0,0)
(0,0,0)
(0,0,0)
(0,0,0)
(0,0,0)
(0,0,0)
(0,0,0)
(0,0,0)
(0,0,0)
(0,0,0)
(0,0,0)
(0,0,0)
(0,0,0)
(0,0,0)
(0,0,0)
(0,0,0)
(0,0,0)
(0,0,0)
(0,0,0)
(0,0,0)
(0,0,0)
(0,0,0)
(0,0,0)
(0,0,0)
(0,0,0)
(0,0,0)
(0,0,0)
(0,0,0)
(0,0,0)
(0,0,0)
(0,0,0)
(0,0,0)
(0,0,0)
(0,0,0)
(0,0,0)
(0,0,0)
(0,0,0)
(0,0,0)
(0,0,0)
(0,0,0)
(0,0,0)
(0,0,0)
(0,0,0)
(0,0,0)
(0,0,0)
(0,0,0)
(0,0,0)
(0,0,0)
(0,0,0)
(0,0,0)
(0,0,0)
(0,0,0)
(0,0,0)
(0,0,0)
(0,0,0)
(0,0,0)
(0,0,0)
(0,0,0)
(0,0,0)
(0,0,0)
(0,0,0)
(0,0,0)
(0,0,0)
(0,0,0)
(0,0,0)
(0,0,0)
(0,0,0)
(0,0,0)
(0,0,0)
(0,0,0)
(0,0,0)
(0,0,0)
(0,0,0)
(0,0,0)
(0,0,0)
(0,0,0)
(0,0,0)
(0,0,0)
(0,0,0)
(0,0,0)
(0,0,0)
(0,0,0)
(0,0,0)
(0,0,0)
(0,0,0)
(0,0,0)
(0,0,0)
(0,0,0)
(0,0,0)
(0,0,0)
(0,0,0)
(0,0,0)
(0,0,0)
(0,0,0)
(0,0,0)
(0,0,0)
(0,0,0)
(0,0,0)
(0,0,0)
(0,0,0)
(0,0,0)
(0,0,0)
(0,0,0)
(0,0,0)
(0,0,0)
(0,0,0)
(0,0,0)
(0,0,0)
(0,0,0)
(0,0,0)
(0,0,0)
(0,0,0)
(0,0,0)
(0,0,0)
(0,0,0)
(0,0,0)
(0,0,0)
(0,0,0)
(0,0,0)
(0,0,0)
(0,0,0)
(0,0,0)
(0,0,0)
(0,0,0)
(0,0,0)
(0,0,0)
(0,0,0)
(0,0,0)
(0,0,0)
(0,0,0)
(0,0,0)
(0,0,0)
(0,0,0)
(0,0,0)
(0,0,0)
(0,0,0)
(0,0,0)
(0,0,0)
(0,0,0)
(0,0,0)
(0,0,0)
(0,0,0)
(0,0,0)
(0,0,0)
(0,0,0)
(0,0,0)
(0,0,0)
(0,0,0)
(0,0,0)
(0,0,0)
(0,0,0)
(0,0,0)
(0,0,0)
(0,0,0)
(0,0,0)
(0,0,0)
(0,0,0)
(0,0,0)
(0,0,0)
(0,0,0)
(0,0,0)
(0,0,0)
(0,0,0)
(0,0,0)
(0,0,0)
(0,0,0)
(0,0,0)
(0,0,0)
(0,0,0)
(0,0,0)
(0,0,0)
(0,0,0)
(0,0,0)
(0,0,0)
(0,0,0)
(0,0,0)
(0,0,0)
(0,0,0)
(0,0,0)
(0,0,0)
(0,0,0)
(0,0,0)
(0,0,0)
(0,0,0)
(0,0,0)
(0,0,0)
(0,0,0)
(0,0,0)
(0,0,0)
(0,0,0)
(0,0,0)
(0,0,0)
(0,0,0)
(0,0,0)
(0,0,0)
(0,0,0)
(0,0,0)
(0,0,0)
(0,0,0)
(0,0,0)
(0,0,0)
(0,0,0)
(0,0,0)
(0,0,0)
(0,0,0)
(0,0,0)
(0,0,0)
(0,0,0)
(0,0,0)
(0,0,0)
(0,0,0)
(0,0,0)
(0,0,0)
(0,0,0)
(0,0,0)
(0,0,0)
(0,0,0)
(0,0,0)
(0,0,0)
(0,0,0)
(0,0,0)
(0,0,0)
(0,0,0)
(0,0,0)
(0,0,0)
(0,0,0)
(0,0,0)
(0,0,0)
(0,0,0)
(0,0,0)
(0,0,0)
(0,0,0)
(0,0,0)
(0,0,0)
(0,0,0)
(0,0,0)
(0,0,0)
(0,0,0)
(0,0,0)
(0,0,0)
(0,0,0)
(0,0,0)
(0,0,0)
(0,0,0)
(0,0,0)
(0,0,0)
(0,0,0)
(0,0,0)
(0,0,0)
(0,0,0)
(0,0,0)
(0,0,0)
(0,0,0)
(0,0,0)
(0,0,0)
(0,0,0)
(0,0,0)
(0,0,0)
(0,0,0)
(0,0,0)
(0,0,0)
(0,0,0)
(0,0,0)
(0,0,0)
(0,0,0)
(0,0,0)
(0,0,0)
(0,0,0)
(0,0,0)
(0,0,0)
(0,0,0)
(0,0,0)
(0,0,0)
(0,0,0)
(0,0,0)
(0,0,0)
(0,0,0)
(0,0,0)
(0,0,0)
(0,0,0)
(0,0,0)
(0,0,0)
(0,0,0)
(0,0,0)
(0,0,0)
(0,0,0)
(0,0,0)
(0,0,0)
(0,0,0)
(0,0,0)
(0,0,0)
(0,0,0)
(0,0,0)
(0,0,0)
(0,0,0)
(0,0,0)
(0,0,0)
(0,0,0)
(0,0,0)
(0,0,0)
(0,0,0)
(0,0,0)
(0,0,0)
(0,0,0)
(0,0,0)
(0,0,0)
(0,0,0)
(0,0,0)
(0,0,0)
(0,0,0)
(0,0,0)
(0,0,0)
(0,0,0)
(0,0,0)
(0,0,0)
(0,0,0)
(0,0,0)
(0,0,0)
(0,0,0)
(0,0,0)
(0,0,0)
(0,0,0)
(0,0,0)
(0,0,0)
(0,0,0)
(0,0,0)
(0,0,0)
(0,0,0)
(0,0,0)
(0,0,0)
(0,0,0)
(0,0,0)
(0,0,0)
(0,0,0)
(0,0,0)
(0,0,0)
(0,0,0)
(0,0,0)
(0,0,0)
(0,0,0)
(0,0,0)
(0,0,0)
(0,0,0)
(0,0,0)
(0,0,0)
(0,0,0)
(0,0,0)
(0,0,0)
(0,0,0)
(0,0,0)
(0,0,0)
(0,0,0)
(0,0,0)
(0,0,0)
(0,0,0)
(0,0,0)
(0,0,0)
(0,0,0)
(0,0,0)
(0,0,0)
(0,0,0)
(0,0,0)
(0,0,0)
(0,0,0)
(0,0,0)
(0,0,0)
(0,0,0)
(0,0,0)
(0,0,0)
(0,0,0)
(0,0,0)
(0,0,0)
(0,0,0)
(0,0,0)
(0,0,0)
(0,0,0)
(0,0,0)
(0,0,0)
(0,0,0)
(0,0,0)
(0,0,0)
(0,0,0)
(0,0,0)
(0,0,0)
(0,0,0)
(0,0,0)
(0,0,0)
(0,0,0)
(0,0,0)
(0,0,0)
(0,0,0)
(0,0,0)
(0,0,0)
(0,0,0)
(0,0,0)
(0,0,0)
(0,0,0)
(0,0,0)
(0,0,0)
(0,0,0)
(0,0,0)
(0,0,0)
(0,0,0)
(0,0,0)
(0,0,0)
(0,0,0)
(0,0,0)
(0,0,0)
(0,0,0)
(0,0,0)
(0,0,0)
(0,0,0)
(0,0,0)
(0,0,0)
(0,0,0)
(0,0,0)
(0,0,0)
(0,0,0)
(0,0,0)
(0,0,0)
(0,0,0)
(0,0,0)
(0,0,0)
(0,0,0)
(0,0,0)
(0,0,0)
(0,0,0)
(0,0,0)
(0,0,0)
(0,0,0)
(0,0,0)
(0,0,0)
(0,0,0)
(0,0,0)
(0,0,0)
(0,0,0)
(0,0,0)
(0,0,0)
(0,0,0)
(0,0,0)
(0,0,0)
(0,0,0)
(0,0,0)
(0,0,0)
(0,0,0)
(0,0,0)
(0,0,0)
(0,0,0)
(0,0,0)
(0,0,0)
(0,0,0)
(0,0,0)
(0,0,0)
(0,0,0)
(0,0,0)
(0,0,0)
(0,0,0)
(0,0,0)
(0,0,0)
(0,0,0)
(0,0,0)
(0,0,0)
(0,0,0)
(0,0,0)
(0,0,0)
(0,0,0)
(0,0,0)
(0,0,0)
(0,0,0)
(0,0,0)
(0,0,0)
(0,0,0)
(0,0,0)
(0,0,0)
(0,0,0)
(0,0,0)
(0,0,0)
(0,0,0)
(0,0,0)
(0,0,0)
(0,0,0)
(0,0,0)
(0,0,0)
(0,0,0)
(0,0,0)
(0,0,0)
(0,0,0)
(0,0,0)
(0,0,0)
(0,0,0)
(0,0,0)
(0,0,0)
(0,0,0)
(0,0,0)
(0,0,0)
(0,0,0)
(0,0,0)
(0,0,0)
(0,0,0)
(0,0,0)
(0,0,0)
(0,0,0)
(0,0,0)
(0,0,0)
(0,0,0)
(0,0,0)
(0,0,0)
(0,0,0)
(0,0,0)
(0,0,0)
(0,0,0)
(0,0,0)
(0,0,0)
(0,0,0)
(0,0,0)
(0,0,0)
(0,0,0)
(0,0,0)
(0,0,0)
(0,0,0)
(0,0,0)
(0,0,0)
(0,0,0)
(0,0,0)
(0,0,0)
(0,0,0)
(0,0,0)
(0,0,0)
(0,0,0)
(0,0,0)
(0,0,0)
(0,0,0)
(0,0,0)
(0,0,0)
(0,0,0)
(0,0,0)
(0,0,0)
(0,0,0)
(0,0,0)
(0,0,0)
(0,0,0)
(0,0,0)
(0,0,0)
(0,0,0)
(0,0,0)
(0,0,0)
(0,0,0)
(0,0,0)
(0,0,0)
(0,0,0)
(0,0,0)
(0,0,0)
(0,0,0)
(0,0,0)
(0,0,0)
(0,0,0)
(0,0,0)
(0,0,0)
(0,0,0)
(0,0,0)
(0,0,0)
(0,0,0)
(0,0,0)
(0,0,0)
(0,0,0)
(0,0,0)
(0,0,0)
(0,0,0)
(0,0,0)
(0,0,0)
(0,0,0)
(0,0,0)
(0,0,0)
(0,0,0)
(0,0,0)
(0,0,0)
(0,0,0)
(0,0,0)
(0,0,0)
(0,0,0)
(0,0,0)
(0,0,0)
(0,0,0)
(0,0,0)
(0,0,0)
(0,0,0)
(0,0,0)
(0,0,0)
(0,0,0)
(0,0,0)
(0,0,0)
(0,0,0)
(0,0,0)
(0,0,0)
(0,0,0)
(0,0,0)
(0,0,0)
(0,0,0)
(0,0,0)
(0,0,0)
(0,0,0)
(0,0,0)
(0,0,0)
(0,0,0)
(0,0,0)
(0,0,0)
(0,0,0)
(0,0,0)
(0,0,0)
(0,0,0)
(0,0,0)
(0,0,0)
(0,0,0)
(0,0,0)
(0,0,0)
(0,0,0)
(0,0,0)
(0,0,0)
(0,0,0)
(0,0,0)
(0,0,0)
(0,0,0)
(0,0,0)
(0,0,0)
(0,0,0)
(0,0,0)
(0,0,0)
(0,0,0)
(0,0,0)
(0,0,0)
(0,0,0)
(0,0,0)
(0,0,0)
(0,0,0)
(0,0,0)
(0,0,0)
(0,0,0)
(0,0,0)
(0,0,0)
(0,0,0)
(0,0,0)
(0,0,0)
(0,0,0)
(0,0,0)
(0,0,0)
(0,0,0)
(0,0,0)
(0,0,0)
(0,0,0)
(0,0,0)
(0,0,0)
(0,0,0)
(0,0,0)
(0,0,0)
(0,0,0)
(0,0,0)
(0,0,0)
(0,0,0)
(0,0,0)
(0,0,0)
(0,0,0)
(0,0,0)
(0,0,0)
(0,0,0)
(0,0,0)
(0,0,0)
(0,0,0)
(0,0,0)
(0,0,0)
(0,0,0)
(0,0,0)
(0,0,0)
(0,0,0)
(0,0,0)
(0,0,0)
(0,0,0)
(0,0,0)
(0,0,0)
(0,0,0)
(0,0,0)
(0,0,0)
(0,0,0)
(0,0,0)
(0,0,0)
(0,0,0)
(0,0,0)
(0,0,0)
(0,0,0)
(0,0,0)
(0,0,0)
(0,0,0)
(0,0,0)
(0,0,0)
(0,0,0)
(0,0,0)
(0,0,0)
(0,0,0)
(0,0,0)
(0,0,0)
(0,0,0)
(0,0,0)
(0,0,0)
(0,0,0)
(0,0,0)
(0,0,0)
(0,0,0)
(0,0,0)
(0,0,0)
(0,0,0)
(0,0,0)
(0,0,0)
(0,0,0)
(0,0,0)
(0,0,0)
(0,0,0)
(0,0,0)
(0,0,0)
(0,0,0)
(0,0,0)
(0,0,0)
(0,0,0)
(0,0,0)
(0,0,0)
(0,0,0)
(0,0,0)
(0,0,0)
(0,0,0)
(0,0,0)
(0,0,0)
(0,0,0)
(0,0,0)
(0,0,0)
(0,0,0)
(0,0,0)
(0,0,0)
(0,0,0)
(0,0,0)
(0,0,0)
(0,0,0)
(0,0,0)
(0,0,0)
(0,0,0)
(0,0,0)
(0,0,0)
(0,0,0)
(0,0,0)
(0,0,0)
(0,0,0)
(0,0,0)
(0,0,0)
(0,0,0)
(0,0,0)
(0,0,0)
(0,0,0)
(0,0,0)
(0,0,0)
(0,0,0)
(0,0,0)
(0,0,0)
(0,0,0)
(0,0,0)
(0,0,0)
(0,0,0)
(0,0,0)
(0,0,0)
(0,0,0)
(0,0,0)
(0,0,0)
(0,0,0)
(0,0,0)
(0,0,0)
(0,0,0)
(0,0,0)
(0,0,0)
(0,0,0)
(0,0,0)
(0,0,0)
(0,0,0)
(0,0,0)
(0,0,0)
(0,0,0)
(0,0,0)
(0,0,0)
(0,0,0)
(0,0,0)
(0,0,0)
(0,0,0)
(0,0,0)
(0,0,0)
(0,0,0)
(0,0,0)
(0,0,0)
(0,0,0)
(0,0,0)
(0,0,0)
(0,0,0)
(0,0,0)
(0,0,0)
(0,0,0)
(0,0,0)
(-8.34504341502172e-13,-1.07981825684204e-11,1.38658710310087e-11)
(-1.56106060145827e-12,-2.40967177750998e-11,1.31408880774406e-11)
(-2.03937257315508e-12,-4.12198047602386e-11,1.14540896289896e-11)
(-2.1404365005032e-12,-6.62781723124615e-11,9.30756890935664e-12)
(-1.5144138467244e-12,-1.05854213751877e-10,7.15525028003952e-12)
(-2.24415845314944e-13,-1.68361232697029e-10,4.76635287060881e-12)
(1.68966594376531e-12,-2.68704404186323e-10,2.30425048160476e-12)
(4.32594077647807e-12,-4.36164177352583e-10,8.001055439054e-13)
(6.03715812700042e-12,-7.13612821830282e-10,3.98441735800158e-13)
(6.51220862443605e-12,-1.10161205714673e-09,3.65387046723747e-13)
(0,0,0)
(0,0,0)
(0,0,0)
(0,0,0)
(0,0,0)
(0,0,0)
(-2.05017994884088e-12,-1.03309704697297e-11,2.86332947616838e-11)
(-3.89262398127405e-12,-2.30184269089745e-11,2.74932646561415e-11)
(-5.16155672105666e-12,-3.99531530271191e-11,2.47705860424155e-11)
(-4.68567497669058e-12,-6.47102457920721e-11,2.05719681225061e-11)
(-3.56331680558344e-12,-1.03787175273409e-10,1.59531221302475e-11)
(-6.80388981803125e-13,-1.66440007174242e-10,1.07415479363111e-11)
(2.91223301772344e-12,-2.67836099214263e-10,5.82639974071458e-12)
(7.24231168572716e-12,-4.36009414388578e-10,2.67750832897795e-12)
(1.08738180409726e-11,-7.13802544942366e-10,1.22990985701978e-12)
(1.28226743596578e-11,-1.10159436655066e-09,5.81812504007404e-13)
(0,0,0)
(0,0,0)
(0,0,0)
(0,0,0)
(0,0,0)
(0,0,0)
(-2.52151583579298e-12,-9.42325951503321e-12,4.72031196985558e-11)
(-4.61398571671331e-12,-2.10596251685446e-11,4.59999583964025e-11)
(-5.45210769242039e-12,-3.70934877444459e-11,4.27736723488586e-11)
(-4.4823352800971e-12,-6.09688256280454e-11,3.74119911390723e-11)
(-3.82045400044881e-12,-9.90605507396621e-11,3.10490595358465e-11)
(-8.34565935456432e-13,-1.61894401381363e-10,2.32280899235345e-11)
(3.18650822911815e-12,-2.65187313981696e-10,1.56422931432942e-11)
(8.08805403810975e-12,-4.35366313263991e-10,1.02802072130304e-11)
(1.29083391373952e-11,-7.14059773590015e-10,6.54962606823153e-12)
(1.57043282287706e-11,-1.10181526554952e-09,3.27717800414292e-12)
(0,0,0)
(0,0,0)
(0,0,0)
(0,0,0)
(0,0,0)
(0,0,0)
(-2.46906400060906e-12,-8.41852694100015e-12,7.35386039541439e-11)
(-4.29875394329178e-12,-1.86724971634812e-11,7.20222103170813e-11)
(-5.43123179999214e-12,-3.29591733650809e-11,6.85743817207305e-11)
(-4.113368401546e-12,-5.49333932416899e-11,6.28379751436567e-11)
(-2.87475317167327e-12,-9.0970459346621e-11,5.56539361471788e-11)
(-1.18227799573323e-13,-1.53453695943743e-10,4.66295441055714e-11)
(4.19819816563285e-12,-2.591767524221e-10,3.66995055729437e-11)
(1.04179301386009e-11,-4.32814024527847e-10,2.7886984820706e-11)
(1.58255518698552e-11,-7.12634496369447e-10,1.96724937659687e-11)
(1.77399130540563e-11,-1.10037943405116e-09,1.06762616988897e-11)
(0,0,0)
(0,0,0)
(0,0,0)
(0,0,0)
(0,0,0)
(0,0,0)
(-2.23469968911966e-12,-6.83442019224713e-12,1.11974177638324e-10)
(-3.72638101499951e-12,-1.53818109196775e-11,1.10516116869237e-10)
(-5.25915796396592e-12,-2.74252880431569e-11,1.07804268567812e-10)
(-4.47986191065122e-12,-4.68284512726752e-11,1.0298013727163e-10)
(-2.75473629601351e-12,-7.98800438489843e-11,9.61848094342172e-11)
(5.82067999375237e-13,-1.40567480073809e-10,8.78662065750761e-11)
(6.26649299998164e-12,-2.48505446444519e-10,7.77492060647413e-11)
(1.19621633147508e-11,-4.25887888765896e-10,6.25851462019594e-11)
(1.73151828607914e-11,-7.05716892271544e-10,4.42951873855992e-11)
(1.95616397166525e-11,-1.09271497351626e-09,2.34840800423247e-11)
(0,0,0)
(0,0,0)
(0,0,0)
(0,0,0)
(0,0,0)
(0,0,0)
(-2.27437060909473e-12,-5.02364318849424e-12,1.72653543010068e-10)
(-3.75828496922986e-12,-1.17899837820834e-11,1.71420893224912e-10)
(-4.6167210454886e-12,-2.17660074432292e-11,1.69267316847258e-10)
(-3.64258108433593e-12,-3.85865890011885e-11,1.6572153566325e-10)
(-2.16204003676614e-12,-6.86749585076435e-11,1.59980988599401e-10)
(1.33689790527648e-12,-1.26930135388601e-10,1.51656594386584e-10)
(7.01413968756068e-12,-2.35560058935714e-10,1.38708354415696e-10)
(1.22669155155566e-11,-4.11416738770923e-10,1.16122081251599e-10)
(1.72732906111767e-11,-6.88161820452754e-10,8.39970318435036e-11)
(1.98950696807516e-11,-1.07271168519923e-09,4.45533213610864e-11)
(0,0,0)
(0,0,0)
(0,0,0)
(0,0,0)
(0,0,0)
(0,0,0)
(-2.26100847778549e-12,-3.43540680716886e-12,2.69107013433678e-10)
(-3.96871805974002e-12,-8.46155860726292e-12,2.68520697556557e-10)
(-4.74187477374349e-12,-1.68766405302457e-11,2.67089420222314e-10)
(-3.52619258948409e-12,-3.10044313794974e-11,2.64407069859001e-10)
(-1.28225901365627e-12,-5.76065019938611e-11,2.59341281616418e-10)
(3.19315382744129e-12,-1.1149943329659e-10,2.50428848694424e-10)
(7.85379559994027e-12,-2.15405926873822e-10,2.32060865562568e-10)
(1.25129208379378e-11,-3.83309613883999e-10,2.00351584223564e-10)
(1.64207276258547e-11,-6.521379914891e-10,1.49316481001061e-10)
(1.87446442627908e-11,-1.03103585155104e-09,8.09204519035572e-11)
(0,0,0)
(0,0,0)
(0,0,0)
(0,0,0)
(0,0,0)
(0,0,0)
(-1.65242018251653e-12,-2.30111749051241e-12,4.34320612863101e-10)
(-2.91476300541065e-12,-5.76366114583955e-12,4.33713226137529e-10)
(-4.65821552319751e-12,-1.25866325839963e-11,4.32491304642157e-10)
(-4.61657378671632e-12,-2.42002972354664e-11,4.29923496131598e-10)
(-2.04022523796192e-12,-4.76030097311013e-11,4.24353917363507e-10)
(2.29821519422612e-12,-9.52124988429087e-11,4.13186354515431e-10)
(6.83576118782449e-12,-1.85257456543855e-10,3.88964868537563e-10)
(1.13087998478879e-11,-3.34659940197992e-10,3.42143337833104e-10)
(1.42403893264408e-11,-5.85969005909543e-10,2.64456780516279e-10)
(1.53453538694396e-11,-9.51935153279255e-10,1.49618195520832e-10)
(0,0,0)
(0,0,0)
(0,0,0)
(0,0,0)
(0,0,0)
(0,0,0)
(-5.72873951756474e-13,-1.22131004570624e-12,7.09441011624328e-10)
(-1.30107724486662e-12,-3.56434322699191e-12,7.088832891192e-10)
(-3.9575968904267e-12,-8.40099697847573e-12,7.07577395659228e-10)
(-5.13599421683809e-12,-1.68589570848633e-11,7.04439549843209e-10)
(-2.85737409021888e-12,-3.49877132531995e-11,6.97622273396401e-10)
(7.34230489286909e-13,-7.13550775839298e-11,6.82837748961325e-10)
(5.92403029853817e-12,-1.3923244888241e-10,6.50931904596016e-10)
(9.63984868176692e-12,-2.57993339560465e-10,5.88075542262578e-10)
(1.03231380655369e-11,-4.7221765295554e-10,4.75665200258817e-10)
(9.68177960299012e-12,-8.03471502459504e-10,2.85816414437816e-10)
(0,0,0)
(0,0,0)
(0,0,0)
(0,0,0)
(0,0,0)
(0,0,0)
(3.78853201472021e-13,-4.25568693072047e-13,1.09404309866404e-09)
(-2.05697491196917e-13,-1.63525290614057e-12,1.0939206143986e-09)
(-3.40652288908995e-12,-4.09964667726445e-12,1.09279224553222e-09)
(-5.21549885281402e-12,-8.75332584284617e-12,1.08948856428477e-09)
(-3.70150736809519e-12,-1.8794587837781e-11,1.08164979425547e-09)
(-4.96950727688843e-13,-3.85248109536978e-11,1.06384521278046e-09)
(5.21392351772733e-12,-7.60498824551846e-11,1.02637663398236e-09)
(8.13689377951169e-12,-1.45846063806589e-10,9.51116635117602e-10)
(7.7856698641296e-12,-2.83292743730463e-10,8.05043874444414e-10)
(7.93569211330234e-12,-5.19028400627992e-10,5.20442154606124e-10)
(0,0,0)
(0,0,0)
(0,0,0)
(0,0,0)
(0,0,0)
(0,0,0)
(0,0,0)
(0,0,0)
(0,0,0)
(0,0,0)
(0,0,0)
(0,0,0)
(0,0,0)
(0,0,0)
(0,0,0)
(0,0,0)
(0,0,0)
(0,0,0)
(0,0,0)
(0,0,0)
(0,0,0)
(0,0,0)
(0,0,0)
(0,0,0)
(0,0,0)
(0,0,0)
(0,0,0)
(0,0,0)
(0,0,0)
(0,0,0)
(0,0,0)
(0,0,0)
(0,0,0)
(0,0,0)
(0,0,0)
(0,0,0)
(0,0,0)
(0,0,0)
(0,0,0)
(0,0,0)
(0,0,0)
(0,0,0)
(0,0,0)
(0,0,0)
(0,0,0)
(0,0,0)
(0,0,0)
(0,0,0)
(0,0,0)
(0,0,0)
(0,0,0)
(0,0,0)
(0,0,0)
(0,0,0)
(0,0,0)
(0,0,0)
(0,0,0)
(0,0,0)
(0,0,0)
(0,0,0)
(0,0,0)
(0,0,0)
(0,0,0)
(0,0,0)
(0,0,0)
(0,0,0)
(0,0,0)
(0,0,0)
(0,0,0)
(0,0,0)
(0,0,0)
(0,0,0)
(0,0,0)
(0,0,0)
(0,0,0)
(0,0,0)
(0,0,0)
(0,0,0)
(0,0,0)
(0,0,0)
(0,0,0)
(0,0,0)
(0,0,0)
(0,0,0)
(0,0,0)
(0,0,0)
(0,0,0)
(0,0,0)
(0,0,0)
(0,0,0)
(0,0,0)
(0,0,0)
(0,0,0)
(0,0,0)
(0,0,0)
(0,0,0)
(0,0,0)
(0,0,0)
(0,0,0)
(0,0,0)
(0,0,0)
(0,0,0)
(-5.76733486625369e-13,-2.08630120337448e-11,2.54583713852875e-11)
(-9.52553019138266e-13,-4.59594629916457e-11,2.46232169745594e-11)
(-1.15950358664049e-12,-7.81724759973012e-11,2.1828389925816e-11)
(-1.55604439159092e-12,-1.24311770108304e-10,1.78655115995744e-11)
(-1.19255491580573e-12,-1.94667361210949e-10,1.28237611636126e-11)
(3.16461020945817e-13,-3.02208823500038e-10,6.98713675199111e-12)
(2.32550590951291e-12,-4.72464228242717e-10,1.97777965499236e-12)
(4.57284162037353e-12,-7.63355359734486e-10,-2.95674538809938e-13)
(6.25993592774401e-12,-1.31872683251667e-09,-5.19456500656499e-13)
(6.85990507457942e-12,-2.5912903634108e-09,-1.44381305020143e-13)
(0,0,0)
(0,0,0)
(0,0,0)
(0,0,0)
(0,0,0)
(0,0,0)
(-1.81786079799543e-12,-2.02382398555662e-11,5.32101295811074e-11)
(-3.12874710796488e-12,-4.38156149724757e-11,5.14262663199412e-11)
(-3.82260408383978e-12,-7.50459678154744e-11,4.67497243827371e-11)
(-3.8082491484626e-12,-1.20095331113803e-10,3.92485334955496e-11)
(-3.07836714538039e-12,-1.89402749981117e-10,2.91403186051397e-11)
(-3.10846579104475e-13,-2.97654690375172e-10,1.68817550133182e-11)
(3.41233919674079e-12,-4.71092133406387e-10,6.01147632664349e-12)
(8.04680903347004e-12,-7.64216791971795e-10,8.45488004588014e-13)
(1.17791440421069e-11,-1.3203971248259e-09,-2.83010466311096e-13)
(1.36253858625869e-11,-2.59322778111787e-09,-1.63546242141969e-13)
(0,0,0)
(0,0,0)
(0,0,0)
(0,0,0)
(0,0,0)
(0,0,0)
(-2.32308710767156e-12,-1.87246676055469e-11,8.77635789029065e-11)
(-3.77482767422883e-12,-4.01200950364493e-11,8.52895197780765e-11)
(-4.22474086197519e-12,-6.90256703170001e-11,7.9282560780237e-11)
(-4.15483606323074e-12,-1.11405841250507e-10,6.92272985149858e-11)
(-4.08957578123258e-12,-1.78103639521694e-10,5.53006761400551e-11)
(-1.68947459282967e-12,-2.87017448453122e-10,3.72594274254591e-11)
(2.53803259979428e-12,-4.66452692630691e-10,1.95981920933158e-11)
(9.26634644658463e-12,-7.65004258985735e-10,1.10965066452844e-11)
(1.47555099808206e-11,-1.32286119747171e-09,7.10834766639709e-12)
(1.75456747345082e-11,-2.59586226779368e-09,3.55453008648012e-12)
(0,0,0)
(0,0,0)
(0,0,0)
(0,0,0)
(0,0,0)
(0,0,0)
(-2.53677711229968e-12,-1.64166106687005e-11,1.35222890178802e-10)
(-4.14161159074665e-12,-3.4973758797934e-11,1.32198701646015e-10)
(-5.22871054485021e-12,-6.01308273405843e-11,1.2555724784386e-10)
(-5.03427137407766e-12,-9.80563249954686e-11,1.144727365593e-10)
(-4.94077662770985e-12,-1.59938079708292e-10,9.88557799519306e-11)
(-3.07440513685297e-12,-2.67799501927632e-10,7.8025644894935e-11)
(2.33941294028721e-12,-4.55563727100031e-10,5.51323602456525e-11)
(1.17062854314366e-11,-7.63854386636334e-10,4.11108985623629e-11)
(1.79041798396127e-11,-1.32327099752398e-09,2.94589212168109e-11)
(2.07517142188411e-11,-2.59571830218343e-09,1.57840946452846e-11)
(0,0,0)
(0,0,0)
(0,0,0)
(0,0,0)
(0,0,0)
(0,0,0)
(-2.58741592378493e-12,-1.31029819243031e-11,2.03626145422107e-10)
(-4.60635985116956e-12,-2.81188677573698e-11,2.00737283303342e-10)
(-6.09430726771515e-12,-4.86691896021324e-11,1.9524173426983e-10)
(-5.92639634473586e-12,-8.04888625874511e-11,1.85785898478967e-10)
(-5.64121877818957e-12,-1.34630273550146e-10,1.71963722225573e-10)
(-2.93827617555089e-12,-2.36703478973167e-10,1.55605466240977e-10)
(8.48516535400753e-12,-4.30480926750401e-10,1.40910008751294e-10)
(1.57809721362702e-11,-7.55572407070387e-10,1.09800601646921e-10)
(2.05712183850584e-11,-1.31509864728387e-09,7.66419921029783e-11)
(2.30424314414942e-11,-2.58496872956085e-09,4.00892614338442e-11)
(0,0,0)
(0,0,0)
(0,0,0)
(0,0,0)
(0,0,0)
(0,0,0)
(-2.62995720526299e-12,-9.60948742491594e-12,3.08945944279225e-10)
(-4.93313376640071e-12,-2.13168780016922e-11,3.06628777621832e-10)
(-5.96030677446806e-12,-3.74110774427424e-11,3.02142051943967e-10)
(-5.48419164216725e-12,-6.27938026455261e-11,2.951981406082e-10)
(-4.90610233772207e-12,-1.09571085614844e-10,2.84908100324185e-10)
(-1.14556421588975e-12,-2.0754549436354e-10,2.70929682347514e-10)
(9.44628078979853e-12,-4.11340497761088e-10,2.51930049797024e-10)
(1.62848400366299e-11,-7.34274301129949e-10,2.09776243555696e-10)
(2.06931721298712e-11,-1.28686742167512e-09,1.50206319818266e-10)
(2.27725573942653e-11,-2.55116021501666e-09,7.87958906770504e-11)
(0,0,0)
(0,0,0)
(0,0,0)
(0,0,0)
(0,0,0)
(0,0,0)
(-2.80898191732237e-12,-6.57558350361887e-12,4.74417667218608e-10)
(-5.23533818691841e-12,-1.50895667135052e-11,4.73289873440678e-10)
(-6.34953235667549e-12,-2.73265739768631e-11,4.70330384730137e-10)
(-5.26453849093888e-12,-4.71600689464775e-11,4.66063262372298e-10)
(-2.37331835439244e-12,-8.63762163990563e-11,4.59891724590479e-10)
(5.27420250563706e-12,-1.74735130454187e-10,4.48270568877179e-10)
(9.41460660896771e-12,-3.76617205200504e-10,4.13827314091043e-10)
(1.48983503743038e-11,-6.85078751491596e-10,3.62596154846708e-10)
(1.86477711438086e-11,-1.22287988706559e-09,2.66903738441381e-10)
(2.05643978948938e-11,-2.47743865218557e-09,1.43041572805363e-10)
(0,0,0)
(0,0,0)
(0,0,0)
(0,0,0)
(0,0,0)
(0,0,0)
(-2.12484090174979e-12,-4.73271828102378e-12,7.59646802526044e-10)
(-3.89215942888595e-12,-1.05744396735875e-11,7.58840740437352e-10)
(-6.27604261815509e-12,-1.98198583454246e-11,7.56958748741102e-10)
(-6.38833516923431e-12,-3.68166373844577e-11,7.5364720713091e-10)
(-3.48795886781457e-12,-7.37132616820231e-11,7.4724918766803e-10)
(2.66227991314517e-12,-1.55838529117372e-10,7.3318266097603e-10)
(7.63228423087888e-12,-3.26283528719116e-10,6.95385410102323e-10)
(1.23287565270474e-11,-5.94222631411781e-10,6.11137239559464e-10)
(1.53276213680258e-11,-1.10346407912281e-09,4.70014732912489e-10)
(1.64998985701522e-11,-2.33713458686521e-09,2.66546512688067e-10)
(0,0,0)
(0,0,0)
(0,0,0)
(0,0,0)
(0,0,0)
(0,0,0)
(-8.1089279926242e-13,-3.17277022197696e-12,1.309791728005e-09)
(-1.92427410574535e-12,-7.14181153886828e-12,1.30919804516151e-09)
(-5.12110137561581e-12,-1.36880586467817e-11,1.30755381456737e-09)
(-6.42434901203845e-12,-2.68991780025847e-11,1.30332383385243e-09)
(-4.26597507055009e-12,-5.70154914315761e-11,1.29371802573995e-09)
(-1.90191775651573e-13,-1.20276883112233e-10,1.2716378314189e-09)
(5.59782620476564e-12,-2.42866245905187e-10,1.21905005652761e-09)
(9.90291493164063e-12,-4.55685707743323e-10,1.10844422368137e-09)
(1.12470146614586e-11,-9.02876730985972e-10,9.10169943557824e-10)
(1.10550922090633e-11,-2.07280010261421e-09,5.68255250175968e-10)
(0,0,0)
(0,0,0)
(0,0,0)
(0,0,0)
(0,0,0)
(0,0,0)
(7.57687738377166e-14,-1.76992001328003e-12,2.57853397760273e-09)
(-7.12581530962111e-13,-3.74826171484582e-12,2.57819614136968e-09)
(-4.20248831889995e-12,-7.02408314525375e-12,2.57667811714217e-09)
(-6.13005466636686e-12,-1.45090906695768e-11,2.57188206086098e-09)
(-4.69151373086983e-12,-3.17207088864291e-11,2.56009751477981e-09)
(-1.55318288329785e-12,-6.61517812349567e-11,2.53194905967123e-09)
(4.42403992726838e-12,-1.3219979862149e-10,2.46811658441303e-09)
(8.36359064614809e-12,-2.58988798737815e-10,2.33652839244409e-09)
(9.0946459719533e-12,-5.63535569575734e-10,2.07638260137455e-09)
(9.3494460915433e-12,-1.50735160306109e-09,1.51021652343156e-09)
(0,0,0)
(0,0,0)
(0,0,0)
(0,0,0)
(0,0,0)
(0,0,0)
(0,0,0)
(0,0,0)
(0,0,0)
(0,0,0)
(0,0,0)
(0,0,0)
(0,0,0)
(0,0,0)
(0,0,0)
(0,0,0)
(0,0,0)
(0,0,0)
(0,0,0)
(0,0,0)
(0,0,0)
(0,0,0)
(0,0,0)
(0,0,0)
(0,0,0)
(0,0,0)
(0,0,0)
(0,0,0)
(0,0,0)
(0,0,0)
(0,0,0)
(0,0,0)
(0,0,0)
(0,0,0)
(0,0,0)
(0,0,0)
(0,0,0)
(0,0,0)
(0,0,0)
(0,0,0)
(0,0,0)
(0,0,0)
(0,0,0)
(0,0,0)
(0,0,0)
(0,0,0)
(0,0,0)
(0,0,0)
(0,0,0)
(0,0,0)
(0,0,0)
(0,0,0)
(0,0,0)
(0,0,0)
(0,0,0)
(0,0,0)
(0,0,0)
(0,0,0)
(0,0,0)
(0,0,0)
(0,0,0)
(0,0,0)
(0,0,0)
(0,0,0)
(0,0,0)
(0,0,0)
(0,0,0)
(0,0,0)
(0,0,0)
(0,0,0)
(0,0,0)
(0,0,0)
(0,0,0)
(0,0,0)
(0,0,0)
(0,0,0)
(0,0,0)
(0,0,0)
(0,0,0)
(0,0,0)
(0,0,0)
(0,0,0)
(0,0,0)
(0,0,0)
(0,0,0)
(0,0,0)
(0,0,0)
(0,0,0)
(0,0,0)
(0,0,0)
(0,0,0)
(0,0,0)
(0,0,0)
(0,0,0)
(0,0,0)
(0,0,0)
(0,0,0)
(0,0,0)
(0,0,0)
(0,0,0)
(0,0,0)
(0,0,0)
(-3.6635125441952e-13,-2.80561471629991e-11,3.38650041394484e-11)
(-3.01573989927689e-13,-6.20073546897815e-11,3.24242661323933e-11)
(-3.23133441218137e-13,-1.05766413392495e-10,2.84987940764041e-11)
(-7.30732950551234e-13,-1.65790352801348e-10,2.28999303293833e-11)
(-6.2054173377992e-13,-2.52175964055325e-10,1.52105157444504e-11)
(7.71684993237812e-13,-3.77342808095127e-10,5.24870742756975e-12)
(3.2268652663302e-12,-5.59815938430221e-10,-3.52194819767012e-12)
(5.65805581931999e-12,-8.26322706759272e-10,-6.05616838175439e-12)
(7.5551530417429e-12,-1.20603095424603e-09,-4.29527060875957e-12)
(8.65294147579215e-12,-1.66771343602993e-09,-1.90882422397805e-12)
(0,0,0)
(0,0,0)
(0,0,0)
(0,0,0)
(0,0,0)
(0,0,0)
(-1.54756978705141e-12,-2.71184038781677e-11,7.0813857220084e-11)
(-2.14772510692512e-12,-5.87977803929048e-11,6.75468312943246e-11)
(-2.34171069679897e-12,-1.00688988024749e-10,6.07929204893586e-11)
(-2.38952412077698e-12,-1.58653370607158e-10,5.02564915229367e-11)
(-2.11891401253716e-12,-2.43114014468563e-10,3.44925311235614e-11)
(-7.78098147465595e-14,-3.69876126336993e-10,1.31322417950351e-11)
(3.93888674273078e-12,-5.58923164446791e-10,-7.39463619360206e-12)
(9.96277451896111e-12,-8.29812201501977e-10,-1.24148400442065e-11)
(1.41237524641514e-11,-1.21037027713543e-09,-8.49682824119033e-12)
(1.60963262965266e-11,-1.6719005556075e-09,-3.66086816074792e-12)
(0,0,0)
(0,0,0)
(0,0,0)
(0,0,0)
(0,0,0)
(0,0,0)
(-2.15708492137676e-12,-2.46059354548186e-11,1.15518751606705e-10)
(-2.91420491396895e-12,-5.30724499060755e-11,1.1161427659045e-10)
(-3.06432157273509e-12,-9.11384267209828e-11,1.03068110593591e-10)
(-3.57772994381932e-12,-1.44182512651835e-10,8.81838928083488e-11)
(-4.21388688036912e-12,-2.23738378905619e-10,6.48896497537102e-11)
(-3.24618578594485e-12,-3.51830800533525e-10,3.07331527654358e-11)
(1.50752517098485e-13,-5.5630365850184e-10,-7.74340604659541e-12)
(1.21046330759329e-11,-8.3767920001915e-10,-1.22095498452004e-11)
(1.87191276140564e-11,-1.21921469954146e-09,-5.47835944475694e-12)
(2.09562392100252e-11,-1.67937087112465e-09,-1.20579066313317e-12)
(0,0,0)
(0,0,0)
(0,0,0)
(0,0,0)
(0,0,0)
(0,0,0)
(-2.82621732437926e-12,-2.12261772465514e-11,1.7685405651013e-10)
(-4.35504882823647e-12,-4.51879427678413e-11,1.72796566845929e-10)
(-5.60583699958611e-12,-7.66369161734707e-11,1.63286785867062e-10)
(-6.98477717572312e-12,-1.21171151921922e-10,1.46347643936398e-10)
(-9.41844772863881e-12,-1.90650420859876e-10,1.19096843590162e-10)
(-1.1277143441093e-11,-3.14258039251386e-10,7.58339343925918e-11)
(-8.72192572583962e-12,-5.47098308839643e-10,1.61433341696588e-11)
(1.50762832107399e-11,-8.51556473051088e-10,1.51974168457279e-11)
(2.340665617189e-11,-1.23084944032222e-09,1.84896608434643e-11)
(2.57862362402409e-11,-1.68657196632767e-09,1.2282414806962e-11)
(0,0,0)
(0,0,0)
(0,0,0)
(0,0,0)
(0,0,0)
(0,0,0)
(-3.19204830507659e-12,-1.68966107839638e-11,2.62004665392542e-10)
(-5.91280057247511e-12,-3.5106673433848e-11,2.58196401681213e-10)
(-7.8965836376814e-12,-5.87142299404619e-11,2.49873224417083e-10)
(-9.79928003312357e-12,-9.16292223452394e-11,2.35510290417386e-10)
(-1.43421507273429e-11,-1.43081313866251e-10,2.13050103725819e-10)
(-1.74008032965097e-11,-2.41309143827264e-10,1.85857112744504e-10)
(2.04541434679949e-11,-4.77478000109998e-10,1.96565257828186e-10)
(2.7641475739551e-11,-8.64610368455842e-10,1.27748032320505e-10)
(2.88927234471387e-11,-1.23577419323619e-09,8.64159319498533e-11)
(2.9323178330732e-11,-1.68212680336278e-09,4.53488303067928e-11)
(0,0,0)
(0,0,0)
(0,0,0)
(0,0,0)
(0,0,0)
(0,0,0)
(-3.34669446893229e-12,-1.2250890680706e-11,3.84433049509966e-10)
(-6.67371937702297e-12,-2.52325617153842e-11,3.81653940127463e-10)
(-9.10089890436087e-12,-4.15060280286368e-11,3.7568399149673e-10)
(-1.08278850560135e-11,-6.27018525150296e-11,3.66042573707657e-10)
(-1.41225535775917e-11,-9.87941813072036e-11,3.51979403681648e-10)
(-1.49562955751284e-11,-1.88762469442621e-10,3.33697032109169e-10)
(1.68767944716582e-11,-4.84631516108189e-10,3.36450407149549e-10)
(2.66592141347793e-11,-8.549087562949e-10,2.66424600910854e-10)
(2.81160666621066e-11,-1.20941302203891e-09,1.8509177179337e-10)
(2.78468852397163e-11,-1.64530927351673e-09,9.55761585584657e-11)
(0,0,0)
(0,0,0)
(0,0,0)
(0,0,0)
(0,0,0)
(0,0,0)
(-3.52405336029335e-12,-8.15685855933903e-12,5.60810730791491e-10)
(-6.79097651825743e-12,-1.68987691725328e-11,5.59610602888752e-10)
(-9.58912562998274e-12,-2.71037222969919e-11,5.56522149652633e-10)
(-9.43643227109048e-12,-3.88147397688432e-11,5.53129555628866e-10)
(-3.41511735808006e-12,-5.71268756440165e-11,5.53961543867338e-10)
(2.08208559555142e-11,-1.12629249896638e-10,5.60812996607098e-10)
(1.03120893715711e-11,-4.47537183904859e-10,4.90110451437117e-10)
(1.97346466989352e-11,-7.98139886419185e-10,4.71058929966037e-10)
(2.30941288377041e-11,-1.13152513504121e-09,3.26805688522451e-10)
(2.33019053796513e-11,-1.55636309831988e-09,1.68117141753107e-10)
(0,0,0)
(0,0,0)
(0,0,0)
(0,0,0)
(0,0,0)
(0,0,0)
(-2.87872687120995e-12,-5.42944717460827e-12,8.19134179342841e-10)
(-5.44279586713949e-12,-1.12975319006393e-11,8.18780698622563e-10)
(-9.09630070744463e-12,-1.87695975793501e-11,8.17393877088806e-10)
(-9.90777508732801e-12,-3.09243104872438e-11,8.16102229880676e-10)
(-6.1192024269791e-12,-5.92354384043079e-11,8.17882777591621e-10)
(4.89788478192529e-12,-1.45925532270576e-10,8.23024481484059e-10)
(8.46317195936508e-12,-4.04916733876706e-10,8.04300680303651e-10)
(1.49143395050324e-11,-6.6012194207917e-10,6.85251477404634e-10)
(1.82084934554911e-11,-9.78236654016787e-10,4.9916306410289e-10)
(1.87119270079777e-11,-1.39215636449172e-09,2.69169729901059e-10)
(0,0,0)
(0,0,0)
(0,0,0)
(0,0,0)
(0,0,0)
(0,0,0)
(-1.62006016509084e-12,-3.51084126285072e-12,1.19189599570446e-09)
(-3.67359333605382e-12,-7.40158764789677e-12,1.19200210822869e-09)
(-7.55509616095818e-12,-1.3315834650799e-11,1.19068399417207e-09)
(-9.20862823304309e-12,-2.53205783118941e-11,1.18773698746652e-09)
(-7.48056329412529e-12,-5.46740811627628e-11,1.18231195060217e-09)
(-1.72751876171615e-12,-1.28239372215754e-10,1.16787425335977e-09)
(5.53721176768467e-12,-2.84739033867027e-10,1.11816745017607e-09)
(1.14802860481661e-11,-4.77269489680806e-10,9.82600910399665e-10)
(1.38205466343222e-11,-7.51129334525953e-10,7.60165307039989e-10)
(1.38618428315433e-11,-1.12583886490065e-09,4.36436730914959e-10)
(0,0,0)
(0,0,0)
(0,0,0)
(0,0,0)
(0,0,0)
(0,0,0)
(-1.35631500759599e-12,-1.93949626601022e-12,1.64905635655343e-09)
(-2.94281901814475e-12,-3.75676890135545e-12,1.64909760734261e-09)
(-6.43051518287521e-12,-7.13802037818084e-12,1.64774866028336e-09)
(-8.85459925452874e-12,-1.47944775360967e-11,1.64364393525714e-09)
(-8.2637675085471e-12,-3.2862199255427e-11,1.63313659324888e-09)
(-3.87248886099427e-12,-7.31336345907452e-11,1.60607447009832e-09)