/*--------------------------------*- C++ -*----------------------------------*\
| =========                 |                                                 |
| \\      /  F ield         | foam-extend: Open Source CFD                    |
|  \\    /   O peration     | Version:     4.0                                |
|   \\  /    A nd           | Web:         http://www.foam-extend.org         |
|    \\/     M anipulation  |                                                 |
\*---------------------------------------------------------------------------*/
FoamFile
{
    version 2.0;
    format ascii;
    class volVectorField;
    location "2922";
    object      E;
}
// * * * * * * * * * * * * * * * * * * * * * * * * * * * * * * * * * * * * * //

dimensions      [0 1 -1 0 0 0 0];

internalField   nonuniform List<vector>
4096
(
(0,0,0)
(0,0,0)
(0,0,0)
(0,0,0)
(0,0,0)
(0,0,0)
(0,0,0)
(0,0,0)
(0,0,0)
(0,0,0)
(0,0,0)
(0,0,0)
(0,0,0)
(0,0,0)
(0,0,0)
(0,0,0)
(0,0,0)
(0,0,0)
(0,0,0)
(0,0,0)
(0,0,0)
(0,0,0)
(0,0,0)
(0,0,0)
(0,0,0)
(0,0,0)
(0,0,0)
(0,0,0)
(0,0,0)
(0,0,0)
(0,0,0)
(0,0,0)
(0,0,0)
(0,0,0)
(0,0,0)
(0,0,0)
(0,0,0)
(0,0,0)
(0,0,0)
(0,0,0)
(0,0,0)
(0,0,0)
(0,0,0)
(0,0,0)
(0,0,0)
(0,0,0)
(0,0,0)
(0,0,0)
(0,0,0)
(0,0,0)
(0,0,0)
(0,0,0)
(0,0,0)
(0,0,0)
(0,0,0)
(0,0,0)
(0,0,0)
(0,0,0)
(0,0,0)
(0,0,0)
(0,0,0)
(0,0,0)
(0,0,0)
(0,0,0)
(0,0,0)
(0,0,0)
(0,0,0)
(0,0,0)
(0,0,0)
(0,0,0)
(0,0,0)
(0,0,0)
(0,0,0)
(0,0,0)
(0,0,0)
(0,0,0)
(0,0,0)
(0,0,0)
(0,0,0)
(0,0,0)
(0,0,0)
(0,0,0)
(0,0,0)
(0,0,0)
(0,0,0)
(0,0,0)
(0,0,0)
(0,0,0)
(0,0,0)
(0,0,0)
(0,0,0)
(0,0,0)
(0,0,0)
(0,0,0)
(0,0,0)
(0,0,0)
(0,0,0)
(0,0,0)
(0,0,0)
(0,0,0)
(0,0,0)
(0,0,0)
(0,0,0)
(0,0,0)
(0,0,0)
(0,0,0)
(0,0,0)
(0,0,0)
(0,0,0)
(0,0,0)
(0,0,0)
(0,0,0)
(0,0,0)
(0,0,0)
(0,0,0)
(0,0,0)
(0,0,0)
(0,0,0)
(0,0,0)
(0,0,0)
(0,0,0)
(0,0,0)
(0,0,0)
(0,0,0)
(0,0,0)
(0,0,0)
(0,0,0)
(0,0,0)
(0,0,0)
(0,0,0)
(0,0,0)
(0,0,0)
(0,0,0)
(0,0,0)
(0,0,0)
(0,0,0)
(0,0,0)
(0,0,0)
(0,0,0)
(0,0,0)
(0,0,0)
(0,0,0)
(0,0,0)
(0,0,0)
(0,0,0)
(0,0,0)
(0,0,0)
(0,0,0)
(0,0,0)
(0,0,0)
(0,0,0)
(0,0,0)
(0,0,0)
(0,0,0)
(0,0,0)
(0,0,0)
(0,0,0)
(0,0,0)
(0,0,0)
(0,0,0)
(0,0,0)
(0,0,0)
(0,0,0)
(0,0,0)
(0,0,0)
(0,0,0)
(0,0,0)
(0,0,0)
(0,0,0)
(0,0,0)
(0,0,0)
(0,0,0)
(0,0,0)
(0,0,0)
(0,0,0)
(0,0,0)
(0,0,0)
(0,0,0)
(0,0,0)
(0,0,0)
(0,0,0)
(0,0,0)
(0,0,0)
(0,0,0)
(0,0,0)
(0,0,0)
(0,0,0)
(0,0,0)
(0,0,0)
(0,0,0)
(0,0,0)
(0,0,0)
(0,0,0)
(0,0,0)
(0,0,0)
(0,0,0)
(0,0,0)
(0,0,0)
(0,0,0)
(0,0,0)
(0,0,0)
(0,0,0)
(0,0,0)
(0,0,0)
(0,0,0)
(0,0,0)
(0,0,0)
(0,0,0)
(0,0,0)
(0,0,0)
(0,0,0)
(0,0,0)
(0,0,0)
(0,0,0)
(0,0,0)
(0,0,0)
(0,0,0)
(0,0,0)
(0,0,0)
(0,0,0)
(0,0,0)
(0,0,0)
(0,0,0)
(0,0,0)
(0,0,0)
(0,0,0)
(0,0,0)
(0,0,0)
(0,0,0)
(0,0,0)
(0,0,0)
(0,0,0)
(0,0,0)
(0,0,0)
(0,0,0)
(0,0,0)
(0,0,0)
(0,0,0)
(0,0,0)
(0,0,0)
(0,0,0)
(0,0,0)
(0,0,0)
(0,0,0)
(0,0,0)
(0,0,0)
(0,0,0)
(0,0,0)
(0,0,0)
(0,0,0)
(0,0,0)
(0,0,0)
(0,0,0)
(0,0,0)
(0,0,0)
(0,0,0)
(0,0,0)
(0,0,0)
(0,0,0)
(0,0,0)
(0,0,0)
(0,0,0)
(0,0,0)
(0,0,0)
(0,0,0)
(0,0,0)
(0,0,0)
(0,0,0)
(0,0,0)
(0,0,0)
(0,0,0)
(0,0,0)
(0,0,0)
(0,0,0)
(0,0,0)
(0,0,0)
(0,0,0)
(0,0,0)
(0,0,0)
(0,0,0)
(0,0,0)
(0,0,0)
(0,0,0)
(0,0,0)
(0,0,0)
(0,0,0)
(0,0,0)
(0,0,0)
(0,0,0)
(0,0,0)
(0,0,0)
(0,0,0)
(0,0,0)
(0,0,0)
(0,0,0)
(0,0,0)
(0,0,0)
(0,0,0)
(0,0,0)
(0,0,0)
(0,0,0)
(0,0,0)
(0,0,0)
(0,0,0)
(0,0,0)
(0,0,0)
(0,0,0)
(0,0,0)
(0,0,0)
(0,0,0)
(0,0,0)
(0,0,0)
(0,0,0)
(0,0,0)
(0,0,0)
(0,0,0)
(0,0,0)
(0,0,0)
(0,0,0)
(0,0,0)
(0,0,0)
(0,0,0)
(0,0,0)
(0,0,0)
(0,0,0)
(0,0,0)
(0,0,0)
(0,0,0)
(0,0,0)
(0,0,0)
(0,0,0)
(0,0,0)
(0,0,0)
(0,0,0)
(0,0,0)
(0,0,0)
(0,0,0)
(0,0,0)
(0,0,0)
(0,0,0)
(0,0,0)
(0,0,0)
(0,0,0)
(0,0,0)
(0,0,0)
(0,0,0)
(0,0,0)
(0,0,0)
(0,0,0)
(0,0,0)
(0,0,0)
(0,0,0)
(0,0,0)
(0,0,0)
(0,0,0)
(0,0,0)
(0,0,0)
(0,0,0)
(0,0,0)
(0,0,0)
(0,0,0)
(0,0,0)
(0,0,0)
(0,0,0)
(0,0,0)
(0,0,0)
(0,0,0)
(0,0,0)
(0,0,0)
(0,0,0)
(0,0,0)
(0,0,0)
(0,0,0)
(0,0,0)
(0,0,0)
(0,0,0)
(0,0,0)
(0,0,0)
(0,0,0)
(0,0,0)
(0,0,0)
(0,0,0)
(0,0,0)
(0,0,0)
(0,0,0)
(0,0,0)
(0,0,0)
(0,0,0)
(0,0,0)
(0,0,0)
(0,0,0)
(0,0,0)
(0,0,0)
(0,0,0)
(0,0,0)
(0,0,0)
(0,0,0)
(0,0,0)
(0,0,0)
(0,0,0)
(0,0,0)
(0,0,0)
(0,0,0)
(0,0,0)
(0,0,0)
(0,0,0)
(0,0,0)
(0,0,0)
(0,0,0)
(0,0,0)
(0,0,0)
(0,0,0)
(0,0,0)
(0,0,0)
(0,0,0)
(0,0,0)
(0,0,0)
(0,0,0)
(0,0,0)
(0,0,0)
(0,0,0)
(0,0,0)
(0,0,0)
(0,0,0)
(0,0,0)
(0,0,0)
(0,0,0)
(0,0,0)
(0,0,0)
(0,0,0)
(0,0,0)
(0,0,0)
(0,0,0)
(0,0,0)
(0,0,0)
(0,0,0)
(0,0,0)
(0,0,0)
(0,0,0)
(0,0,0)
(0,0,0)
(0,0,0)
(0,0,0)
(0,0,0)
(0,0,0)
(0,0,0)
(0,0,0)
(0,0,0)
(0,0,0)
(0,0,0)
(0,0,0)
(0,0,0)
(0,0,0)
(0,0,0)
(0,0,0)
(0,0,0)
(0,0,0)
(0,0,0)
(0,0,0)
(0,0,0)
(0,0,0)
(0,0,0)
(0,0,0)
(0,0,0)
(0,0,0)
(0,0,0)
(0,0,0)
(0,0,0)
(0,0,0)
(0,0,0)
(0,0,0)
(0,0,0)
(0,0,0)
(0,0,0)
(0,0,0)
(0,0,0)
(0,0,0)
(0,0,0)
(0,0,0)
(0,0,0)
(0,0,0)
(0,0,0)
(0,0,0)
(0,0,0)
(0,0,0)
(0,0,0)
(0,0,0)
(0,0,0)
(0,0,0)
(0,0,0)
(0,0,0)
(0,0,0)
(0,0,0)
(0,0,0)
(0,0,0)
(0,0,0)
(0,0,0)
(0,0,0)
(0,0,0)
(0,0,0)
(0,0,0)
(0,0,0)
(0,0,0)
(0,0,0)
(0,0,0)
(0,0,0)
(0,0,0)
(0,0,0)
(0,0,0)
(0,0,0)
(0,0,0)
(0,0,0)
(0,0,0)
(0,0,0)
(0,0,0)
(0,0,0)
(0,0,0)
(0,0,0)
(0,0,0)
(0,0,0)
(0,0,0)
(0,0,0)
(0,0,0)
(0,0,0)
(0,0,0)
(0,0,0)
(0,0,0)
(0,0,0)
(0,0,0)
(0,0,0)
(0,0,0)
(0,0,0)
(0,0,0)
(0,0,0)
(0,0,0)
(0,0,0)
(0,0,0)
(0,0,0)
(0,0,0)
(0,0,0)
(0,0,0)
(0,0,0)
(0,0,0)
(0,0,0)
(0,0,0)
(0,0,0)
(0,0,0)
(0,0,0)
(0,0,0)
(0,0,0)
(0,0,0)
(0,0,0)
(0,0,0)
(0,0,0)
(0,0,0)
(0,0,0)
(0,0,0)
(0,0,0)
(0,0,0)
(0,0,0)
(0,0,0)
(0,0,0)
(0,0,0)
(0,0,0)
(0,0,0)
(0,0,0)
(0,0,0)
(0,0,0)
(0,0,0)
(0,0,0)
(0,0,0)
(0,0,0)
(0,0,0)
(0,0,0)
(0,0,0)
(0,0,0)
(0,0,0)
(0,0,0)
(0,0,0)
(0,0,0)
(0,0,0)
(0,0,0)
(0,0,0)
(0,0,0)
(0,0,0)
(0,0,0)
(0,0,0)
(0,0,0)
(0,0,0)
(0,0,0)
(0,0,0)
(0,0,0)
(0,0,0)
(0,0,0)
(0,0,0)
(0,0,0)
(0,0,0)
(0,0,0)
(0,0,0)
(0,0,0)
(0,0,0)
(0,0,0)
(0,0,0)
(0,0,0)
(0,0,0)
(0,0,0)
(0,0,0)
(0,0,0)
(0,0,0)
(0,0,0)
(0,0,0)
(0,0,0)
(0,0,0)
(0,0,0)
(0,0,0)
(0,0,0)
(0,0,0)
(0,0,0)
(0,0,0)
(0,0,0)
(0,0,0)
(0,0,0)
(0,0,0)
(0,0,0)
(0,0,0)
(0,0,0)
(0,0,0)
(0,0,0)
(0,0,0)
(0,0,0)
(0,0,0)
(0,0,0)
(0,0,0)
(0,0,0)
(0,0,0)
(0,0,0)
(0,0,0)
(0,0,0)
(0,0,0)
(0,0,0)
(0,0,0)
(0,0,0)
(0,0,0)
(0,0,0)
(0,0,0)
(0,0,0)
(0,0,0)
(0,0,0)
(0,0,0)
(0,0,0)
(0,0,0)
(0,0,0)
(0,0,0)
(0,0,0)
(0,0,0)
(0,0,0)
(0,0,0)
(0,0,0)
(0,0,0)
(0,0,0)
(0,0,0)
(0,0,0)
(0,0,0)
(0,0,0)
(0,0,0)
(0,0,0)
(0,0,0)
(0,0,0)
(0,0,0)
(0,0,0)
(0,0,0)
(0,0,0)
(0,0,0)
(0,0,0)
(0,0,0)
(0,0,0)
(0,0,0)
(0,0,0)
(0,0,0)
(0,0,0)
(0,0,0)
(0,0,0)
(0,0,0)
(0,0,0)
(0,0,0)
(0,0,0)
(0,0,0)
(0,0,0)
(0,0,0)
(0,0,0)
(0,0,0)
(0,0,0)
(0,0,0)
(0,0,0)
(0,0,0)
(0,0,0)
(0,0,0)
(0,0,0)
(0,0,0)
(0,0,0)
(0,0,0)
(0,0,0)
(0,0,0)
(0,0,0)
(0,0,0)
(0,0,0)
(0,0,0)
(0,0,0)
(0,0,0)
(0,0,0)
(0,0,0)
(0,0,0)
(0,0,0)
(0,0,0)
(0,0,0)
(0,0,0)
(0,0,0)
(0,0,0)
(0,0,0)
(0,0,0)
(0,0,0)
(0,0,0)
(0,0,0)
(0,0,0)
(0,0,0)
(0,0,0)
(0,0,0)
(0,0,0)
(0,0,0)
(0,0,0)
(0,0,0)
(0,0,0)
(0,0,0)
(0,0,0)
(0,0,0)
(0,0,0)
(0,0,0)
(0,0,0)
(0,0,0)
(0,0,0)
(0,0,0)
(0,0,0)
(0,0,0)
(0,0,0)
(0,0,0)
(0,0,0)
(0,0,0)
(0,0,0)
(0,0,0)
(0,0,0)
(0,0,0)
(0,0,0)
(0,0,0)
(0,0,0)
(0,0,0)
(0,0,0)
(0,0,0)
(0,0,0)
(0,0,0)
(0,0,0)
(0,0,0)
(0,0,0)
(0,0,0)
(0,0,0)
(0,0,0)
(0,0,0)
(0,0,0)
(0,0,0)
(0,0,0)
(0,0,0)
(0,0,0)
(0,0,0)
(0,0,0)
(0,0,0)
(0,0,0)
(0,0,0)
(0,0,0)
(0,0,0)
(0,0,0)
(0,0,0)
(0,0,0)
(0,0,0)
(0,0,0)
(0,0,0)
(0,0,0)
(0,0,0)
(0,0,0)
(0,0,0)
(0,0,0)
(0,0,0)
(0,0,0)
(0,0,0)
(0,0,0)
(0,0,0)
(0,0,0)
(0,0,0)
(0,0,0)
(0,0,0)
(0,0,0)
(0,0,0)
(0,0,0)
(0,0,0)
(0,0,0)
(0,0,0)
(0,0,0)
(0,0,0)
(0,0,0)
(0,0,0)
(0,0,0)
(0,0,0)
(0,0,0)
(0,0,0)
(0,0,0)
(0,0,0)
(0,0,0)
(0,0,0)
(0,0,0)
(0,0,0)
(0,0,0)
(-66891.0935821224,35535.2247283341,31355.8688537873)
(-70777.1039585274,34028.6549159016,68104.3178964123)
(-79662.134445626,30921.0941446405,116845.358197394)
(-96507.7833411419,26063.0572991014,187290.084239446)
(-127012.735485676,19565.5055937578,294737.314131363)
(-181800.399607964,12130.6834924051,464407.030246928)
(-280958.259639144,5361.3807927107,740003.909093383)
(-460132.822339376,1220.53539871823,1198916.19603405)
(-759078.934752857,-120.04834146872,1958115.17912834)
(-1057778.70386995,-168.186899766204,3016062.06989814)
(0,0,0)
(0,0,0)
(0,0,0)
(0,0,0)
(0,0,0)
(0,0,0)
(-70786.0144599274,76391.8154870956,29929.4237011642)
(-74682.6398593534,73569.8801081066,65070.8383683152)
(-83721.8341175065,67689.109156174,112024.657474285)
(-100976.431999865,58295.6416175729,180768.50515568)
(-132311.659303015,45413.5589584049,287232.111094045)
(-188410.79715896,30158.7492893156,457614.842456083)
(-288651.859243535,15769.2717608166,735858.810731504)
(-467154.036938283,6723.60344600342,1197509.77962246)
(-763770.761994058,3213.5603293929,1957946.93294571)
(-1059977.32391806,1636.3060551501,3016119.76390875)
(0,0,0)
(0,0,0)
(0,0,0)
(0,0,0)
(0,0,0)
(0,0,0)
(-79616.2758215248,128839.476184689,27168.6151239319)
(-83573.8486750202,125061.639943858,59250.7039632045)
(-92924.5482519518,117113.84716492,102750.514206416)
(-111076.205023595,104184.616313388,167937.744534197)
(-144433.779833494,85850.9432288928,271934.140097191)
(-204004.108790412,62989.1514839444,443107.846692977)
(-307659.292922761,39921.1886718948,726615.222704673)
(-484644.013464657,24174.3124198397,1193808.52719543)
(-775035.792527234,15908.4869612404,1956149.39309089)
(-1065078.27955179,8629.71663973248,3014234.26205809)
(0,0,0)
(0,0,0)
(0,0,0)
(0,0,0)
(0,0,0)
(0,0,0)
(-96126.8259583631,201521.783136444,23444.5190066082)
(-100140.675414909,197290.086522707,51356.7478426693)
(-109847.23578847,188376.830938798,89940.999857253)
(-129266.030838944,173715.817317433,149675.829692144)
(-165940.246762801,152358.049948803,249108.969735046)
(-232182.680225978,124330.604016142,419950.197428819)
(-344049.678079593,93252.2733723799,710668.790807923)
(-518462.407081614,67967.1199463457,1185338.39036301)
(-795663.322249048,48316.8462866044,1948593.35328663)
(-1074073.68279268,26020.8386552949,3005275.91406392)
(0,0,0)
(0,0,0)
(0,0,0)
(0,0,0)
(0,0,0)
(0,0,0)
(-125707.781496554,307879.250116674,19350.314516319)
(-129710.940050281,303771.409631861,42579.9314574451)
(-139621.923750832,295125.190051858,75453.4960952161)
(-160092.754175164,280864.504469022,128397.563118792)
(-200156.661525016,259823.117520933,221089.157071678)
(-274644.838578352,231254.322834668,388810.276831483)
(-399451.844101218,196309.821669641,685204.572635439)
(-569976.893470765,157720.927199492,1165427.6588531)
(-825663.916087707,113418.625837271,1925989.79539025)
(-1087087.73245216,60149.2129168452,2978949.15358084)
(0,0,0)
(0,0,0)
(0,0,0)
(0,0,0)
(0,0,0)
(0,0,0)
(-179107.456074212,471613.378928871,15373.3272620211)
(-182913.003980528,467999.467392172,34058.2734822305)
(-192506.811170126,460313.051683992,61377.2230202256)
(-212769.620998071,447511.213741563,107500.134745746)
(-253225.383902457,427955.299064587,192593.337104557)
(-329101.417908517,399147.451267222,353801.62658053)
(-454287.732807481,357978.641824996,646420.539232649)
(-617098.268548848,300397.063457001,1120842.671524)
(-858160.976923291,220021.484643434,1872400.78964118)
(-1103467.40190678,117497.416618282,2918519.98784646)
(0,0,0)
(0,0,0)
(0,0,0)
(0,0,0)
(0,0,0)
(0,0,0)
(-277126.545131617,736950.807356979,11789.1167035014)
(-280489.687405526,733860.877141423,26417.3943597838)
(-289098.752822754,727180.964562689,48648.2343038421)
(-307598.203894941,715779.349765268,87978.3021750777)
(-345162.892703342,697281.652731389,163814.841211617)
(-416435.314100433,666872.133925772,312525.47265351)
(-533898.301804043,615786.907740578,588615.508541986)
(-681945.643298177,530693.6002915,1040264.61500566)
(-906573.406247924,397165.195628636,1769694.31026832)
(-1130176.92813189,216444.874763567,2800923.78025503)
(0,0,0)
(0,0,0)
(0,0,0)
(0,0,0)
(0,0,0)
(0,0,0)
(-456436.174600839,1184727.03104819,8659.95090962977)
(-459101.577776386,1181904.71481715,19717.6910103031)
(-466023.296216948,1175708.33973272,37213.6120572407)
(-481046.890943736,1164632.14259492,69407.7101713089)
(-511909.419418166,1145262.0804405,133336.701880367)
(-571138.046050773,1110081.1912626,261265.690594297)
(-669476.286107019,1043208.90963351,503319.974808345)
(-789364.001764952,916754.856740576,906622.720124244)
(-994508.832623991,709364.403308518,1588932.34506835)
(-1181263.54271671,402141.627903354,2584499.13464523)
(0,0,0)
(0,0,0)
(0,0,0)
(0,0,0)
(0,0,0)
(0,0,0)
(-756598.819044027,1935545.06594868,5780.78414352915)
(-758423.111614564,1932683.70508204,13424.9054931919)
(-763115.135415013,1926218.52058384,26029.860057028)
(-773189.511196553,1913922.77175591,49928.7420925782)
(-793567.116021909,1890740.18998708,98017.7485679079)
(-831882.754150237,1845779.87715028,194201.816830472)
(-896264.644614075,1756962.91256498,376712.458513078)
(-992022.000636373,1586366.10535735,699123.210532711)
(-1156706.94070238,1283560.96117405,1281633.59336944)
(-1270374.77408943,771836.058923051,2182313.93643918)
(0,0,0)
(0,0,0)
(0,0,0)
(0,0,0)
(0,0,0)
(0,0,0)
(-1056665.54240122,2989288.92932611,2921.67902377861)
(-1057584.66926072,2986300.10908269,6889.94428383738)
(-1059908.66475299,2979371.23066114,13645.8989595496)
(-1064837.25158624,2965767.65525608,26638.2670456613)
(-1074687.30722844,2939210.01905836,52855.7452028402)
(-1093129.41528445,2886564.48606751,105200.551570026)
(-1125354.36344779,2781578.11193078,205939.715651987)
(-1179703.6572179,2575875.095181,396134.383046219)
(-1270063.12012716,2179941.19819376,769817.266153607)
(-1279132.83420236,1410300.21908945,1410485.94018962)
(0,0,0)
(0,0,0)
(0,0,0)
(0,0,0)
(0,0,0)
(0,0,0)
(0,0,0)
(0,0,0)
(0,0,0)
(0,0,0)
(0,0,0)
(0,0,0)
(0,0,0)
(0,0,0)
(0,0,0)
(0,0,0)
(0,0,0)
(0,0,0)
(0,0,0)
(0,0,0)
(0,0,0)
(0,0,0)
(0,0,0)
(0,0,0)
(0,0,0)
(0,0,0)
(0,0,0)
(0,0,0)
(0,0,0)
(0,0,0)
(0,0,0)
(0,0,0)
(0,0,0)
(0,0,0)
(0,0,0)
(0,0,0)
(0,0,0)
(0,0,0)
(0,0,0)
(0,0,0)
(0,0,0)
(0,0,0)
(0,0,0)
(0,0,0)
(0,0,0)
(0,0,0)
(0,0,0)
(0,0,0)
(0,0,0)
(0,0,0)
(0,0,0)
(0,0,0)
(0,0,0)
(0,0,0)
(0,0,0)
(0,0,0)
(0,0,0)
(0,0,0)
(0,0,0)
(0,0,0)
(0,0,0)
(0,0,0)
(0,0,0)
(0,0,0)
(0,0,0)
(0,0,0)
(0,0,0)
(0,0,0)
(0,0,0)
(0,0,0)
(0,0,0)
(0,0,0)
(0,0,0)
(0,0,0)
(0,0,0)
(0,0,0)
(0,0,0)
(0,0,0)
(0,0,0)
(0,0,0)
(0,0,0)
(0,0,0)
(0,0,0)
(0,0,0)
(0,0,0)
(0,0,0)
(0,0,0)
(0,0,0)
(0,0,0)
(0,0,0)
(0,0,0)
(0,0,0)
(0,0,0)
(0,0,0)
(0,0,0)
(0,0,0)
(0,0,0)
(0,0,0)
(0,0,0)
(0,0,0)
(0,0,0)
(0,0,0)
(9921708.14036647,31646.2505978777,27502.6101738376)
(9915237.84876235,30097.6057823875,59138.1463910125)
(9900450.83203865,26868.0407402918,99905.2338866807)
(9872742.39292692,21630.4539450605,156772.698393846)
(9823245.14945046,14261.7810575209,240001.127120463)
(9735163.08900351,5491.47821356584,365294.255015693)
(9573563.59296551,-2370.47829867884,560890.975429892)
(9254259.82480965,-5812.94824832074,900059.371249512)
(8533970.79832147,-4825.53733374221,1659583.27022929)
(6577901.35151127,-2383.66510589321,4074034.97467434)
(0,0,0)
(0,0,0)
(0,0,0)
(0,0,0)
(0,0,0)
(0,0,0)
(9915058.75789125,67518.0578456093,26031.5151214368)
(9908602.22369223,64633.9552211607,55958.3968514632)
(9893677.56052227,58479.2174537522,94695.9202185697)
(9865437.90695488,48238.9120946731,149421.217834587)
(9814589.2393434,33336.4052271289,231193.789738936)
(9724015.43446361,14595.7296436924,357411.401406582)
(9559961.73284531,-3251.58371711728,557427.009456603)
(9241989.13774792,-10796.2142333592,901015.195475711)
(8526318.46773135,-8088.75154675029,1661937.27468356)
(6574537.72526369,-3496.68464608108,4076283.33976217)
(0,0,0)
(0,0,0)
(0,0,0)
(0,0,0)
(0,0,0)
(0,0,0)
(9900118.25055952,112322.224058733,23209.4021260372)
(9893642.11726003,108503.944536676,49871.5415957481)
(9878398.01777547,100190.813313206,84585.4744292495)
(9848880.19656441,86007.2537663685,134608.825890017)
(9794471.37311509,64354.2614913522,212433.911397572)
(9696458.38182693,34833.2335763485,339482.011567983)
(9523051.34921845,3550.83821082353,549717.042219198)
(9208131.03145275,-9660.90404599041,903554.781834856)
(8506609.22957687,-4747.62707362161,1666316.72997778)
(6566357.81438031,-394.695009991576,4079526.74113002)
(0,0,0)
(0,0,0)
(0,0,0)
(0,0,0)
(0,0,0)
(0,0,0)
(9872595.41731031,171924.524004402,19423.551505945)
(9866150.71464178,167752.609483162,41631.5912231253)
(9850534.38324161,158642.886389442,70545.9938371487)
(9819047.96736358,142927.995631187,113059.348490202)
(9758135.64395064,118145.128929262,182940.685059253)
(9643366.78161205,81863.7716086104,308108.779909278)
(9441153.33305498,37889.8991108808,536314.802595047)
(9131183.68017497,16508.9123555062,908246.993657384)
(8466880.95871588,18340.0793284122,1670363.10101061)
(6551103.13152895,12996.8309717581,4079542.85542777)
(0,0,0)
(0,0,0)
(0,0,0)
(0,0,0)
(0,0,0)
(0,0,0)
(9824160.57412135,254477.480789179,15326.7823176389)
(9817862.7987827,250609.233437209,32644.5142509129)
(9802131.77310267,242272.455338949,55009.3431683627)
(9768987.9034334,228210.688697906,88394.0872133403)
(9700683.85692117,206748.944039183,146697.84837769)
(9560810.12622934,176787.132877589,264067.617021463)
(9293980.23556965,141508.758063233,514764.773118606)
(8988527.6515391,110658.551578213,909858.683606439)
(8404590.11827952,80956.876950337,1664735.94633749)
(6528393.60093771,43770.4313708038,4066229.10726878)
(0,0,0)
(0,0,0)
(0,0,0)
(0,0,0)
(0,0,0)
(0,0,0)
(9737970.41769524,373601.122912054,11546.5788279037)
(9732087.31879278,370450.16011218,24453.4240999355)
(9717091.76647728,363737.283535734,41138.1129761022)
(9684571.51497519,352686.202883453,67069.5575377779)
(9615522.48336996,336017.880526419,116800.848498453)
(9471698.53158735,311826.898781935,228709.227818506)
(9201548.46073089,278398.613315573,483731.273748205)
(8909529.02900527,235568.649204714,879941.973287908)
(8351578.91260757,171619.68299941,1627287.37242834)
(6502379.90052253,90773.7154103671,4022184.8806797)
(0,0,0)
(0,0,0)
(0,0,0)
(0,0,0)
(0,0,0)
(0,0,0)
(9578069.76074647,557761.767885193,8391.14386911181)
(9572960.97075006,555343.236910082,17795.5036359361)
(9559697.12482341,550326.373257082,30158.6309888387)
(9530200.61882648,542371.699661187,50422.4062099652)
(9465847.24224269,530566.000418488,92612.2460922143)
(9328395.87705925,512198.555338975,195157.493095731)
(9066507.71113279,480226.786656057,440671.401538687)
(8802948.13446084,423295.852540354,815798.515164379)
(8273089.73272257,309233.115443116,1546270.0384704)
(6458002.44054802,165341.821740217,3931270.65818102)
(0,0,0)
(0,0,0)
(0,0,0)
(0,0,0)
(0,0,0)
(0,0,0)
(9258478.37013766,884652.058278587,5943.25958847153)
(9254492.09599052,882683.227950745,12757.6895011882)
(9243959.98235488,878687.029689288,22161.849217513)
(9220164.52415872,872515.928576833,38554.2999197108)
(9167174.10209495,863615.438786461,74169.4347588413)
(9050660.04098648,849319.730754719,162998.267026308)
(8821567.50944537,816421.852030322,383507.500820023)
(8649477.37022342,714118.348156323,701591.72793586)
(8114622.18725621,547143.412697933,1402298.50552117)
(6355227.38330614,313007.465049575,3765890.03090924)
(0,0,0)
(0,0,0)
(0,0,0)
(0,0,0)
(0,0,0)
(0,0,0)
(8536306.96803812,1635545.46694827,3948.89896856741)
(8533634.59917898,1633613.32319001,8709.18765613937)
(8526622.72904892,1629498.45839468,15907.9892071158)
(8511104.99122587,1622319.69188647,29557.818195343)
(8477979.69695358,1609629.27806672,59745.2606598693)
(8410546.79308713,1584505.19966782,129878.339229865)
(8288909.85391227,1527871.0510676,281002.736386674)
(8117659.43828499,1398706.82803968,534480.912302358)
(7634442.04205506,1170196.49494108,1168026.94202215)
(6042552.32289541,763086.199607807,3452769.20519942)
(0,0,0)
(0,0,0)
(0,0,0)
(0,0,0)
(0,0,0)
(0,0,0)
(6578658.55316845,4045959.18490096,2010.28119790431)
(6577333.25914672,4043901.07590902,4552.69479169584)
(6573903.49781886,4039308.75460154,8678.33073337036)
(6566481.8659063,4030645.32510258,16781.674745187)
(6551114.01466608,4013934.92876022,34422.796877586)
(6520825.66340129,3979727.20403456,72993.8085455085)
(6464670.27358498,3906982.892244,151605.425056703)
(6356941.753473,3755637.57335215,305777.363773828)
(6042824.43353624,3450064.18745052,760770.212321393)
(4913338.95061984,2689488.83379065,2689643.88803667)
(0,0,0)
(0,0,0)
(0,0,0)
(0,0,0)
(0,0,0)
(0,0,0)
(0,0,0)
(0,0,0)
(0,0,0)
(0,0,0)
(0,0,0)
(0,0,0)
(0,0,0)
(0,0,0)
(0,0,0)
(0,0,0)
(0,0,0)
(0,0,0)
(0,0,0)
(0,0,0)
(0,0,0)
(0,0,0)
(0,0,0)
(0,0,0)
(0,0,0)
(0,0,0)
(0,0,0)
(0,0,0)
(0,0,0)
(0,0,0)
(0,0,0)
(0,0,0)
(0,0,0)
(0,0,0)
(0,0,0)
(0,0,0)
(0,0,0)
(0,0,0)
(0,0,0)
(0,0,0)
(0,0,0)
(0,0,0)
(0,0,0)
(0,0,0)
(0,0,0)
(0,0,0)
(0,0,0)
(0,0,0)
(0,0,0)
(0,0,0)
(0,0,0)
(0,0,0)
(0,0,0)
(0,0,0)
(0,0,0)
(0,0,0)
(0,0,0)
(0,0,0)
(0,0,0)
(0,0,0)
(0,0,0)
(0,0,0)
(0,0,0)
(0,0,0)
(0,0,0)
(0,0,0)
(0,0,0)
(0,0,0)
(0,0,0)
(0,0,0)
(0,0,0)
(0,0,0)
(0,0,0)
(0,0,0)
(0,0,0)
(0,0,0)
(0,0,0)
(0,0,0)
(0,0,0)
(0,0,0)
(0,0,0)
(0,0,0)
(0,0,0)
(0,0,0)
(0,0,0)
(0,0,0)
(0,0,0)
(0,0,0)
(0,0,0)
(0,0,0)
(0,0,0)
(0,0,0)
(0,0,0)
(0,0,0)
(0,0,0)
(0,0,0)
(0,0,0)
(0,0,0)
(0,0,0)
(0,0,0)
(0,0,0)
(0,0,0)
(-172097.580018629,25032.7242351374,21024.9014296549)
(-179193.214186531,23469.245875929,44238.6237821636)
(-195236.937280612,20098.1415301057,72080.1568510869)
(-224559.490841661,14354.0771865436,107279.868712833)
(-274861.982287571,5649.02507604499,151989.880654555)
(-358845.997742531,-5597.3633444331,203848.236024747)
(-496212.214072753,-15966.7449194431,241842.693262242)
(-713582.431697718,-18082.3611796585,180019.216228931)
(-1025133.48733461,-12461.5340918276,-296163.058743495)
(-1256930.10407266,-5731.72615962139,-2503347.97172024)
(0,0,0)
(0,0,0)
(0,0,0)
(0,0,0)
(0,0,0)
(0,0,0)
(-179704.132374646,52513.8416572035,19533.6781234806)
(-186676.527599306,49611.910901813,40921.6696687489)
(-202568.185724534,43156.284513315,66361.1782119991)
(-231918.328901446,31716.8102593649,98606.5862751316)
(-282997.099437041,13334.3304730171,140759.524938244)
(-369286.985836403,-12806.3246727339,193522.811846213)
(-509856.101748554,-40079.6509190856,239705.457719309)
(-725120.866207437,-44631.9167883752,185616.92256307)
(-1030974.96663952,-27784.8847856843,-289514.387092426)
(-1259015.6621444,-11667.0165032526,-2497773.80406089)
(0,0,0)
(0,0,0)
(0,0,0)
(0,0,0)
(0,0,0)
(0,0,0)
(-196558.357415227,84739.2313163085,16703.1235954362)
(-203321.453880283,80960.5377868885,34569.9731303937)
(-218957.329302724,72289.6258543447,55043.8841471777)
(-248613.850466881,56209.4511130529,80297.195604323)
(-302363.938250536,28106.5513773188,114612.191345275)
(-397561.672167226,-18153.1564928968,166230.982439184)
(-555309.74123562,-78282.9349343239,235047.262188122)
(-764902.678021426,-86634.6223492026,202335.582502707)
(-1048477.29058813,-44511.8733275686,-273599.003510558)
(-1264643.31521716,-15662.0694775917,-2486350.91565918)
(0,0,0)
(0,0,0)
(0,0,0)
(0,0,0)
(0,0,0)
(0,0,0)
(-226755.350182837,123420.288161211,12921.615927952)
(-233144.310690349,119458.879150713,25970.2051759031)
(-248348.765964487,110309.190043621,39085.6954723802)
(-278651.677397796,92990.2241769862,52256.4724494258)
(-338399.948246639,60817.4482070045,68333.0730966267)
(-459638.77937867,-576.053517544058,106013.436391701)
(-696231.978331438,-109168.252139841,226535.970263229)
(-894811.622738721,-126090.088313884,244238.644421194)
(-1092153.94057278,-43926.2523234671,-245060.172014459)
(-1276638.04948757,-9687.75784704936,-2471041.39734893)
(0,0,0)
(0,0,0)
(0,0,0)
(0,0,0)
(0,0,0)
(0,0,0)
(-277423.474048234,168280.950340063,8975.29127040829)
(-283272.421635801,164915.121774165,16906.1743451504)
(-297659.845323302,157356.114908797,21902.7731854824)
(-327981.029821189,143941.03404267,20172.8018541285)
(-394776.08703647,121738.175725802,6963.92357252)
(-565702.957312583,87806.5076455598,-2653.6487690941)
(-1124225.27323187,49190.1779006012,209445.335271583)
(-1333737.11553662,31701.416400861,326170.502912194)
(-1177773.49086343,27962.3822148876,-211102.617203426)
(-1296316.63077246,17782.829198042,-2461611.06725861)
(0,0,0)
(0,0,0)
(0,0,0)
(0,0,0)
(0,0,0)
(0,0,0)
(-360923.688395936,213809.295400827,5617.66631018423)
(-366048.077739478,211468.363118877,9451.72677743115)
(-378942.270976143,206476.083636802,8617.7007824849)
(-407117.853399326,198450.206527692,-1950.19804850123)
(-472028.389149868,186489.796217266,-26899.0407404567)
(-642471.707095434,168627.625458365,-41298.0145907391)
(-1173600.98385361,143394.102353587,191899.410820348)
(-1365834.33093426,128962.915184543,322253.177255815)
(-1217531.49559006,93121.156286906,-221543.283339015)
(-1315900.17278109,46401.4749223217,-2479629.95047987)
(0,0,0)
(0,0,0)
(0,0,0)
(0,0,0)
(0,0,0)
(0,0,0)
(-497470.150697498,238395.83351813,3205.27860631153)
(-501676.581183353,237074.9952414,4488.1036968885)
(-512484.640662713,234751.561799015,646.296300365644)
(-537017.839292617,232464.085144085,-13897.2189172056)
(-596593.537307602,232014.042635219,-44728.7805052134)
(-763387.699889739,234522.986655666,-66588.6594737561)
(-1317007.84258013,235275.705690996,177297.196181492)
(-1494542.72329959,269795.867954394,286207.006451768)
(-1277587.55894009,150746.589026581,-268489.229345402)
(-1348198.75261933,62570.2099513079,-2526204.86592744)
(0,0,0)
(0,0,0)
(0,0,0)
(0,0,0)
(0,0,0)
(0,0,0)
(-715414.259108147,162700.51034068,1839.8577028934)
(-718546.19901899,162065.304924914,2139.74830860772)
(-726764.612640126,161551.801938201,-1683.9915559362)
(-745979.611173034,163591.148394452,-14415.0141948593)
(-795225.094503994,174518.110880762,-42267.9805616732)
(-948091.958227566,209232.900773262,-65973.9901856692)
(-1552239.19930794,283755.056242274,211605.273295999)
(-1266116.10794898,182280.030637103,166966.494065426)
(-1325509.48073536,66933.5883996967,-356836.932036365)
(-1398229.68814333,332.961939403175,-2588890.7072952)
(0,0,0)
(0,0,0)
(0,0,0)
(0,0,0)
(0,0,0)
(0,0,0)
(-1027987.28077514,-321928.063284013,1174.72771755542)
(-1030013.87553391,-322464.358561155,1604.77119613465)
(-1035264.9468564,-323009.641560953,305.795880309997)
(-1047036.512244,-322125.058834356,-3584.58814131299)
(-1074099.96616277,-317076.875302706,-7658.03356176913)
(-1138830.67880841,-305113.65511991,8317.89950647097)
(-1280352.48802067,-296284.247322829,109871.450284127)
(-1327397.60994522,-361936.730374709,51397.1648057495)
(-1449939.95113767,-421359.234762677,-423676.113559479)
(-1473064.42799853,-366069.324576184,-2589405.17087032)
(0,0,0)
(0,0,0)
(0,0,0)
(0,0,0)
(0,0,0)
(0,0,0)
(-1259116.10026595,-2532538.29948966,636.794919735358)
(-1260091.40994514,-2533213.49341486,1062.50414491778)
(-1262597.87130942,-2534358.2885069,1164.42549883502)
(-1268008.78518282,-2535575.34440347,1357.2674366132)
(-1279599.44385515,-2536873.891856,4119.64779078712)
(-1303970.48375314,-2540796.5343957,16850.5795005966)
(-1349050.75773315,-2557376.36460503,43915.6333805777)
(-1399521.92067632,-2601009.23172151,-8296.28584381575)
(-1473466.9548889,-2592479.0492209,-368633.177680847)
(-1422035.46873548,-2223620.82831841,-2223455.34930373)
(0,0,0)
(0,0,0)
(0,0,0)
(0,0,0)
(0,0,0)
(0,0,0)
(0,0,0)
(0,0,0)
(0,0,0)
(0,0,0)
(0,0,0)
(0,0,0)
(0,0,0)
(0,0,0)
(0,0,0)
(0,0,0)
(0,0,0)
(0,0,0)
(0,0,0)
(0,0,0)
(0,0,0)
(0,0,0)
(0,0,0)
(0,0,0)
(0,0,0)
(0,0,0)
(0,0,0)
(0,0,0)
(0,0,0)
(0,0,0)
(0,0,0)
(0,0,0)
(0,0,0)
(0,0,0)
(0,0,0)
(0,0,0)
(0,0,0)
(0,0,0)
(0,0,0)
(0,0,0)
(0,0,0)
(0,0,0)
(0,0,0)
(0,0,0)
(0,0,0)
(0,0,0)
(0,0,0)
(0,0,0)
(0,0,0)
(0,0,0)
(0,0,0)
(0,0,0)
(0,0,0)
(0,0,0)
(0,0,0)
(0,0,0)
(0,0,0)
(0,0,0)
(0,0,0)
(0,0,0)
(0,0,0)
(0,0,0)
(0,0,0)
(0,0,0)
(0,0,0)
(0,0,0)
(0,0,0)
(0,0,0)
(0,0,0)
(0,0,0)
(0,0,0)
(0,0,0)
(0,0,0)
(0,0,0)
(0,0,0)
(0,0,0)
(0,0,0)
(0,0,0)
(0,0,0)
(0,0,0)
(0,0,0)
(0,0,0)
(0,0,0)
(0,0,0)
(0,0,0)
(0,0,0)
(0,0,0)
(0,0,0)
(0,0,0)
(0,0,0)
(0,0,0)
(0,0,0)
(0,0,0)
(0,0,0)
(0,0,0)
(0,0,0)
(0,0,0)
(0,0,0)
(0,0,0)
(0,0,0)
(0,0,0)
(0,0,0)
(-203403.90802909,17416.6280224825,13889.6999879781)
(-209400.185955518,16008.4328914896,28088.2388654798)
(-222665.503904421,12822.6626493401,42694.1428399507)
(-245955.352157775,7069.69400284714,57020.310153214)
(-283608.322212362,-2374.43973157139,68141.0898095759)
(-341538.208604022,-15914.2779108411,66747.5785819088)
(-424795.883855729,-29518.1626093748,24849.4109742597)
(-528024.312699244,-29535.5427351006,-131173.165289111)
(-610570.509551744,-18194.1732844344,-527541.969787511)
(-530731.339885363,-7753.90532422917,-1245986.82865055)
(0,0,0)
(0,0,0)
(0,0,0)
(0,0,0)
(0,0,0)
(0,0,0)
(-210337.679663127,35540.9259758399,12509.2493351219)
(-215987.193772959,32903.263041851,24925.0853584147)
(-228525.103185631,26768.8545228307,36935.8109460253)
(-250570.820522472,15093.9567657178,47564.0398041744)
(-286521.05312594,-5895.67076324948,54609.2245247467)
(-342821.230945453,-40933.8535507468,53163.0452737075)
(-425554.274193583,-85420.8910798856,24763.9461892485)
(-525652.236488829,-84338.4043700677,-119901.82189439)
(-606640.969640127,-45225.625844472,-517204.366333733)
(-528309.13492593,-17263.2367200604,-1238401.56215645)
(0,0,0)
(0,0,0)
(0,0,0)
(0,0,0)
(0,0,0)
(0,0,0)
(-225427.326519844,54479.9476324438,9929.94744801955)
(-230459.911614225,51082.5585773012,18889.1096465101)
(-241564.314487384,42910.0715714357,25354.8777825629)
(-261076.230147073,26296.9338485242,26614.2803799486)
(-293457.371622377,-7747.28596648126,19559.3289550196)
(-347493.503262223,-80078.9888570283,8636.29535628173)
(-438694.350285008,-219113.705808739,25713.7191345227)
(-526088.320937701,-216520.507504245,-80918.5348150422)
(-597002.929743995,-88204.7253187375,-489413.796184908)
(-522320.114065011,-27665.6014894056,-1221334.63256773)
(0,0,0)
(0,0,0)
(0,0,0)
(0,0,0)
(0,0,0)
(0,0,0)
(-251477.576291242,72691.4496600331,6510.72408082502)
(-255585.942123083,69278.5046968942,10756.4093939706)
(-264525.555146675,61033.8165337857,8809.45361381296)
(-279946.174764321,43800.6685374936,-7399.78370863093)
(-305375.163838751,4610.50285547548,-52782.3569384735)
(-355562.052866568,-106482.915350753,-130455.156956858)
(-536943.082196045,-537018.013801421,28160.2549004281)
(-565451.00781998,-564933.014767832,47212.147245265)
(-574495.001915837,-129502.248847732,-429149.267882693)
(-510172.463279178,-29336.3219272822,-1193944.13365328)
(0,0,0)
(0,0,0)
(0,0,0)
(0,0,0)
(0,0,0)
(0,0,0)
(-292586.265352067,84766.4163821486,3087.824581718)
(-295593.749225647,82152.1515690056,2535.50529945427)
(-301834.207477893,76128.4282401652,-8384.74425232703)
(-310943.54515876,64911.3830332358,-46532.9434104967)
(-317473.135569089,44613.3134215755,-163838.705443984)
(-286167.9623981,11189.8113985334,-561046.427107762)