/*--------------------------------*- C++ -*----------------------------------*\
| =========                 |                                                 |
| \\      /  F ield         | foam-extend: Open Source CFD                    |
|  \\    /   O peration     | Version:     4.0                                |
|   \\  /    A nd           | Web:         http://www.foam-extend.org         |
|    \\/     M anipulation  |                                                 |
\*---------------------------------------------------------------------------*/
FoamFile
{
    version 2.0;
    format ascii;
    class volVectorField;
    location "355";
    object      E;
}
// * * * * * * * * * * * * * * * * * * * * * * * * * * * * * * * * * * * * * //

dimensions      [0 1 -1 0 0 0 0];

internalField   nonuniform List<vector>
4096
(
(0,0,0)
(0,0,0)
(0,0,0)
(0,0,0)
(0,0,0)
(0,0,0)
(0,0,0)
(0,0,0)
(0,0,0)
(0,0,0)
(0,0,0)
(0,0,0)
(0,0,0)
(0,0,0)
(0,0,0)
(0,0,0)
(0,0,0)
(0,0,0)
(0,0,0)
(0,0,0)
(0,0,0)
(0,0,0)
(0,0,0)
(0,0,0)
(0,0,0)
(0,0,0)
(0,0,0)
(0,0,0)
(0,0,0)
(0,0,0)
(0,0,0)
(0,0,0)
(0,0,0)
(0,0,0)
(0,0,0)
(0,0,0)
(0,0,0)
(0,0,0)
(0,0,0)
(0,0,0)
(0,0,0)
(0,0,0)
(0,0,0)
(0,0,0)
(0,0,0)
(0,0,0)
(0,0,0)
(0,0,0)
(0,0,0)
(0,0,0)
(0,0,0)
(0,0,0)
(0,0,0)
(0,0,0)
(0,0,0)
(0,0,0)
(0,0,0)
(0,0,0)
(0,0,0)
(0,0,0)
(0,0,0)
(0,0,0)
(0,0,0)
(0,0,0)
(0,0,0)
(0,0,0)
(0,0,0)
(0,0,0)
(0,0,0)
(0,0,0)
(0,0,0)
(0,0,0)
(0,0,0)
(0,0,0)
(0,0,0)
(0,0,0)
(0,0,0)
(0,0,0)
(0,0,0)
(0,0,0)
(0,0,0)
(0,0,0)
(0,0,0)
(0,0,0)
(0,0,0)
(0,0,0)
(0,0,0)
(0,0,0)
(0,0,0)
(0,0,0)
(0,0,0)
(0,0,0)
(0,0,0)
(0,0,0)
(0,0,0)
(0,0,0)
(0,0,0)
(0,0,0)
(0,0,0)
(0,0,0)
(0,0,0)
(0,0,0)
(0,0,0)
(0,0,0)
(0,0,0)
(0,0,0)
(0,0,0)
(0,0,0)
(0,0,0)
(0,0,0)
(0,0,0)
(0,0,0)
(0,0,0)
(0,0,0)
(0,0,0)
(0,0,0)
(0,0,0)
(0,0,0)
(0,0,0)
(0,0,0)
(0,0,0)
(0,0,0)
(0,0,0)
(0,0,0)
(0,0,0)
(0,0,0)
(0,0,0)
(0,0,0)
(0,0,0)
(0,0,0)
(0,0,0)
(0,0,0)
(0,0,0)
(0,0,0)
(0,0,0)
(0,0,0)
(0,0,0)
(0,0,0)
(0,0,0)
(0,0,0)
(0,0,0)
(0,0,0)
(0,0,0)
(0,0,0)
(0,0,0)
(0,0,0)
(0,0,0)
(0,0,0)
(0,0,0)
(0,0,0)
(0,0,0)
(0,0,0)
(0,0,0)
(0,0,0)
(0,0,0)
(0,0,0)
(0,0,0)
(0,0,0)
(0,0,0)
(0,0,0)
(0,0,0)
(0,0,0)
(0,0,0)
(0,0,0)
(0,0,0)
(0,0,0)
(0,0,0)
(0,0,0)
(0,0,0)
(0,0,0)
(0,0,0)
(0,0,0)
(0,0,0)
(0,0,0)
(0,0,0)
(0,0,0)
(0,0,0)
(0,0,0)
(0,0,0)
(0,0,0)
(0,0,0)
(0,0,0)
(0,0,0)
(0,0,0)
(0,0,0)
(0,0,0)
(0,0,0)
(0,0,0)
(0,0,0)
(0,0,0)
(0,0,0)
(0,0,0)
(0,0,0)
(0,0,0)
(0,0,0)
(0,0,0)
(0,0,0)
(0,0,0)
(0,0,0)
(0,0,0)
(0,0,0)
(0,0,0)
(0,0,0)
(0,0,0)
(0,0,0)
(0,0,0)
(0,0,0)
(0,0,0)
(0,0,0)
(0,0,0)
(0,0,0)
(0,0,0)
(0,0,0)
(0,0,0)
(0,0,0)
(0,0,0)
(0,0,0)
(0,0,0)
(0,0,0)
(0,0,0)
(0,0,0)
(0,0,0)
(0,0,0)
(0,0,0)
(0,0,0)
(0,0,0)
(0,0,0)
(0,0,0)
(0,0,0)
(0,0,0)
(0,0,0)
(0,0,0)
(0,0,0)
(0,0,0)
(0,0,0)
(0,0,0)
(0,0,0)
(0,0,0)
(0,0,0)
(0,0,0)
(0,0,0)
(0,0,0)
(0,0,0)
(0,0,0)
(0,0,0)
(0,0,0)
(0,0,0)
(0,0,0)
(0,0,0)
(0,0,0)
(0,0,0)
(0,0,0)
(0,0,0)
(0,0,0)
(0,0,0)
(0,0,0)
(0,0,0)
(0,0,0)
(0,0,0)
(0,0,0)
(0,0,0)
(0,0,0)
(0,0,0)
(0,0,0)
(0,0,0)
(0,0,0)
(0,0,0)
(0,0,0)
(0,0,0)
(0,0,0)
(0,0,0)
(0,0,0)
(0,0,0)
(0,0,0)
(0,0,0)
(0,0,0)
(0,0,0)
(0,0,0)
(0,0,0)
(0,0,0)
(0,0,0)
(0,0,0)
(0,0,0)
(0,0,0)
(0,0,0)
(0,0,0)
(0,0,0)
(0,0,0)
(0,0,0)
(0,0,0)
(0,0,0)
(0,0,0)
(0,0,0)
(0,0,0)
(0,0,0)
(0,0,0)
(0,0,0)
(0,0,0)
(0,0,0)
(0,0,0)
(0,0,0)
(0,0,0)
(0,0,0)
(0,0,0)
(0,0,0)
(0,0,0)
(0,0,0)
(0,0,0)
(0,0,0)
(0,0,0)
(0,0,0)
(0,0,0)
(0,0,0)
(0,0,0)
(0,0,0)
(0,0,0)
(0,0,0)
(0,0,0)
(0,0,0)
(0,0,0)
(0,0,0)
(0,0,0)
(0,0,0)
(0,0,0)
(0,0,0)
(0,0,0)
(0,0,0)
(0,0,0)
(0,0,0)
(0,0,0)
(0,0,0)
(0,0,0)
(0,0,0)
(0,0,0)
(0,0,0)
(0,0,0)
(0,0,0)
(0,0,0)
(0,0,0)
(0,0,0)
(0,0,0)
(0,0,0)
(0,0,0)
(0,0,0)
(0,0,0)
(0,0,0)
(0,0,0)
(0,0,0)
(0,0,0)
(0,0,0)
(0,0,0)
(0,0,0)
(0,0,0)
(0,0,0)
(0,0,0)
(0,0,0)
(0,0,0)
(0,0,0)
(0,0,0)
(0,0,0)
(0,0,0)
(0,0,0)
(0,0,0)
(0,0,0)
(0,0,0)
(0,0,0)
(0,0,0)
(0,0,0)
(0,0,0)
(0,0,0)
(0,0,0)
(0,0,0)
(0,0,0)
(0,0,0)
(0,0,0)
(0,0,0)
(0,0,0)
(0,0,0)
(0,0,0)
(0,0,0)
(0,0,0)
(0,0,0)
(0,0,0)
(0,0,0)
(0,0,0)
(0,0,0)
(0,0,0)
(0,0,0)
(0,0,0)
(0,0,0)
(0,0,0)
(0,0,0)
(0,0,0)
(0,0,0)
(0,0,0)
(0,0,0)
(0,0,0)
(0,0,0)
(0,0,0)
(0,0,0)
(0,0,0)
(0,0,0)
(0,0,0)
(0,0,0)
(0,0,0)
(0,0,0)
(0,0,0)
(0,0,0)
(0,0,0)
(0,0,0)
(0,0,0)
(0,0,0)
(0,0,0)
(0,0,0)
(0,0,0)
(0,0,0)
(0,0,0)
(0,0,0)
(0,0,0)
(0,0,0)
(0,0,0)
(0,0,0)
(0,0,0)
(0,0,0)
(0,0,0)
(0,0,0)
(0,0,0)
(0,0,0)
(0,0,0)
(0,0,0)
(0,0,0)
(0,0,0)
(0,0,0)
(0,0,0)
(0,0,0)
(0,0,0)
(0,0,0)
(0,0,0)
(0,0,0)
(0,0,0)
(0,0,0)
(0,0,0)
(0,0,0)
(0,0,0)
(0,0,0)
(0,0,0)
(0,0,0)
(0,0,0)
(0,0,0)
(0,0,0)
(0,0,0)
(0,0,0)
(0,0,0)
(0,0,0)
(0,0,0)
(0,0,0)
(0,0,0)
(0,0,0)
(0,0,0)
(0,0,0)
(0,0,0)
(0,0,0)
(0,0,0)
(0,0,0)
(0,0,0)
(0,0,0)
(0,0,0)
(0,0,0)
(0,0,0)
(0,0,0)
(0,0,0)
(0,0,0)
(0,0,0)
(0,0,0)
(0,0,0)
(0,0,0)
(0,0,0)
(0,0,0)
(0,0,0)
(0,0,0)
(0,0,0)
(0,0,0)
(0,0,0)
(0,0,0)
(0,0,0)
(0,0,0)
(0,0,0)
(0,0,0)
(0,0,0)
(0,0,0)
(0,0,0)
(0,0,0)
(0,0,0)
(0,0,0)
(0,0,0)
(0,0,0)
(0,0,0)
(0,0,0)
(0,0,0)
(0,0,0)
(0,0,0)
(0,0,0)
(0,0,0)
(0,0,0)
(0,0,0)
(0,0,0)
(0,0,0)
(0,0,0)
(0,0,0)
(0,0,0)
(0,0,0)
(0,0,0)
(0,0,0)
(0,0,0)
(0,0,0)
(0,0,0)
(0,0,0)
(0,0,0)
(0,0,0)
(0,0,0)
(0,0,0)
(0,0,0)
(0,0,0)
(0,0,0)
(0,0,0)
(0,0,0)
(0,0,0)
(0,0,0)
(0,0,0)
(0,0,0)
(0,0,0)
(0,0,0)
(0,0,0)
(0,0,0)
(0,0,0)
(0,0,0)
(0,0,0)
(0,0,0)
(0,0,0)
(0,0,0)
(0,0,0)
(0,0,0)
(0,0,0)
(0,0,0)
(0,0,0)
(0,0,0)
(0,0,0)
(0,0,0)
(0,0,0)
(0,0,0)
(0,0,0)
(0,0,0)
(0,0,0)
(0,0,0)
(0,0,0)
(0,0,0)
(0,0,0)
(0,0,0)
(0,0,0)
(0,0,0)
(0,0,0)
(0,0,0)
(0,0,0)
(0,0,0)
(0,0,0)
(0,0,0)
(0,0,0)
(0,0,0)
(0,0,0)
(0,0,0)
(0,0,0)
(0,0,0)
(0,0,0)
(0,0,0)
(0,0,0)
(0,0,0)
(0,0,0)
(0,0,0)
(0,0,0)
(0,0,0)
(0,0,0)
(0,0,0)
(0,0,0)
(0,0,0)
(0,0,0)
(0,0,0)
(0,0,0)
(0,0,0)
(0,0,0)
(0,0,0)
(0,0,0)
(0,0,0)
(0,0,0)
(0,0,0)
(0,0,0)
(0,0,0)
(0,0,0)
(0,0,0)
(0,0,0)
(0,0,0)
(0,0,0)
(0,0,0)
(0,0,0)
(0,0,0)
(0,0,0)
(0,0,0)
(0,0,0)
(0,0,0)
(0,0,0)
(0,0,0)
(0,0,0)
(0,0,0)
(0,0,0)
(0,0,0)
(0,0,0)
(0,0,0)
(0,0,0)
(0,0,0)
(0,0,0)
(0,0,0)
(0,0,0)
(0,0,0)
(0,0,0)
(0,0,0)
(0,0,0)
(0,0,0)
(0,0,0)
(0,0,0)
(0,0,0)
(0,0,0)
(0,0,0)
(0,0,0)
(0,0,0)
(0,0,0)
(0,0,0)
(0,0,0)
(0,0,0)
(0,0,0)
(0,0,0)
(0,0,0)
(0,0,0)
(0,0,0)
(0,0,0)
(0,0,0)
(0,0,0)
(0,0,0)
(0,0,0)
(0,0,0)
(0,0,0)
(0,0,0)
(0,0,0)
(0,0,0)
(0,0,0)
(0,0,0)
(0,0,0)
(0,0,0)
(0,0,0)
(0,0,0)
(0,0,0)
(0,0,0)
(0,0,0)
(0,0,0)
(0,0,0)
(0,0,0)
(0,0,0)
(0,0,0)
(0,0,0)
(0,0,0)
(0,0,0)
(0,0,0)
(0,0,0)
(0,0,0)
(0,0,0)
(0,0,0)
(0,0,0)
(0,0,0)
(0,0,0)
(0,0,0)
(0,0,0)
(0,0,0)
(0,0,0)
(0,0,0)
(0,0,0)
(0,0,0)
(0,0,0)
(0,0,0)
(0,0,0)
(0,0,0)
(0,0,0)
(0,0,0)
(0,0,0)
(0,0,0)
(0,0,0)
(0,0,0)
(0,0,0)
(0,0,0)
(0,0,0)
(0,0,0)
(0,0,0)
(0,0,0)
(0,0,0)
(0,0,0)
(0,0,0)
(0,0,0)
(0,0,0)
(0,0,0)
(0,0,0)
(0,0,0)
(0,0,0)
(0,0,0)
(0,0,0)
(0,0,0)
(0,0,0)
(0,0,0)
(0,0,0)
(0,0,0)
(0,0,0)
(0,0,0)
(0,0,0)
(0,0,0)
(0,0,0)
(0,0,0)
(0,0,0)
(0,0,0)
(0,0,0)
(0,0,0)
(0,0,0)
(0,0,0)
(0,0,0)
(0,0,0)
(0,0,0)
(0,0,0)
(0,0,0)
(0,0,0)
(0,0,0)
(0,0,0)
(0,0,0)
(0,0,0)
(0,0,0)
(0,0,0)
(0,0,0)
(0,0,0)
(0,0,0)
(0,0,0)
(0,0,0)
(0,0,0)
(0,0,0)
(0,0,0)
(0,0,0)
(0,0,0)
(0,0,0)
(0,0,0)
(0,0,0)
(0,0,0)
(0,0,0)
(0,0,0)
(0,0,0)
(0,0,0)
(0,0,0)
(0,0,0)
(0,0,0)
(0,0,0)
(0,0,0)
(0,0,0)
(0,0,0)
(0,0,0)
(0,0,0)
(0,0,0)
(0,0,0)
(0,0,0)
(0,0,0)
(0,0,0)
(0,0,0)
(0,0,0)
(0,0,0)
(0,0,0)
(0,0,0)
(0,0,0)
(0,0,0)
(0,0,0)
(0,0,0)
(0,0,0)
(0,0,0)
(0,0,0)
(0,0,0)
(0,0,0)
(0,0,0)
(0,0,0)
(0,0,0)
(0,0,0)
(0,0,0)
(0,0,0)
(0,0,0)
(0,0,0)
(0,0,0)
(0,0,0)
(0,0,0)
(0,0,0)
(0,0,0)
(0,0,0)
(0,0,0)
(0,0,0)
(0,0,0)
(0,0,0)
(0,0,0)
(0,0,0)
(0,0,0)
(0,0,0)
(0,0,0)
(0,0,0)
(0,0,0)
(0,0,0)
(0,0,0)
(0,0,0)
(0,0,0)
(0,0,0)
(0,0,0)
(0,0,0)
(0,0,0)
(-170911.478559583,90873.1297323271,80038.3488272556)
(-180835.402128233,87129.5496439325,173744.201311556)
(-203649.805689176,79287.6315277809,298106.375472951)
(-246739.3722865,67022.3542011781,477823.393558272)
(-324391.315366964,50520.3971988202,751694.311726418)
(-463785.044643711,31523.9939116859,1183955.36245844)
(-716219.827207454,14237.988482526,1885937.20118338)
(-1172414.07551464,3606.81874393095,3054744.45795408)
(-1933635.69988319,50.1113565034453,4988330.04648078)
(-2694071.32164207,-271.564426939137,7682672.93254978)
(0,0,0)
(0,0,0)
(0,0,0)
(0,0,0)
(0,0,0)
(0,0,0)
(-180803.673407228,195399.349715441,76277.4534241146)
(-190803.34088024,188315.641545192,165894.702403095)
(-213983.275432745,173403.042333765,285762.567029856)
(-258080.404053759,149696.072840927,461169.252443867)
(-337905.64289939,117039.060587777,732556.231954299)
(-480641.43697659,78162.8007469721,1166558.8620956)
(-735856.552938109,41382.1867494327,1875271.2167668)
(-1190324.20253945,18032.9191455746,3051169.3189046)
(-1945586.54198781,8824.59753865431,4987981.37471027)
(-2699650.89729104,4472.59114280207,7682888.11643157)
(0,0,0)
(0,0,0)
(0,0,0)
(0,0,0)
(0,0,0)
(0,0,0)
(-203358.987166695,329508.152389636,69250.1844924999)
(-213511.781916891,320011.527392121,151066.080562461)
(-237427.411207005,299835.4894554,262061.044647832)
(-283726.762809542,267136.861609317,428347.018688986)
(-368670.888100616,220567.977339576,693488.990037804)
(-520272.332801155,162336.375069338,1129587.74851659)
(-784281.493878128,103410.495490181,1851840.93365397)
(-1234909.05757397,62860.3631273432,3041922.54724617)
(-1974294.36557574,41417.8434219713,4983623.66693861)
(-2712649.3715117,22408.9318502332,7678336.69774286)
(0,0,0)
(0,0,0)
(0,0,0)
(0,0,0)
(0,0,0)
(0,0,0)
(-245414.156500604,515128.131586303,59794.1773039371)
(-255711.89381491,504556.701994921,130960.896516047)
(-280532.662516686,481986.55228382,229342.496204311)
(-330017.214621521,444870.225368001,381626.347067147)
(-423390.084410311,390498.90633997,635085.502477061)
(-592009.57772926,318974.003974988,1070457.45130067)
(-876987.424662785,239602.353170484,1811253.01828316)
(-1321136.31589197,174743.980498755,3020505.71680371)
(-2026874.85073787,124130.355635573,4964668.05532799)
(-2735571.05828725,66750.591845819,7655897.45361965)
(0,0,0)
(0,0,0)
(0,0,0)
(0,0,0)
(0,0,0)
(0,0,0)
(-320772.553546564,786700.687557931,49199.9975749363)
(-331010.342585469,776430.652496761,108336.389658565)
(-356301.261663142,754491.777221926,192132.426383601)
(-408452.402719472,718302.224488033,327152.829983042)
(-510525.044640204,664673.136808914,563503.644154304)
(-700207.095271559,591719.274991,990965.468409852)
(-1018159.79263106,502372.728293484,1746354.88591791)
(-1452412.26142633,403544.201744491,2969966.92609851)
(-2103306.58865785,290048.580240196,4907355.29015174)
(-2768727.5966479,153709.083264718,7589124.39538073)
(0,0,0)
(0,0,0)
(0,0,0)
(0,0,0)
(0,0,0)
(0,0,0)
(-456761.497714993,1204575.37729259,38886.8079803342)
(-466458.791681152,1195438.67942404,86337.5727342085)
(-490914.594657445,1175884.13246755,155859.812146024)
(-542560.012735796,1143280.9487887,273441.100581156)
(-645702.774401524,1093300.88024634,490516.131545254)
(-839003.776715181,1019685.10961792,901554.073633516)
(-1157930.59723637,914332.18384598,1647525.2153174)
(-1572478.24844482,766980.081417464,2856567.58408925)
(-2186061.48516851,561589.588621185,4771088.06087676)
(-2810435.01977216,299778.96642045,7435453.19749319)
(0,0,0)
(0,0,0)
(0,0,0)
(0,0,0)
(0,0,0)
(0,0,0)
(-706355.8771547,1881241.78519188,29689.469255416)
(-714934.476756842,1873319.41174535,66743.2136909444)
(-736866.415297494,1856244.19074864,123249.570707358)
(-784038.784742593,1827055.87052926,223513.43370939)
(-879826.343071652,1779663.91990969,416976.737117699)
(-1061463.39111163,1701874.71534858,796250.522498669)
(-1360769.48723944,1571137.72178239,1500214.4718017)
(-1737717.79389687,1353664.2267811,2651248.12033493)
(-2309382.258826,1012859.86573603,4509360.10204608)
(-2878463.20583,551867.69614771,7135734.57814884)
(0,0,0)
(0,0,0)
(0,0,0)
(0,0,0)
(0,0,0)
(0,0,0)
(-1162815.5582594,3022304.45325748,21752.8901937952)
(-1169663.39221715,3015049.97638017,49685.7177761238)
(-1187299.68510481,2999100.90350983,94128.690119743)
(-1225664.25541757,2970613.68373157,176235.132334993)
(-1304381.5580967,2920979.38449409,339301.225847289)
(-1455390.76526782,2830970.55210631,665596.154357383)
(-1706049.46209972,2660000.98057331,1282782.35766618)
(-2011205.15883527,2337193.98296669,2310457.76031587)
(-2533278.12430584,1808188.355012,4048407.39534574)
(-3008548.02504878,1024931.68218279,6583891.43435943)
(0,0,0)
(0,0,0)
(0,0,0)
(0,0,0)
(0,0,0)
(0,0,0)
(-1927106.04485707,4934864.60749629,14545.8906182653)
(-1931797.64840433,4927545.14621175,33848.3691910199)
(-1943764.23531754,4910860.93567018,65852.5723482053)
(-1969544.82087805,4879239.32293976,126771.754018057)
(-2021539.2394307,4819904.79482895,249385.583113907)
(-2119247.21752144,4704893.61089672,494709.741844922)
(-2283328.28472203,4478059.88129738,959979.125842881)
(-2527075.93091472,4042817.59419709,1781431.4455272)
(-2946250.54882379,3270712.03783315,3265158.31152985)
(-3235463.9004436,1966576.43105006,5558977.46310619)
(0,0,0)
(0,0,0)
(0,0,0)
(0,0,0)
(0,0,0)
(0,0,0)
(-2691073.20825153,7618550.39876677,7387.41698104001)
(-2693430.26871267,7610925.9468011,17436.885104348)
(-2699365.31428333,7593102.97506947,34560.1599883908)
(-2712006.18659811,7558158.37484289,67647.2946833755)
(-2737171.69524303,7490268.99420436,134454.790550984)
(-2784223.1623757,7355651.93675405,267919.627069345)
(-2866341.84353318,7087618.82184923,524702.530050666)
(-3004688.4262277,6562922.66754788,1009285.88292757)
(-3234707.03320098,5553693.68783548,1961011.26612622)
(-3257646.15141331,3592706.1925936,3592527.655996)
(0,0,0)
(0,0,0)
(0,0,0)
(0,0,0)
(0,0,0)
(0,0,0)
(0,0,0)
(0,0,0)
(0,0,0)
(0,0,0)
(0,0,0)
(0,0,0)
(0,0,0)
(0,0,0)
(0,0,0)
(0,0,0)
(0,0,0)
(0,0,0)
(0,0,0)
(0,0,0)
(0,0,0)
(0,0,0)
(0,0,0)
(0,0,0)
(0,0,0)
(0,0,0)
(0,0,0)
(0,0,0)
(0,0,0)
(0,0,0)
(0,0,0)
(0,0,0)
(0,0,0)
(0,0,0)
(0,0,0)
(0,0,0)
(0,0,0)
(0,0,0)
(0,0,0)
(0,0,0)
(0,0,0)
(0,0,0)
(0,0,0)
(0,0,0)
(0,0,0)
(0,0,0)
(0,0,0)
(0,0,0)
(0,0,0)
(0,0,0)
(0,0,0)
(0,0,0)
(0,0,0)
(0,0,0)
(0,0,0)
(0,0,0)
(0,0,0)
(0,0,0)
(0,0,0)
(0,0,0)
(0,0,0)
(0,0,0)
(0,0,0)
(0,0,0)
(0,0,0)
(0,0,0)
(0,0,0)
(0,0,0)
(0,0,0)
(0,0,0)
(0,0,0)
(0,0,0)
(0,0,0)
(0,0,0)
(0,0,0)
(0,0,0)
(0,0,0)
(0,0,0)
(0,0,0)
(0,0,0)
(0,0,0)
(0,0,0)
(0,0,0)
(0,0,0)
(0,0,0)
(0,0,0)
(0,0,0)
(0,0,0)
(0,0,0)
(0,0,0)
(0,0,0)
(0,0,0)
(0,0,0)
(0,0,0)
(0,0,0)
(0,0,0)
(0,0,0)
(0,0,0)
(0,0,0)
(0,0,0)
(0,0,0)
(0,0,0)
(25264780.2071621,81038.8924819113,70236.2657697926)
(25248217.7288935,77193.9878412997,150955.990880195)
(25210287.8917412,68986.6788609941,254998.458562271)
(25139456.5625646,55700.7295752834,400068.638109276)
(25013385.3909922,37043.0765920191,612215.69913149)
(24789216.0113753,14697.0663905738,931484.420695279)
(24377931.9941483,-5380.7832335433,1429680.22654652)
(23565083.4401944,-14280.5049534108,2293430.05976426)
(21730970.7320565,-11880.2237992134,4227670.69559719)
(16750067.6408053,-5849.6994391927,10376348.2765624)
(0,0,0)
(0,0,0)
(0,0,0)
(0,0,0)
(0,0,0)
(0,0,0)
(25247932.7340257,172872.785524097,66396.5434983159)
(25231376.6894099,165607.148865497,142770.196157373)
(25193107.7784253,149956.558030771,241676.107102882)
(25120920.5878785,124046.256318119,381296.432401196)
(24991383.4144362,86284.6668470751,589732.628783981)
(24760907.5331765,38543.8346423848,911303.734352472)
(24343315.9017465,-7037.30356052099,1420754.64396824)
(23533845.9442054,-26553.5719380161,2295824.40818143)
(21711542.6086849,-19903.9688117391,4233685.8464946)
(16741565.5133655,-8549.42838486939,10382136.0087571)
(0,0,0)
(0,0,0)
(0,0,0)
(0,0,0)
(0,0,0)
(0,0,0)
(25209808.593057,287500.351743604,59171.6975302038)
(25193224.989057,277820.35386075,127188.565534388)
(25154203.3998501,256709.689024826,215771.467456659)
(25078853.819859,220814.007496251,343389.977583361)
(24940330.2211546,165819.748199717,541820.630948929)
(24690930.1892176,90574.3796284218,865554.407917534)
(24249389.4318897,10653.9552659982,1401159.06729657)
(23447626.1801307,-23409.1436502041,2302446.24527747)
(21661399.227651,-11225.4252005233,4245040.95241291)
(16720766.3322701,-560.63868216079,10390603.3029018)
(0,0,0)
(0,0,0)
(0,0,0)
(0,0,0)
(0,0,0)
(0,0,0)
(25139688.227511,439841.745994429,49523.0657109899)
(25123154.8289099,429303.791160491,106139.749659776)
(25083207.4254393,406219.486045441,179856.708656579)
(25002943.4626668,366417.478398568,288259.404439316)
(24847882.2870633,303352.79646389,466420.828674889)
(24555723.2297231,210763.336576074,785465.908248272)
(24040686.6807481,98370.2202139483,1367042.3818629)
(23251403.6576171,43407.9314126914,2314652.17726437)
(21560099.0792255,47659.1519439194,4255760.51412991)
(16681876.4224844,33577.7132231346,10391141.5254263)
(0,0,0)
(0,0,0)
(0,0,0)
(0,0,0)
(0,0,0)
(0,0,0)
(25016264.5888604,650805.607250564,38965.8403103252)
(25000138.3472659,641048.329958887,83039.4556339469)
(24960021.2207381,619914.320683813,139988.982567741)
(24875593.3540267,584224.967521267,225102.580672291)
(24701614.8830979,529498.192628458,373784.100743055)
(24345372.6259685,452933.053782857,673001.506269577)
(23665552.7146209,362568.9406607,1312057.1225443)
(22887629.057561,283417.862915854,2318972.71602722)
(21401306.1444096,207241.517100721,4241744.46177632)
(16624008.7837477,111995.555952893,10357557.0826244)
(0,0,0)
(0,0,0)
(0,0,0)
(0,0,0)
(0,0,0)
(0,0,0)
(24796788.5427436,955057.800357273,29164.6104081098)
(24781797.8802463,947035.813104215,61887.2993087478)
(24743615.3772089,929969.537996676,104268.95410296)
(24660734.3351235,901813.327915301,170353.089823031)
(24484744.7965681,859140.656573733,297229.898881548)
(24118298.8980876,797194.537879633,582632.583955387)
(23429869.7363701,711440.25645372,1232927.7785293)
(22686282.3870882,601677.720927024,2242874.12895855)
(21266237.3581625,438227.942858727,4146555.70384299)
(16557737.7668358,231736.850422558,10245608.4667388)
(0,0,0)
(0,0,0)
(0,0,0)
(0,0,0)
(0,0,0)
(0,0,0)
(24389747.8051802,1424833.20691838,21087.75507743)
(24376711.3986844,1418625.10625185,44819.4304619052)
(24342922.2974639,1405810.99517746,76156.1044931339)
(24267704.3691071,1385406.7427926,127786.379739532)
(24103622.4947226,1355050.5400766,235394.502415765)
(23753221.5595421,1307895.64833076,496975.285284344)
(23085590.4820359,1225803.50691825,1123218.90951788)
(22414575.2338893,1080106.694757,2079463.75187517)
(21066275.5483653,788899.811385426,3940100.9201305)
(16444695.7535599,421741.254624435,10013904.4005121)
(0,0,0)
(0,0,0)
(0,0,0)
(0,0,0)
(0,0,0)
(0,0,0)
(23576155.3021961,2257961.00287927,14868.1875570536)
(23565892.5314631,2252891.94444358,32012.269658487)
(23539039.6492234,2242615.21318852,55835.5612926342)
(23478289.1385691,2226668.05320831,97587.7008636479)
(23343101.0731589,2203726.0655436,188396.38811446)
(23045863.3734437,2166982.53246765,415022.209239464)
(22461524.0204942,2082592.56532537,977626.512211793)
(22024017.1705763,1821195.2245183,1788282.49701231)
(20662823.6041001,1395092.05627634,3572955.36768881)
(16183010.4277165,797933.579914341,9592171.43360697)
(0,0,0)
(0,0,0)
(0,0,0)
(0,0,0)
(0,0,0)
(0,0,0)
(21737322.2777183,4170642.06896555,9857.45531174187)
(21730404.6176417,4165679.55926116,21834.4184214938)
(21712508.396702,4155055.57281978,40088.2707441268)
(21672808.3436861,4136552.66376313,74817.3395985704)
(21588214.2624964,4104014.28402606,151742.463162409)
(21416110.6436341,4039626.47658823,330707.501859644)
(21105903.9467383,3894777.3079613,716257.371736811)
(20670212.9473362,3564960.59402187,1362169.96795573)
(19440170.372013,2982017.14474046,2975790.80262818)
(15386799.5056862,1944221.08184313,8794206.73854296)
(0,0,0)
(0,0,0)
(0,0,0)
(0,0,0)
(0,0,0)
(0,0,0)
(16752341.5165193,10309152.3369934,5041.85117470314)
(16748906.0091963,10303893.1587524,11458.8177479268)
(16740148.2371861,10292076.6966016,21890.9864699645)
(16721112.173644,10269809.5658975,42482.5680668966)
(16681800.155145,10227065.0842419,87426.7614364631)
(16604469.2267166,10139475.8902336,185851.802672233)
(16461294.6730437,9953579.30543096,386380.132599052)
(16187125.8043148,9567274.41669972,779218.923352054)
(15387417.4931535,8788087.1816694,1937991.20404208)
(12511380.7378108,6850122.3224005,6850029.91823396)
(0,0,0)
(0,0,0)
(0,0,0)
(0,0,0)
(0,0,0)
(0,0,0)
(0,0,0)
(0,0,0)
(0,0,0)
(0,0,0)
(0,0,0)
(0,0,0)
(0,0,0)
(0,0,0)
(0,0,0)
(0,0,0)
(0,0,0)
(0,0,0)
(0,0,0)
(0,0,0)
(0,0,0)
(0,0,0)
(0,0,0)
(0,0,0)
(0,0,0)
(0,0,0)
(0,0,0)
(0,0,0)
(0,0,0)
(0,0,0)
(0,0,0)
(0,0,0)
(0,0,0)
(0,0,0)
(0,0,0)
(0,0,0)
(0,0,0)
(0,0,0)
(0,0,0)
(0,0,0)
(0,0,0)
(0,0,0)
(0,0,0)
(0,0,0)
(0,0,0)
(0,0,0)
(0,0,0)
(0,0,0)
(0,0,0)
(0,0,0)
(0,0,0)
(0,0,0)
(0,0,0)
(0,0,0)
(0,0,0)
(0,0,0)
(0,0,0)
(0,0,0)
(0,0,0)
(0,0,0)
(0,0,0)
(0,0,0)
(0,0,0)
(0,0,0)
(0,0,0)
(0,0,0)
(0,0,0)
(0,0,0)
(0,0,0)
(0,0,0)
(0,0,0)
(0,0,0)
(0,0,0)
(0,0,0)
(0,0,0)
(0,0,0)
(0,0,0)
(0,0,0)
(0,0,0)
(0,0,0)
(0,0,0)
(0,0,0)
(0,0,0)
(0,0,0)
(0,0,0)
(0,0,0)
(0,0,0)
(0,0,0)
(0,0,0)
(0,0,0)
(0,0,0)
(0,0,0)
(0,0,0)
(0,0,0)
(0,0,0)
(0,0,0)
(0,0,0)
(0,0,0)
(0,0,0)
(0,0,0)
(0,0,0)
(0,0,0)
(-440173.220384105,64255.547781724,53731.0357910942)
(-458442.16954365,60359.8303243471,113064.259930462)
(-499633.715220504,51817.3801656094,184201.64275311)
(-574516.484665271,37197.2948363544,274010.551173238)
(-702603.831885252,15071.4222201172,387961.507857176)
(-916231.09547191,-13596.1756277669,520037.946358777)
(-1265690.32909945,-39988.9908300395,616682.416463111)
(-1818813.10751067,-45515.9608468524,459128.081041655)
(-2611893.04895307,-31301.9493277981,-753673.03259438)
(-3201619.17193312,-14345.2134062376,-6374607.85042314)
(0,0,0)
(0,0,0)
(0,0,0)
(0,0,0)
(0,0,0)
(0,0,0)
(-459451.724950201,134790.677110297,49882.4856738972)
(-477375.100271362,127454.269650324,104572.992055788)
(-518138.868104309,111081.890304584,169588.28447309)
(-593111.176247126,82028.2915842873,251822.207877375)
(-723150.423466937,35257.472454461,359203.151572739)
(-942601.204685247,-31419.5499485252,493568.419781853)
(-1300262.63358058,-100951.49806911,611142.618374614)
(-1848029.72167656,-112793.659502672,473329.138938949)
(-2626556.54606451,-70091.9975225822,-736748.502090212)
(-3206799.31644223,-29369.219995828,-6360326.50966626)
(0,0,0)
(0,0,0)
(0,0,0)
(0,0,0)
(0,0,0)
(0,0,0)
(-502455.295529182,217491.255340727,42596.4663823478)
(-519748.701366136,207821.945751986,88235.6367304933)
(-559759.647537039,185789.061593392,140524.668855394)
(-635454.832052921,144960.040805913,204934.727572312)
(-772235.294603201,73394.7964825731,292396.075328575)
(-1014352.95888795,-44623.8569290353,423916.686441236)
(-1415818.02975459,-198076.643781157,599282.449824194)
(-1949203.39958785,-219697.144927966,516048.670994653)
(-2670977.73176064,-112613.895749292,-696019.315340395)
(-3221053.63413383,-39509.8748640988,-6331025.53804155)
(0,0,0)
(0,0,0)
(0,0,0)
(0,0,0)
(0,0,0)
(0,0,0)
(-579315.135741652,316558.45405229,32969.320567668)
(-595656.483491855,306390.50284409,66245.2319039826)
(-634503.829423576,283101.666604717,99677.0377821302)
(-711727.643762774,239084.974111969,133256.366932273)
(-863750.987790383,157064.601500688,174252.992794484)
(-1172323.51560564,350.326051114377,270358.711169683)
(-1774787.53175447,-276874.842220589,577664.278138231)
(-2280295.72889988,-320474.437183503,623174.112937307)
(-2782247.11381265,-111204.47194415,-622855.961803054)
(-3251603.32581146,-24328.1667330127,-6291524.76561162)
(0,0,0)
(0,0,0)
(0,0,0)
(0,0,0)
(0,0,0)
(0,0,0)
(-708349.053565657,431392.952188255,22812.3003166705)
(-723321.476142028,422720.010592997,42975.772002305)
(-759973.567415748,403480.787220304,55624.5955671588)
(-837167.966672013,369327.866094295,51176.1803101249)
(-1007203.54298397,312555.783646994,17536.580272258)
(-1442593.94096652,225738.677771409,-6852.04848637547)
(-2865965.76731479,126716.029335609,534108.717919677)
(-3400106.03387829,81906.6430878621,832495.885114188)
(-3000489.12971727,72047.6600344712,-535927.816710912)
(-3301685.07417375,45671.8986073772,-6267200.86810324)
(0,0,0)
(0,0,0)
(0,0,0)
(0,0,0)
(0,0,0)
(0,0,0)
(-920940.02899156,548041.701088165,14112.9788618369)
(-934006.209850044,541939.512701854,23730.722875907)
(-966798.951579168,529201.247263418,21457.7476474402)
(-1038579.19374844,508687.139195615,-5554.84055534)
(-1203923.84219931,477886.895118851,-69184.1572332045)
(-1638266.4243109,431942.641731151,-105789.642767844)
(-2992430.43874006,366920.441771545,489339.275932983)
(-3481905.15851403,329785.750128952,822680.870520675)
(-3101866.87563787,238122.129696531,-562256.209314468)
(-3351598.09158916,118615.191504592,-6312830.48776014)
(0,0,0)
(0,0,0)
(0,0,0)
(0,0,0)
(0,0,0)
(0,0,0)
(-1268405.47604127,611245.3369314,7982.80140479848)
(-1279145.24289451,607782.669734693,11029.4419775187)
(-1306678.72697597,601831.759609538,1033.11009786172)
(-1369235.06246933,595870.276814563,-36177.4399180404)
(-1521071.25833243,594364.191214011,-114927.826931522)
(-1946436.94534087,600347.022070779,-170640.546361616)
(-3358808.82133891,601541.223267562,452171.131543779)
(-3810840.98561512,689384.313878135,731021.943325567)
(-3255062.73484452,385289.076606012,-681773.564347428)
(-3433915.6047659,159943.652184681,-6431457.51067512)
(0,0,0)
(0,0,0)
(0,0,0)
(0,0,0)
(0,0,0)
(0,0,0)
(-1823079.97405675,418981.590114706,4532.17909609938)
(-1831154.15219746,417289.704122276,5104.98439566882)
(-1852121.26521679,415949.691462634,-4818.87699065401)
(-1901170.01806079,421010.499186734,-37466.7867063325)
(-2026848.4622404,448610.958051722,-108730.862118163)
(-2417159.95196856,536958.963931587,-169286.322540118)
(-3960026.46567573,726732.392710728,540106.150213277)
(-3227586.83768526,467173.488206652,426954.140172927)
(-3377004.26708406,172261.803149798,-907157.559160048)
(-3561314.79854675,1605.15842194308,-6591460.68310741)
(0,0,0)
(0,0,0)
(0,0,0)
(0,0,0)
(0,0,0)
(0,0,0)
(-2618724.81072029,-814849.994814635,2911.8293945366)
(-2623955.36392571,-816282.402872194,3877.07398305103)
(-2637340.85488479,-817727.18083461,436.353893664618)
(-2667475.51241042,-815563.960409942,-9672.17438655885)
(-2736705.46679516,-802830.461400608,-20277.8696160775)
(-2902235.5208083,-772464.383143946,20524.7979285013)
(-3264091.94917516,-750257.175605352,280543.418184619)
(-3382523.07743513,-918535.705672982,132021.792862163)
(-3693570.28631786,-1071098.41355002,-1077844.17608053)
(-3751820.74158653,-931440.086995806,-6593145.52736344)
(0,0,0)
(0,0,0)
(0,0,0)
(0,0,0)
(0,0,0)
(0,0,0)
(-3206852.28615333,-6444233.58935159,1610.55323623549)
(-3209390.24340797,-6446002.01747265,2659.57646753018)
(-3215772.69099156,-6448962.33447393,2848.81431117342)
(-3229678.03213989,-6452114.56413037,3222.77984212204)
(-3259412.03604954,-6455512.09133377,10149.7569964364)
(-3321755.37388479,-6465756.98158388,42700.1120643802)
(-3436955.94645029,-6508461.24391901,112187.955898684)
(-3565068.32159305,-6620570.9490051,-20549.5188347048)
(-3752965.42786523,-6600022.7724109,-938209.082928529)
(-3621690.23652198,-5661784.88756304,-5661760.15200188)
(0,0,0)
(0,0,0)
(0,0,0)
(0,0,0)
(0,0,0)
(0,0,0)
(0,0,0)
(0,0,0)
(0,0,0)
(0,0,0)
(0,0,0)
(0,0,0)
(0,0,0)
(0,0,0)
(0,0,0)
(0,0,0)
(0,0,0)
(0,0,0)
(0,0,0)
(0,0,0)
(0,0,0)
(0,0,0)
(0,0,0)
(0,0,0)
(0,0,0)
(0,0,0)
(0,0,0)
(0,0,0)
(0,0,0)
(0,0,0)
(0,0,0)
(0,0,0)
(0,0,0)
(0,0,0)
(0,0,0)
(0,0,0)
(0,0,0)
(0,0,0)
(0,0,0)
(0,0,0)
(0,0,0)
(0,0,0)
(0,0,0)
(0,0,0)
(0,0,0)
(0,0,0)
(0,0,0)
(0,0,0)
(0,0,0)
(0,0,0)
(0,0,0)
(0,0,0)
(0,0,0)
(0,0,0)
(0,0,0)
(0,0,0)
(0,0,0)
(0,0,0)
(0,0,0)
(0,0,0)
(0,0,0)
(0,0,0)
(0,0,0)
(0,0,0)
(0,0,0)
(0,0,0)
(0,0,0)
(0,0,0)
(0,0,0)
(0,0,0)
(0,0,0)
(0,0,0)
(0,0,0)
(0,0,0)
(0,0,0)
(0,0,0)
(0,0,0)
(0,0,0)
(0,0,0)
(0,0,0)
(0,0,0)
(0,0,0)
(0,0,0)
(0,0,0)
(0,0,0)
(0,0,0)
(0,0,0)
(0,0,0)
(0,0,0)
(0,0,0)
(0,0,0)
(0,0,0)
(0,0,0)
(0,0,0)
(0,0,0)
(0,0,0)
(0,0,0)
(0,0,0)
(0,0,0)
(0,0,0)
(0,0,0)
(0,0,0)
(-520732.346506082,45014.985106554,35544.1410154231)
(-536249.898396362,41435.0870943159,71916.7827738185)
(-570342.567431614,33320.6979252692,109304.937059659)
(-629716.022985524,18643.6259410316,145860.849438882)
(-725453.679730888,-5431.19705722776,174141.894341746)
(-872582.674628138,-39924.0499130312,170417.523411006)
(-1084149.16380416,-74526.9873136037,63403.345429323)
(-1346504.22749647,-74715.6873139624,-334189.847270915)
(-1556317.19636686,-45954.0636849059,-1343811.63617222)
(-1352309.77347215,-19516.2045627877,-3173604.83007041)
(0,0,0)
(0,0,0)
(0,0,0)
(0,0,0)
(0,0,0)
(0,0,0)
(-538262.942679939,91829.9039012887,31996.2989350034)
(-552885.335662338,85096.6855850412,63844.9358352534)
(-585073.785200508,69465.26511736,94635.2857393633)
(-641286.485756058,39722.3088079419,121731.912381385)
(-732660.172888361,-13772.205541862,139582.670287443)
(-875575.938456063,-103099.930732613,135733.284877842)
(-1085787.70230064,-216458.034586567,63189.4008708685)
(-1340178.97448553,-213946.254114013,-305430.779520113)
(-1546041.18873884,-114515.476873527,-1317384.72365715)
(-1345978.31253371,-43613.6550188585,-3154108.27710962)
(0,0,0)
(0,0,0)
(0,0,0)
(0,0,0)
(0,0,0)
(0,0,0)
(-576630.90509718,140692.532543968,25312.9809253196)
(-589554.8030899,131950.43550259,48265.3327315339)
(-617974.151509562,111064.515787044,64880.5860343731)
(-667698.659168924,68710.528897785,68136.1930605342)
(-749947.061217592,-18097.8497778655,50173.6039109279)
(-887033.559343403,-202556.022371909,22310.2960056784)
(-1118691.00363548,-557008.69857479,65733.9338747959)
(-1340710.22070637,-550776.51722964,-205928.981891048)
(-1521087.40737129,-223892.046870541,-1246442.73628338)
(-1330530.73492894,-70069.0512251458,-3110510.239282)
(0,0,0)
(0,0,0)
(0,0,0)
(0,0,0)
(0,0,0)
(0,0,0)
(-642788.019992544,187571.766162115,16593.650632745)
(-653308.569833969,178769.902499292,27426.2699781575)
(-676173.637191392,157644.346928768,22516.2466042495)
(-715356.81340321,113609.899890794,-18753.9547483226)
(-779807.658148955,13554.1230368883,-134349.257204502)
(-907070.480207838,-269977.035710736,-332181.279263483)
(-1367917.19369393,-1368081.56878245,72021.2528836343)
(-1439767.07172976,-1440302.00723464,121018.085718518)
(-1463116.72415797,-329456.743462355,-1092547.60734435)
(-1299368.39430754,-74421.550602716,-3040430.0394707)
(0,0,0)
(0,0,0)
(0,0,0)
(0,0,0)
(0,0,0)
(0,0,0)
(-747288.78420375,218724.610102168,7786.8866980391)
(-755024.980907085,211923.371674198,6336.92228818958)
(-770971.76294798,196495.909981802,-21516.445232613)
(-794002.183896276,167751.862625346,-118824.190742903)
(-810329.717594579,115684.406649453,-417828.299744863)
(-730121.239659069,29892.7809491426,-1430170.8177122)
(-7.162366292701e-05,-1.83318561761845e-05,4.65869411988146e-05)