/*--------------------------------*- C++ -*----------------------------------*\
| =========                 |                                                 |
| \\      /  F ield         | foam-extend: Open Source CFD                    |
|  \\    /   O peration     | Version:     4.0                                |
|   \\  /    A nd           | Web:         http://www.foam-extend.org         |
|    \\/     M anipulation  |                                                 |
\*---------------------------------------------------------------------------*/
FoamFile
{
    version 2.0;
    format ascii;
    class volVectorField;
    location "Data/2854";
    object      E;
}
// * * * * * * * * * * * * * * * * * * * * * * * * * * * * * * * * * * * * * //

dimensions      [0 1 -1 0 0 0 0];

internalField   nonuniform List<vector>
4096
(
(0,0,0)
(0,0,0)
(0,0,0)
(0,0,0)
(0,0,0)
(0,0,0)
(0,0,0)
(0,0,0)
(0,0,0)
(0,0,0)
(0,0,0)
(0,0,0)
(0,0,0)
(0,0,0)
(0,0,0)
(0,0,0)
(0,0,0)
(0,0,0)
(0,0,0)
(0,0,0)
(0,0,0)
(0,0,0)
(0,0,0)
(0,0,0)
(0,0,0)
(0,0,0)
(0,0,0)
(0,0,0)
(0,0,0)
(0,0,0)
(0,0,0)
(0,0,0)
(0,0,0)
(0,0,0)
(0,0,0)
(0,0,0)
(0,0,0)
(0,0,0)
(0,0,0)
(0,0,0)
(0,0,0)
(0,0,0)
(0,0,0)
(0,0,0)
(0,0,0)
(0,0,0)
(0,0,0)
(0,0,0)
(0,0,0)
(0,0,0)
(0,0,0)
(0,0,0)
(0,0,0)
(0,0,0)
(0,0,0)
(0,0,0)
(0,0,0)
(0,0,0)
(0,0,0)
(0,0,0)
(0,0,0)
(0,0,0)
(0,0,0)
(0,0,0)
(0,0,0)
(0,0,0)
(0,0,0)
(0,0,0)
(0,0,0)
(0,0,0)
(0,0,0)
(0,0,0)
(0,0,0)
(0,0,0)
(0,0,0)
(0,0,0)
(0,0,0)
(0,0,0)
(0,0,0)
(0,0,0)
(0,0,0)
(0,0,0)
(0,0,0)
(0,0,0)
(0,0,0)
(0,0,0)
(0,0,0)
(0,0,0)
(0,0,0)
(0,0,0)
(0,0,0)
(0,0,0)
(0,0,0)
(0,0,0)
(0,0,0)
(0,0,0)
(0,0,0)
(0,0,0)
(0,0,0)
(0,0,0)
(0,0,0)
(0,0,0)
(0,0,0)
(0,0,0)
(0,0,0)
(0,0,0)
(0,0,0)
(0,0,0)
(0,0,0)
(0,0,0)
(0,0,0)
(0,0,0)
(0,0,0)
(0,0,0)
(0,0,0)
(0,0,0)
(0,0,0)
(0,0,0)
(0,0,0)
(0,0,0)
(0,0,0)
(0,0,0)
(0,0,0)
(0,0,0)
(0,0,0)
(0,0,0)
(0,0,0)
(0,0,0)
(0,0,0)
(0,0,0)
(0,0,0)
(0,0,0)
(0,0,0)
(0,0,0)
(0,0,0)
(0,0,0)
(0,0,0)
(0,0,0)
(0,0,0)
(0,0,0)
(0,0,0)
(0,0,0)
(0,0,0)
(0,0,0)
(0,0,0)
(0,0,0)
(0,0,0)
(0,0,0)
(0,0,0)
(0,0,0)
(0,0,0)
(0,0,0)
(0,0,0)
(0,0,0)
(0,0,0)
(0,0,0)
(0,0,0)
(0,0,0)
(0,0,0)
(0,0,0)
(0,0,0)
(0,0,0)
(0,0,0)
(0,0,0)
(0,0,0)
(0,0,0)
(0,0,0)
(0,0,0)
(0,0,0)
(0,0,0)
(0,0,0)
(0,0,0)
(0,0,0)
(0,0,0)
(0,0,0)
(0,0,0)
(0,0,0)
(0,0,0)
(0,0,0)
(0,0,0)
(0,0,0)
(0,0,0)
(0,0,0)
(0,0,0)
(0,0,0)
(0,0,0)
(0,0,0)
(0,0,0)
(0,0,0)
(0,0,0)
(0,0,0)
(0,0,0)
(0,0,0)
(0,0,0)
(0,0,0)
(0,0,0)
(0,0,0)
(0,0,0)
(0,0,0)
(0,0,0)
(0,0,0)
(0,0,0)
(0,0,0)
(0,0,0)
(0,0,0)
(0,0,0)
(0,0,0)
(0,0,0)
(0,0,0)
(0,0,0)
(0,0,0)
(0,0,0)
(0,0,0)
(0,0,0)
(0,0,0)
(0,0,0)
(0,0,0)
(0,0,0)
(0,0,0)
(0,0,0)
(0,0,0)
(0,0,0)
(0,0,0)
(0,0,0)
(0,0,0)
(0,0,0)
(0,0,0)
(0,0,0)
(0,0,0)
(0,0,0)
(0,0,0)
(0,0,0)
(0,0,0)
(0,0,0)
(0,0,0)
(0,0,0)
(0,0,0)
(0,0,0)
(0,0,0)
(0,0,0)
(0,0,0)
(0,0,0)
(0,0,0)
(0,0,0)
(0,0,0)
(0,0,0)
(0,0,0)
(0,0,0)
(0,0,0)
(0,0,0)
(0,0,0)
(0,0,0)
(0,0,0)
(0,0,0)
(0,0,0)
(0,0,0)
(0,0,0)
(0,0,0)
(0,0,0)
(0,0,0)
(0,0,0)
(0,0,0)
(0,0,0)
(0,0,0)
(0,0,0)
(0,0,0)
(0,0,0)
(0,0,0)
(0,0,0)
(0,0,0)
(0,0,0)
(0,0,0)
(0,0,0)
(0,0,0)
(0,0,0)
(0,0,0)
(0,0,0)
(0,0,0)
(0,0,0)
(0,0,0)
(0,0,0)
(0,0,0)
(0,0,0)
(0,0,0)
(0,0,0)
(0,0,0)
(0,0,0)
(0,0,0)
(0,0,0)
(0,0,0)
(0,0,0)
(0,0,0)
(0,0,0)
(0,0,0)
(0,0,0)
(0,0,0)
(0,0,0)
(0,0,0)
(0,0,0)
(0,0,0)
(0,0,0)
(0,0,0)
(0,0,0)
(0,0,0)
(0,0,0)
(0,0,0)
(0,0,0)
(0,0,0)
(0,0,0)
(0,0,0)
(0,0,0)
(0,0,0)
(0,0,0)
(0,0,0)
(0,0,0)
(0,0,0)
(0,0,0)
(0,0,0)
(0,0,0)
(0,0,0)
(0,0,0)
(0,0,0)
(0,0,0)
(0,0,0)
(0,0,0)
(0,0,0)
(0,0,0)
(0,0,0)
(0,0,0)
(0,0,0)
(0,0,0)
(0,0,0)
(0,0,0)
(0,0,0)
(0,0,0)
(0,0,0)
(0,0,0)
(0,0,0)
(0,0,0)
(0,0,0)
(0,0,0)
(0,0,0)
(0,0,0)
(0,0,0)
(0,0,0)
(0,0,0)
(0,0,0)
(0,0,0)
(0,0,0)
(0,0,0)
(0,0,0)
(0,0,0)
(0,0,0)
(0,0,0)
(0,0,0)
(0,0,0)
(0,0,0)
(0,0,0)
(0,0,0)
(0,0,0)
(0,0,0)
(0,0,0)
(0,0,0)
(0,0,0)
(0,0,0)
(0,0,0)
(0,0,0)
(0,0,0)
(0,0,0)
(0,0,0)
(0,0,0)
(0,0,0)
(0,0,0)
(0,0,0)
(0,0,0)
(0,0,0)
(0,0,0)
(0,0,0)
(0,0,0)
(0,0,0)
(0,0,0)
(0,0,0)
(0,0,0)
(0,0,0)
(0,0,0)
(0,0,0)
(0,0,0)
(0,0,0)
(0,0,0)
(0,0,0)
(0,0,0)
(0,0,0)
(0,0,0)
(0,0,0)
(0,0,0)
(0,0,0)
(0,0,0)
(0,0,0)
(0,0,0)
(0,0,0)
(0,0,0)
(0,0,0)
(0,0,0)
(0,0,0)
(0,0,0)
(0,0,0)
(0,0,0)
(0,0,0)
(0,0,0)
(0,0,0)
(0,0,0)
(0,0,0)
(0,0,0)
(0,0,0)
(0,0,0)
(0,0,0)
(0,0,0)
(0,0,0)
(0,0,0)
(0,0,0)
(0,0,0)
(0,0,0)
(0,0,0)
(0,0,0)
(0,0,0)
(0,0,0)
(0,0,0)
(0,0,0)
(0,0,0)
(0,0,0)
(0,0,0)
(0,0,0)
(0,0,0)
(0,0,0)
(0,0,0)
(0,0,0)
(0,0,0)
(0,0,0)
(0,0,0)
(0,0,0)
(0,0,0)
(0,0,0)
(0,0,0)
(0,0,0)
(0,0,0)
(0,0,0)
(0,0,0)
(0,0,0)
(0,0,0)
(0,0,0)
(0,0,0)
(0,0,0)
(0,0,0)
(0,0,0)
(0,0,0)
(0,0,0)
(0,0,0)
(0,0,0)
(0,0,0)
(0,0,0)
(0,0,0)
(0,0,0)
(0,0,0)
(0,0,0)
(0,0,0)
(0,0,0)
(0,0,0)
(0,0,0)
(0,0,0)
(0,0,0)
(0,0,0)
(0,0,0)
(0,0,0)
(0,0,0)
(0,0,0)
(0,0,0)
(0,0,0)
(0,0,0)
(0,0,0)
(0,0,0)
(0,0,0)
(0,0,0)
(0,0,0)
(0,0,0)
(0,0,0)
(0,0,0)
(0,0,0)
(0,0,0)
(0,0,0)
(0,0,0)
(0,0,0)
(0,0,0)
(0,0,0)
(0,0,0)
(0,0,0)
(0,0,0)
(0,0,0)
(0,0,0)
(0,0,0)
(0,0,0)
(0,0,0)
(0,0,0)
(0,0,0)
(0,0,0)
(0,0,0)
(0,0,0)
(0,0,0)
(0,0,0)
(0,0,0)
(0,0,0)
(0,0,0)
(0,0,0)
(0,0,0)
(0,0,0)
(0,0,0)
(0,0,0)
(0,0,0)
(0,0,0)
(0,0,0)
(0,0,0)
(0,0,0)
(0,0,0)
(0,0,0)
(0,0,0)
(0,0,0)
(0,0,0)
(0,0,0)
(0,0,0)
(0,0,0)
(0,0,0)
(0,0,0)
(0,0,0)
(0,0,0)
(0,0,0)
(0,0,0)
(0,0,0)
(0,0,0)
(0,0,0)
(0,0,0)
(0,0,0)
(0,0,0)
(0,0,0)
(0,0,0)
(0,0,0)
(0,0,0)
(0,0,0)
(0,0,0)
(0,0,0)
(0,0,0)
(0,0,0)
(0,0,0)
(0,0,0)
(0,0,0)
(0,0,0)
(0,0,0)
(0,0,0)
(0,0,0)
(0,0,0)
(0,0,0)
(0,0,0)
(0,0,0)
(0,0,0)
(0,0,0)
(0,0,0)
(0,0,0)
(0,0,0)
(0,0,0)
(0,0,0)
(0,0,0)
(0,0,0)
(0,0,0)
(0,0,0)
(0,0,0)
(0,0,0)
(0,0,0)
(0,0,0)
(0,0,0)
(0,0,0)
(0,0,0)
(0,0,0)
(0,0,0)
(0,0,0)
(0,0,0)
(0,0,0)
(0,0,0)
(0,0,0)
(0,0,0)
(0,0,0)
(0,0,0)
(0,0,0)
(0,0,0)
(0,0,0)
(0,0,0)
(0,0,0)
(0,0,0)
(0,0,0)
(0,0,0)
(0,0,0)
(0,0,0)
(0,0,0)
(0,0,0)
(0,0,0)
(0,0,0)
(0,0,0)
(0,0,0)
(0,0,0)
(0,0,0)
(0,0,0)
(0,0,0)
(0,0,0)
(0,0,0)
(0,0,0)
(0,0,0)
(0,0,0)
(0,0,0)
(0,0,0)
(0,0,0)
(0,0,0)
(0,0,0)
(0,0,0)
(0,0,0)
(0,0,0)
(0,0,0)
(0,0,0)
(0,0,0)
(0,0,0)
(0,0,0)
(0,0,0)
(0,0,0)
(0,0,0)
(0,0,0)
(0,0,0)
(0,0,0)
(0,0,0)
(0,0,0)
(0,0,0)
(0,0,0)
(0,0,0)
(0,0,0)
(0,0,0)
(0,0,0)
(0,0,0)
(0,0,0)
(0,0,0)
(0,0,0)
(0,0,0)
(0,0,0)
(0,0,0)
(0,0,0)
(0,0,0)
(0,0,0)
(0,0,0)
(0,0,0)
(0,0,0)
(0,0,0)
(0,0,0)
(0,0,0)
(0,0,0)
(0,0,0)
(0,0,0)
(0,0,0)
(0,0,0)
(0,0,0)
(0,0,0)
(0,0,0)
(0,0,0)
(0,0,0)
(0,0,0)
(0,0,0)
(0,0,0)
(0,0,0)
(0,0,0)
(0,0,0)
(0,0,0)
(0,0,0)
(0,0,0)
(0,0,0)
(0,0,0)
(0,0,0)
(0,0,0)
(0,0,0)
(0,0,0)
(0,0,0)
(0,0,0)
(0,0,0)
(0,0,0)
(0,0,0)
(0,0,0)
(0,0,0)
(0,0,0)
(0,0,0)
(0,0,0)
(0,0,0)
(0,0,0)
(0,0,0)
(0,0,0)
(0,0,0)
(0,0,0)
(0,0,0)
(0,0,0)
(0,0,0)
(0,0,0)
(0,0,0)
(0,0,0)
(0,0,0)
(0,0,0)
(0,0,0)
(0,0,0)
(0,0,0)
(0,0,0)
(0,0,0)
(0,0,0)
(0,0,0)
(0,0,0)
(0,0,0)
(0,0,0)
(0,0,0)
(0,0,0)
(0,0,0)
(0,0,0)
(0,0,0)
(0,0,0)
(0,0,0)
(0,0,0)
(0,0,0)
(0,0,0)
(0,0,0)
(0,0,0)
(0,0,0)
(0,0,0)
(0,0,0)
(0,0,0)
(0,0,0)
(0,0,0)
(0,0,0)
(0,0,0)
(0,0,0)
(0,0,0)
(0,0,0)
(0,0,0)
(0,0,0)
(0,0,0)
(0,0,0)
(0,0,0)
(0,0,0)
(0,0,0)
(0,0,0)
(0,0,0)
(0,0,0)
(0,0,0)
(0,0,0)
(0,0,0)
(0,0,0)
(0,0,0)
(0,0,0)
(0,0,0)
(0,0,0)
(0,0,0)
(0,0,0)
(0,0,0)
(0,0,0)
(0,0,0)
(0,0,0)
(0,0,0)
(0,0,0)
(0,0,0)
(0,0,0)
(0,0,0)
(0,0,0)
(0,0,0)
(0,0,0)
(0,0,0)
(0,0,0)
(0,0,0)
(0,0,0)
(0,0,0)
(0,0,0)
(0,0,0)
(0,0,0)
(0,0,0)
(0,0,0)
(0,0,0)
(0,0,0)
(0,0,0)
(0,0,0)
(0,0,0)
(0,0,0)
(0,0,0)
(0,0,0)
(0,0,0)
(0,0,0)
(0,0,0)
(0,0,0)
(0,0,0)
(0,0,0)
(0,0,0)
(0,0,0)
(0,0,0)
(0,0,0)
(0,0,0)
(0,0,0)
(0,0,0)
(0,0,0)
(0,0,0)
(0,0,0)
(0,0,0)
(0,0,0)
(0,0,0)
(0,0,0)
(0,0,0)
(0,0,0)
(0,0,0)
(0,0,0)
(0,0,0)
(0,0,0)
(0,0,0)
(0,0,0)
(0,0,0)
(0,0,0)
(-111150.114319278,59006.8840217722,52143.2302975052)
(-117561.109562125,56630.7445612818,113073.595298348)
(-132406.564697216,51630.0840221409,193850.075973419)
(-160457.467252893,43689.0298919208,310618.513334401)
(-211063.47378546,32985.0663521665,488696.920767695)
(-301912.852997099,20658.66346748,769951.110297318)
(-466381.338539788,9381.45059403757,1226950.99824309)
(-763533.339334965,2425.05449996748,1988059.2830781)
(-1259420.81508674,72.2409994127152,3247407.85716539)
(-1754896.84692421,-166.474615204458,5002471.17870489)
(0,0,0)
(0,0,0)
(0,0,0)
(0,0,0)
(0,0,0)
(0,0,0)
(-117663.836273638,127009.462971059,49661.2573243493)
(-124117.953392145,122495.247208957,107914.708068822)
(-139181.030909755,112916.652942851,185809.170057865)
(-167877.291201723,97569.5889210401,299805.902230469)
(-219890.587888732,76374.9067200005,476306.649751364)
(-312897.611455165,51110.0228528736,758752.901821125)
(-479159.26844143,27143.8283154852,1220149.7925411)
(-775196.368676747,11931.4667730097,1985839.74894476)
(-1267206.47679845,5870.70648826227,3247247.7602544)
(-1758534.38537956,2972.20860231854,5002643.46241636)
(0,0,0)
(0,0,0)
(0,0,0)
(0,0,0)
(0,0,0)
(0,0,0)
(-132397.025707103,214407.797509182,44998.691168981)
(-138978.111405958,208314.685713182,98157.3640707167)
(-154512.587503509,195262.677145343,170323.927371739)
(-184634.848538224,174075.140756006,278453.224074996)
(-239951.103189822,143833.128363695,450946.105621112)
(-338690.404874974,105957.710854737,734788.822494225)
(-510631.532391144,67571.511174954,1204992.67202591)
(-804176.769515771,41198.9271575086,1979901.98115713)
(-1285879.31496837,27176.3423935874,3244475.66022024)
(-1766994.52566087,14718.500017702,4999723.89446572)
(0,0,0)
(0,0,0)
(0,0,0)
(0,0,0)
(0,0,0)
(0,0,0)
(-159804.770667365,335421.291720875,38791.2764556724)
(-166499.618569417,328613.113370868,84992.467367407)
(-182634.007206486,313932.34624976,148956.805469468)
(-214828.802693666,289823.71849667,248037.030422462)
(-275610.31546559,254478.382647529,413002.09160423)
(-385404.936947089,207974.525157895,696390.214248153)
(-570952.709368441,156305.524224062,1178608.91056748)
(-860256.192458876,114088.364462604,1965975.66572124)
(-1320075.50336049,81059.6466464221,3232167.86482884)
(-1781902.86685804,43618.596587468,4985170.63511728)
(0,0,0)
(0,0,0)
(0,0,0)
(0,0,0)
(0,0,0)
(0,0,0)
(-208892.358663918,512409.374578639,31904.2758061482)
(-215528.100372144,505773.430088426,70272.0594607319)
(-231974.140621136,491453.517877562,124725.028454065)
(-265931.68186262,467912.189927978,212568.238885379)
(-332363.913419972,433009.524414805,366401.010538075)
(-455866.172104834,385568.466696601,644673.241104183)
(-662873.833652979,327438.550772557,1136414.04820866)
(-945704.27441528,263091.057921893,1933115.6291647)
(-1369808.4237503,189077.653561003,3194906.04600052)
(-1803483.88117808,100215.835859895,4941792.68790617)
(0,0,0)
(0,0,0)
(0,0,0)
(0,0,0)
(0,0,0)
(0,0,0)
(-297451.023046478,784621.245796045,25239.1518290785)
(-303748.243421596,778724.373710626,56036.4516284675)
(-319654.981868904,765940.404903794,101204.546471141)
(-353286.743065531,744727.42325159,177676.05621305)
(-420433.476173792,712207.045110914,318912.011690741)
(-546295.110090617,664305.804240295,586469.784237674)
(-753933.627860079,595754.04482596,1072087.91804434)
(-1023923.76535935,499789.136621764,1859313.60470384)
(-1423734.36955724,365901.982990875,3106223.64483127)
(-1830657.34390011,195324.859210927,4841771.96538027)
(0,0,0)
(0,0,0)
(0,0,0)
(0,0,0)
(0,0,0)
(0,0,0)
(-460027.137636376,1225369.12806415,19279.2553682682)
(-465602.045319157,1220270.43827649,43335.236121573)
(-479889.030789658,1209113.79529043,80050.8765246002)
(-510599.160743469,1190137.1001771,145240.360342556)
(-572976.599961737,1159345.05385685,271078.951558351)
(-691248.28158679,1108712.61753631,517920.419849136)
(-886110.313193769,1023581.31660641,976203.46126247)
(-1131611.54336326,881878.856600323,1725725.28464716)
(-1504112.58595924,659772.093491742,2935967.76010548)
(-1874997.13367001,359475.887522466,4646813.86546405)
(0,0,0)
(0,0,0)
(0,0,0)
(0,0,0)
(0,0,0)
(0,0,0)
(-757377.66451273,1968611.43979549,14135.3527813841)
(-761828.223045266,1963936.19717307,32297.8169300853)
(-773340.188844298,1953567.19829794,61184.6027668944)
(-798319.564684155,1935102.77209367,114538.495534469)
(-849582.830508711,1902885.09540717,220581.284492869)
(-947903.119350049,1844262.4655061,432934.555873119)
(-1111095.96030052,1732874.41033793,834737.422442072)
(-1309842.76549756,1522455.1976031,1504003.84693689)
(-1650034.17184045,1177746.46342398,2636063.64884509)
(-1959775.15841684,667556.1893202,4287758.50546416)
(0,0,0)
(0,0,0)
(0,0,0)
(0,0,0)
(0,0,0)
(0,0,0)
(-1255293.95948163,3214365.99451888,9539.40475823229)
(-1258310.72883373,3209690.43415673,22095.8966082914)
(-1266127.4818984,3198959.442206,42831.13459857)
(-1282943.04811967,3178493.05839269,82383.8964191944)
(-1316799.69121865,3139932.55150178,162136.131543239)
(-1380403.86061,3064999.79589957,321802.661759781)
(-1487224.28851189,2917175.2222044,624726.138405207)
(-1645980.49536661,2633454.59013786,1159707.24123708)
(-1919128.70278511,2130377.63449963,2126204.77294643)
(-2107637.14143362,1280881.52693244,3620516.57676783)
(0,0,0)
(0,0,0)
(0,0,0)
(0,0,0)
(0,0,0)
(0,0,0)
(-1753017.87019879,4962529.90840938,4853.95630828372)
(-1754514.45630573,4957655.85492841,11402.9918423363)
(-1758403.15501012,4946267.60456328,22497.9844952014)
(-1766681.13235933,4923684.38649159,43987.7887556882)
(-1783056.93876684,4879515.89353972,87461.3854845957)
(-1813667.1564234,4791795.66530341,174332.672504131)
(-1867127.46455652,4617125.8055597,341509.553705327)
(-1957250.76220914,4275135.42234295,657079.483709354)
(-2107153.60007931,3617564.59527291,1277046.12301532)
(-2122164.12679617,2340168.08464881,2339923.69209518)
(0,0,0)
(0,0,0)
(0,0,0)
(0,0,0)
(0,0,0)
(0,0,0)
(0,0,0)
(0,0,0)
(0,0,0)
(0,0,0)
(0,0,0)
(0,0,0)
(0,0,0)
(0,0,0)
(0,0,0)
(0,0,0)
(0,0,0)
(0,0,0)
(0,0,0)
(0,0,0)
(0,0,0)
(0,0,0)
(0,0,0)
(0,0,0)
(0,0,0)
(0,0,0)
(0,0,0)
(0,0,0)
(0,0,0)
(0,0,0)
(0,0,0)
(0,0,0)
(0,0,0)
(0,0,0)
(0,0,0)
(0,0,0)
(0,0,0)
(0,0,0)
(0,0,0)
(0,0,0)
(0,0,0)
(0,0,0)
(0,0,0)
(0,0,0)
(0,0,0)
(0,0,0)
(0,0,0)
(0,0,0)
(0,0,0)
(0,0,0)
(0,0,0)
(0,0,0)
(0,0,0)
(0,0,0)
(0,0,0)
(0,0,0)
(0,0,0)
(0,0,0)
(0,0,0)
(0,0,0)
(0,0,0)
(0,0,0)
(0,0,0)
(0,0,0)
(0,0,0)
(0,0,0)
(0,0,0)
(0,0,0)
(0,0,0)
(0,0,0)
(0,0,0)
(0,0,0)
(0,0,0)
(0,0,0)
(0,0,0)
(0,0,0)
(0,0,0)
(0,0,0)
(0,0,0)
(0,0,0)
(0,0,0)
(0,0,0)
(0,0,0)
(0,0,0)
(0,0,0)
(0,0,0)
(0,0,0)
(0,0,0)
(0,0,0)
(0,0,0)
(0,0,0)
(0,0,0)
(0,0,0)
(0,0,0)
(0,0,0)
(0,0,0)
(0,0,0)
(0,0,0)
(0,0,0)
(0,0,0)
(0,0,0)
(0,0,0)
(16459540.8032861,52639.186503002,45715.4064563882)
(16448805.2417403,50179.620342184,98214.94537667)
(16424132.2213215,44914.4462525379,165807.223670077)
(16378020.9391462,36316.9664413701,260057.361394325)
(16295895.2165072,24207.7263775849,397936.455288816)
(16149811.4970098,9677.06457412893,605580.551272421)
(15881808.8770455,-3382.30497341437,929818.15122512)
(15352294.8691565,-9192.38101743993,1492227.83431585)
(14157455.1202154,-7655.53007146032,2752052.93964999)
(10912451.8044714,-3745.26690797314,6757495.06572713)
(0,0,0)
(0,0,0)
(0,0,0)
(0,0,0)
(0,0,0)
(0,0,0)
(16448442.0232681,112381.197427065,43197.6400990175)
(16437700.1934192,107746.468291523,92858.1559031233)
(16412824.0067026,97681.1237577472,157131.951350295)
(16365871.3781599,80899.9344320703,247845.824562788)
(16281500.1763079,56353.2957985348,383355.001510019)
(16131343.5738201,25295.1191731328,592541.272200507)
(15859272.9150822,-4350.27374352011,924122.568011798)
(15331954.1176444,-17051.0871639845,1493876.29840195)
(14144796.8709899,-12769.1741456805,2756032.10525252)
(10906905.6528026,-5443.04639089285,6761335.35711789)
(0,0,0)
(0,0,0)
(0,0,0)
(0,0,0)
(0,0,0)
(0,0,0)
(16423522.1341331,187076.0177491,38431.5304023363)
(16412746.5434846,180864.539564191,82634.3148038)
(16387397.0522735,167234.778765127,140216.530584245)
(16338406.2098323,143963.792834933,223157.124375722)
(16248205.8871209,108193.245206174,352205.695222162)
(16085774.4992095,59232.8057547611,562848.615120873)
(15798192.9969282,7244.18911740391,911475.133505434)
(15275912.0780153,-14893.1009477735,1498273.81032302)
(14112200.1437533,-7017.56062153529,2763488.2486418)
(10893382.9156845,-197.224133243819,6766910.49560362)
(0,0,0)
(0,0,0)
(0,0,0)
(0,0,0)
(0,0,0)
(0,0,0)
(16377808.0946086,286393.535352683,32115.127685145)
(16367067.841015,279589.941313665,68867.7769159964)
(16341112.7582746,264622.505166398,116778.795598408)
(16288920.9889429,238769.114386715,187269.192974888)
(16187976.8983798,197724.380026931,303196.354873573)
(15997742.578845,137503.236607725,510823.918793288)
(15662406.9853065,64396.5084555424,889357.415344977)
(15148334.282715,28656.1306851359,1506263.21910306)
(14046375.5853615,31349.5788267774,2770490.50149738)
(10868117.7396823,22029.291652053,6767288.88973673)
(0,0,0)
(0,0,0)
(0,0,0)
(0,0,0)
(0,0,0)
(0,0,0)
(16297439.9619999,423860.828322282,25245.8969313648)
(16286978.5720708,417554.736825154,53819.9395416595)
(16260888.7275155,403808.00749083,90817.0796454675)
(16205935.8357057,380598.50383056,146165.683197973)
(16092694.9032069,344961.773589102,242914.983573801)
(15860767.2617334,295144.303892426,437685.993015757)
(15418219.0828343,236376.973602876,853658.121945894)
(14911659.4665471,184879.589526281,1509116.43270717)
(13943117.6103836,135189.102065657,2761396.38589901)
(10830475.6012133,73038.2496337944,6745473.4560905)
(0,0,0)
(0,0,0)
(0,0,0)
(0,0,0)
(0,0,0)
(0,0,0)
(16154520.6945628,622036.942145683,18897.6791319218)
(16144766.0803746,616879.975110279,40103.6276153639)
(16119903.1611255,605772.334868438,67626.6678081812)
(16065936.5968376,587463.487320299,110583.854980228)
(15951362.5512903,559690.208756509,193104.902913451)
(15712773.3932742,519362.071595348,378864.142410444)
(15264616.4270135,463568.666615213,802167.905089348)
(14780466.989454,392093.001392652,1459609.24897438)
(13855098.4365169,285543.666801808,2699467.3887289)
(10787297.3090289,150984.858629975,6672611.6373683)
(0,0,0)
(0,0,0)
(0,0,0)
(0,0,0)
(0,0,0)
(0,0,0)
(15889388.934519,928019.22237179,13647.158183237)
(15880892.7592473,924068.575157112,29009.2641346721)
(15858849.8373602,915731.983704494,49356.2577135358)
(15809868.4090213,902491.889551906,82905.7962818268)
(15703019.4124336,882780.282559197,152865.220648539)
(15474863.0588854,852079.095244862,323082.367091462)
(15040192.6485492,798629.059963145,730764.522565236)
(14603264.0842309,703691.797011725,1353335.60991677)
(13724689.669251,513902.641518316,2565219.89055468)
(10713586.6704184,274710.924944951,6521955.53071613)
(0,0,0)
(0,0,0)
(0,0,0)
(0,0,0)
(0,0,0)
(0,0,0)
(15359388.4630017,1470688.47528478,9610.13013741335)
(15352688.0574975,1467479.50233023,20728.4329862641)
(15335121.3705198,1460855.22059459,36189.147296814)
(15295548.9811454,1450583.04460369,63274.956980218)
(15207523.7851963,1435723.09690152,122271.037497476)
(15014001.597608,1411773.10557597,269717.820773171)
(14633501.4127581,1356785.35196815,636009.666274355)
(14348572.5732731,1186409.54116264,1163922.09391735)
(13461666.0119303,908751.749656279,2326418.31257341)
(10543018.8522376,519756.217452028,6247624.51997653)
(0,0,0)
(0,0,0)
(0,0,0)
(0,0,0)
(0,0,0)
(0,0,0)
(14161413.2370626,2716606.94393993,6419.84536540647)
(14156927.3778469,2713491.78824199,14214.9633378607)
(14145216.5228312,2706730.07106197,26041.6187056103)
(14119330.9286597,2694840.16966923,48556.0274253867)
(14064254.0153712,2673740.98139962,98529.9469021075)
(13952221.3211785,2631778.73196648,214944.649288019)
(13750214.7223052,2537357.35167788,465979.149326079)
(13466439.2934194,2322336.1266114,886678.285656148)
(12665034.1034936,1942510.53528717,1937802.20431131)
(10024259.4380684,1266473.16861391,5728234.18421216)
(0,0,0)
(0,0,0)
(0,0,0)
(0,0,0)
(0,0,0)
(0,0,0)
(10913817.2246422,6715530.94839902,3286.41126457743)
(10911601.6185017,6712231.0422887,7476.59297510947)
(10905853.3704455,6704748.17362951,14247.4755167445)
(10893404.232077,6690444.82977587,27602.9615386319)
(10867818.0291615,6662697.15986259,56817.3257121972)
(10817502.7016793,6605626.91275704,120844.797383777)
(10724266.411573,6484449.41818569,251404.365311227)
(10545667.533182,6232596.75758589,507270.949510499)
(10024644.1107851,5724897.59698038,1262131.68751772)
(8150919.53319719,4462430.06839109,4462136.63831193)
(0,0,0)
(0,0,0)
(0,0,0)
(0,0,0)
(0,0,0)
(0,0,0)
(0,0,0)
(0,0,0)
(0,0,0)
(0,0,0)
(0,0,0)
(0,0,0)
(0,0,0)
(0,0,0)
(0,0,0)
(0,0,0)
(0,0,0)
(0,0,0)
(0,0,0)
(0,0,0)
(0,0,0)
(0,0,0)
(0,0,0)
(0,0,0)
(0,0,0)
(0,0,0)
(0,0,0)
(0,0,0)
(0,0,0)
(0,0,0)
(0,0,0)
(0,0,0)
(0,0,0)
(0,0,0)
(0,0,0)
(0,0,0)
(0,0,0)
(0,0,0)
(0,0,0)
(0,0,0)
(0,0,0)
(0,0,0)
(0,0,0)
(0,0,0)
(0,0,0)
(0,0,0)
(0,0,0)
(0,0,0)
(0,0,0)
(0,0,0)
(0,0,0)
(0,0,0)
(0,0,0)
(0,0,0)
(0,0,0)
(0,0,0)
(0,0,0)
(0,0,0)
(0,0,0)
(0,0,0)
(0,0,0)
(0,0,0)
(0,0,0)
(0,0,0)
(0,0,0)
(0,0,0)
(0,0,0)
(0,0,0)
(0,0,0)
(0,0,0)
(0,0,0)
(0,0,0)
(0,0,0)
(0,0,0)
(0,0,0)
(0,0,0)
(0,0,0)
(0,0,0)
(0,0,0)
(0,0,0)
(0,0,0)
(0,0,0)
(0,0,0)
(0,0,0)
(0,0,0)
(0,0,0)
(0,0,0)
(0,0,0)
(0,0,0)
(0,0,0)
(0,0,0)
(0,0,0)
(0,0,0)
(0,0,0)
(0,0,0)
(0,0,0)
(0,0,0)
(0,0,0)
(0,0,0)
(0,0,0)
(0,0,0)
(0,0,0)
(-286235.055685614,41773.3760189875,34956.9723879585)
(-298060.630494582,39282.610088928,73494.7239690179)
(-324832.891449199,33765.281254586,119649.044920473)
(-373578.694817908,24285.2930774596,177917.875242406)
(-457037.247291641,9916.3578884844,251888.470588037)
(-596316.991712641,-8724.08643009164,337695.535175925)
(-824052.743798591,-25873.3063864796,400384.951841888)
(-1184367.91115716,-29459.5312613205,297461.752852103)
(-1701067.24519964,-20232.3287886398,-492829.063509029)
(-2085438.3632852,-9237.15148331271,-4154747.2548338)
(0,0,0)
(0,0,0)
(0,0,0)
(0,0,0)
(0,0,0)
(0,0,0)
(-298930.00843876,87665.8133981493,32434.0837628758)
(-310544.078512008,82976.5038037695,67938.951414451)
(-337033.602444564,72399.1984243385,110117.132827125)
(-385791.587271167,53543.6394964938,163476.241274345)
(-470495.476148672,23126.9122966154,233215.82875799)
(-613511.591890116,-20239.5452514996,320540.942724853)
(-846539.712934929,-65439.6455457965,396874.399336501)
(-1203369.74621932,-73104.5696099439,306797.790984052)
(-1710611.57722612,-45342.4224337939,-481729.177719447)
(-2088812.41421331,-18933.4225956497,-4145360.35015583)
(0,0,0)
(0,0,0)
(0,0,0)
(0,0,0)
(0,0,0)
(0,0,0)
(-327052.729950527,141560.319410727,27634.8475064744)
(-338267.695185136,135331.069083593,57249.0103316951)
(-364262.854194466,121081.281471193,91181.3231879691)
(-413464.275468163,94571.0869750194,132978.850445053)
(-502515.105572515,47997.4839152508,189783.760955022)
(-660222.89210689,-28787.3533987621,275283.44985386)
(-921690.746352073,-128577.694609171,389259.731632677)
(-1269105.7900581,-142558.265197684,334685.784728967)
(-1739447.2055909,-72903.1625480174,-455151.636377191)
(-2098051.35560353,-25478.8560157363,-4126217.44223394)
(0,0,0)
(0,0,0)
(0,0,0)
(0,0,0)
(0,0,0)
(0,0,0)
(-377114.21008532,206104.478586159,21332.63495379)
(-387732.007181469,199534.180070184,42883.8615989255)
(-412981.601669142,184449.645735467,64564.3467136232)
(-463186.450437294,155842.135235743,86355.2272682638)
(-562144.888238404,102450.417396289,112978.569840608)
(-763069.836235387,494.992492038695,175463.128465448)
(-1155247.32255877,-179847.046549767,375341.277706535)
(-1484291.10636305,-208089.084048197,404451.975070229)
(-1811609.2865521,-71951.4866055942,-407560.339523234)
(-2117815.4707111,-15606.2213293768,-4100545.27438108)
(0,0,0)
(0,0,0)
(0,0,0)
(0,0,0)
(0,0,0)
(0,0,0)
(-461127.960140403,280912.133002317,14714.7571593584)
(-470867.702040709,275327.244923376,27722.4558529433)
(-494723.596786445,262848.970100298,35889.9452251746)
(-544969.787346786,240648.552006793,32943.6409419425)
(-655660.655522163,203696.543296541,11007.5632058841)
(-939089.213042783,147188.881384954,-4875.36147572846)
(-1865474.92131282,82762.2764251038,347163.809131739)
(-2212663.46666836,53644.7325316824,540707.41520256)
(-1953291.50482015,47154.5263995474,-351034.993163461)
(-2150306.48595651,29859.4264423919,-4084764.06433011)
(0,0,0)
(0,0,0)
(0,0,0)
(0,0,0)
(0,0,0)
(0,0,0)
(-599567.186963498,356866.756264089,9087.74769993159)
(-608096.336618849,352983.725873499,15248.1731785072)
(-629488.656568208,344739.911493103,13703.5389145767)
(-676246.607459087,331434.464844413,-3944.6801912683)
(-783921.173445085,311417.562956579,-45427.4856806357)
(-1066700.34796843,281498.05721417,-69308.4308319448)
(-1948149.68648837,239137.47654664,318036.971983549)
(-2266116.63955802,214870.588221165,534349.234741276)
(-2019476.84580253,155168.780334021,-368135.247438656)
(-2182852.39133106,77294.8660826566,-4114466.49728353)
(0,0,0)
(0,0,0)
(0,0,0)
(0,0,0)
(0,0,0)
(0,0,0)
(-825911.964537868,398017.466757305,5104.67799891571)
(-832931.676040974,395882.885550444,6984.443045517)
(-850943.514745785,392065.901634907,406.294444900893)
(-891714.355625682,388260.947528324,-23882.9341566893)
(-990612.087186723,387361.397037577,-75240.7791820951)
(-1267581.20387334,391265.708246284,-111609.678020085)
(-2187168.15289441,391982.188057049,293860.901348457)
(-2480997.89399284,449051.33073212,474896.626496526)
(-2119551.19462327,250968.446457825,-445707.686317605)
(-2236599.34061674,104179.075222686,-4191451.39498733)
(0,0,0)
(0,0,0)
(0,0,0)
(0,0,0)
(0,0,0)
(0,0,0)
(-1187279.82431967,272767.969944466,2872.27356937141)
(-1192568.13651109,271780.669571472,3185.17299220319)
(-1206337.63075619,271021.254842695,-3356.68950433593)
(-1238325.3540249,274452.296105623,-24719.2134760915)
(-1320159.24692232,292529.025246295,-71249.3201307785)
(-1574303.75746591,350069.146474182,-110792.913849609)
(-2579099.95039024,473610.605317987,351134.521472988)
(-2101864.75950921,304409.969908732,277167.704514029)
(-2199391.85354602,112250.566341084,-592102.0604576)
(-2319750.16805526,1071.28312966851,-4295270.7586363)
(0,0,0)
(0,0,0)
(0,0,0)
(0,0,0)
(0,0,0)
(0,0,0)
(-1705701.70939046,-531034.890035065,1872.29586779849)
(-1709108.1626786,-531841.246390263,2484.24179019026)
(-1717906.55286191,-532596.366372376,179.428133647505)
(-1737564.73054153,-531005.896926904,-6512.23019728215)
(-1782637.4593766,-522592.368576261,-13544.8721916008)
(-1890425.45219866,-502803.549302059,12929.0863968651)
(-2126131.87418187,-488408.525002871,182249.302639955)
(-2203141.37006289,-598213.87332657,85408.298792705)
(-2405818.08483364,-697672.270441315,-702862.18666237)
(-2443942.75748884,-606717.246939498,-4295916.97160075)
(0,0,0)
(0,0,0)
(0,0,0)
(0,0,0)
(0,0,0)
(0,0,0)
(-2088926.25103135,-4198360.47275535,1023.54782912482)
(-2090567.5457768,-4199392.92344299,1698.87859552407)
(-2094783.78800679,-4201105.73894222,1799.89905293291)
(-2103874.32509633,-4202948.23646702,1975.2852015304)
(-2123225.29085589,-4205040.47371342,6421.19979127282)
(-2163804.72438721,-4211701.79388566,27581.3598765345)
(-2238840.33040679,-4239588.04036833,72822.1066570204)
(-2322271.68717741,-4312825.82069359,-13672.2361814688)
(-2444694.37165138,-4299532.80192918,-611518.732821969)
(-2359266.90745119,-3688356.80908823,-3688738.24058971)
(0,0,0)
(0,0,0)
(0,0,0)
(0,0,0)
(0,0,0)
(0,0,0)
(0,0,0)
(0,0,0)
(0,0,0)
(0,0,0)
(0,0,0)
(0,0,0)
(0,0,0)
(0,0,0)
(0,0,0)
(0,0,0)
(0,0,0)
(0,0,0)
(0,0,0)
(0,0,0)
(0,0,0)
(0,0,0)
(0,0,0)
(0,0,0)
(0,0,0)
(0,0,0)
(0,0,0)
(0,0,0)
(0,0,0)
(0,0,0)
(0,0,0)
(0,0,0)
(0,0,0)
(0,0,0)
(0,0,0)
(0,0,0)
(0,0,0)
(0,0,0)
(0,0,0)
(0,0,0)
(0,0,0)
(0,0,0)
(0,0,0)
(0,0,0)
(0,0,0)
(0,0,0)
(0,0,0)
(0,0,0)
(0,0,0)
(0,0,0)
(0,0,0)
(0,0,0)
(0,0,0)
(0,0,0)
(0,0,0)
(0,0,0)
(0,0,0)
(0,0,0)
(0,0,0)
(0,0,0)
(0,0,0)
(0,0,0)
(0,0,0)
(0,0,0)
(0,0,0)
(0,0,0)
(0,0,0)
(0,0,0)
(0,0,0)
(0,0,0)
(0,0,0)
(0,0,0)
(0,0,0)
(0,0,0)
(0,0,0)
(0,0,0)
(0,0,0)
(0,0,0)
(0,0,0)
(0,0,0)
(0,0,0)
(0,0,0)
(0,0,0)
(0,0,0)
(0,0,0)
(0,0,0)
(0,0,0)
(0,0,0)
(0,0,0)
(0,0,0)
(0,0,0)
(0,0,0)
(0,0,0)
(0,0,0)
(0,0,0)
(0,0,0)
(0,0,0)
(0,0,0)
(0,0,0)
(0,0,0)
(0,0,0)
(0,0,0)
(-338687.641926726,29341.7673380688,23110.8189030426)
(-348683.075267423,27010.7393255902,46722.5243502978)
(-370785.471633056,21739.8986213486,70935.2059128094)
(-409402.822978695,12210.8538089792,94548.4802646145)
(-471797.599208094,-3448.11006059221,112756.942241659)
(-567788.265993114,-25880.3354944313,110108.552016563)
(-705726.373381314,-48356.9907002188,40139.1722995054)
(-876684.885816606,-48432.2445376389,-219111.608503411)
(-1013465.40527275,-29721.7055069708,-876991.742923288)
(-880770.093450558,-12587.6565453845,-2069072.35621252)
(0,0,0)
(0,0,0)
(0,0,0)
(0,0,0)
(0,0,0)
(0,0,0)
(-350212.904122803,59824.9340668176,20799.7289552932)
(-359643.447692053,55463.5253566765,41446.3121042527)
(-380515.012428617,45324.4520461609,61343.1686634978)
(-417050.216940768,25981.013716549,78831.638425523)
(-476574.948715797,-8839.8729681473,90302.8739001979)
(-569763.087062263,-66934.0639163946,87608.0974943143)
(-706761.751181946,-140615.376390761,40088.5214318758)
(-872527.527176912,-138858.717514595,-200327.224633576)
(-1006757.65860835,-74157.8543724102,-859744.994385895)
(-876644.967178569,-28155.1391028276,-2056344.95886326)
(0,0,0)
(0,0,0)
(0,0,0)
(0,0,0)
(0,0,0)
(0,0,0)
(-375285.537699892,91666.603555948,16391.1382602411)
(-383639.396033736,85988.1912113307,31238.1732541846)
(-402073.993594591,72441.4994095639,41932.2652909042)
(-434378.444561692,44877.7905159445,43949.6575850381)
(-487923.940824278,-11628.6146702788,32147.2345389311)
(-577254.404773098,-131625.74202685,13870.4253155795)
(-728140.93302895,-362172.558216527,41877.7938182217)
(-872724.828533537,-357825.743842634,-135536.141378324)
(-990410.926939853,-145139.706879251,-813590.567522525)
(-866537.006729274,-45265.1924262646,-2027994.86307336)
(0,0,0)
(0,0,0)
(0,0,0)
(0,0,0)
(0,0,0)
(0,0,0)
(-418310.16756896,122181.782631632,10680.7784079656)
(-425158.171262301,116473.413850804,17621.7198493288)
(-440019.644076327,102773.983363597,14327.2783024839)
(-465495.959389403,74105.9148085224,-12591.3370379842)
(-507451.373666084,8978.9333779691,-87892.3996585509)
(-590339.258469049,-175530.461728877,-216718.257722868)
(-890280.942425518,-890149.362297172,46292.1662245267)
(-936520.376737155,-936527.955986728,77223.6487427237)
(-952240.272217705,-213672.626372472,-713612.446098464)
(-846088.8350629,-48068.5744068227,-1982535.69976617)
(0,0,0)
(0,0,0)
(0,0,0)
(0,0,0)
(0,0,0)
(0,0,0)
(-486349.999713139,142455.411813242,4948.41039112537)
(-491410.83196365,138071.925295528,3893.02886934458)
(-501807.298544464,128072.286791183,-14321.5728002139)
(-516841.294875344,109370.829706512,-77714.9801696432)
(-527484.051621323,75476.1703728958,-272388.821065414)
(-475283.705663839,19579.5000790849,-931304.290252328)
(8.3483834171714e-05,2.28638224226835e-05,-5.4620772795779e-05)