/*--------------------------------*- C++ -*----------------------------------*\
| =========                 |                                                 |
| \\      /  F ield         | foam-extend: Open Source CFD                    |
|  \\    /   O peration     | Version:     4.0                                |
|   \\  /    A nd           | Web:         http://www.foam-extend.org         |
|    \\/     M anipulation  |                                                 |
\*---------------------------------------------------------------------------*/
FoamFile
{
    version 2.0;
    format ascii;
    class volVectorField;
    location "2333";
    object      H;
}
// * * * * * * * * * * * * * * * * * * * * * * * * * * * * * * * * * * * * * //

dimensions      [0 1 -1 0 0 0 0];

internalField   nonuniform List<vector>
4096
(
(0,0,0)
(0,0,0)
(0,0,0)
(0,0,0)
(0,0,0)
(0,0,0)
(0,0,0)
(0,0,0)
(0,0,0)
(0,0,0)
(0,0,0)
(0,0,0)
(0,0,0)
(0,0,0)
(0,0,0)
(0,0,0)
(0,0,0)
(0,0,0)
(0,0,0)
(0,0,0)
(0,0,0)
(0,0,0)
(0,0,0)
(0,0,0)
(0,0,0)
(0,0,0)
(0,0,0)
(0,0,0)
(0,0,0)
(0,0,0)
(0,0,0)
(0,0,0)
(0,0,0)
(0,0,0)
(0,0,0)
(0,0,0)
(0,0,0)
(0,0,0)
(0,0,0)
(0,0,0)
(0,0,0)
(0,0,0)
(0,0,0)
(0,0,0)
(0,0,0)
(0,0,0)
(0,0,0)
(0,0,0)
(0,0,0)
(0,0,0)
(0,0,0)
(0,0,0)
(0,0,0)
(0,0,0)
(0,0,0)
(0,0,0)
(0,0,0)
(0,0,0)
(0,0,0)
(0,0,0)
(0,0,0)
(0,0,0)
(0,0,0)
(0,0,0)
(0,0,0)
(0,0,0)
(0,0,0)
(0,0,0)
(0,0,0)
(0,0,0)
(0,0,0)
(0,0,0)
(0,0,0)
(0,0,0)
(0,0,0)
(0,0,0)
(0,0,0)
(0,0,0)
(0,0,0)
(0,0,0)
(0,0,0)
(0,0,0)
(0,0,0)
(0,0,0)
(0,0,0)
(0,0,0)
(0,0,0)
(0,0,0)
(0,0,0)
(0,0,0)
(0,0,0)
(0,0,0)
(0,0,0)
(0,0,0)
(0,0,0)
(0,0,0)
(0,0,0)
(0,0,0)
(0,0,0)
(0,0,0)
(0,0,0)
(0,0,0)
(0,0,0)
(0,0,0)
(0,0,0)
(0,0,0)
(0,0,0)
(0,0,0)
(0,0,0)
(0,0,0)
(0,0,0)
(0,0,0)
(0,0,0)
(0,0,0)
(0,0,0)
(0,0,0)
(0,0,0)
(0,0,0)
(0,0,0)
(0,0,0)
(0,0,0)
(0,0,0)
(0,0,0)
(0,0,0)
(0,0,0)
(0,0,0)
(0,0,0)
(0,0,0)
(0,0,0)
(0,0,0)
(0,0,0)
(0,0,0)
(0,0,0)
(0,0,0)
(0,0,0)
(0,0,0)
(0,0,0)
(0,0,0)
(0,0,0)
(0,0,0)
(0,0,0)
(0,0,0)
(0,0,0)
(0,0,0)
(0,0,0)
(0,0,0)
(0,0,0)
(0,0,0)
(0,0,0)
(0,0,0)
(0,0,0)
(0,0,0)
(0,0,0)
(0,0,0)
(0,0,0)
(0,0,0)
(0,0,0)
(0,0,0)
(0,0,0)
(0,0,0)
(0,0,0)
(0,0,0)
(0,0,0)
(0,0,0)
(0,0,0)
(0,0,0)
(0,0,0)
(0,0,0)
(0,0,0)
(0,0,0)
(0,0,0)
(0,0,0)
(0,0,0)
(0,0,0)
(0,0,0)
(0,0,0)
(0,0,0)
(0,0,0)
(0,0,0)
(0,0,0)
(0,0,0)
(0,0,0)
(0,0,0)
(0,0,0)
(0,0,0)
(0,0,0)
(0,0,0)
(0,0,0)
(0,0,0)
(0,0,0)
(0,0,0)
(0,0,0)
(0,0,0)
(0,0,0)
(0,0,0)
(0,0,0)
(0,0,0)
(0,0,0)
(0,0,0)
(0,0,0)
(0,0,0)
(0,0,0)
(0,0,0)
(0,0,0)
(0,0,0)
(0,0,0)
(0,0,0)
(0,0,0)
(0,0,0)
(0,0,0)
(0,0,0)
(0,0,0)
(0,0,0)
(0,0,0)
(0,0,0)
(0,0,0)
(0,0,0)
(0,0,0)
(0,0,0)
(0,0,0)
(0,0,0)
(0,0,0)
(0,0,0)
(0,0,0)
(0,0,0)
(0,0,0)
(0,0,0)
(0,0,0)
(0,0,0)
(0,0,0)
(0,0,0)
(0,0,0)
(0,0,0)
(0,0,0)
(0,0,0)
(0,0,0)
(0,0,0)
(0,0,0)
(0,0,0)
(0,0,0)
(0,0,0)
(0,0,0)
(0,0,0)
(0,0,0)
(0,0,0)
(0,0,0)
(0,0,0)
(0,0,0)
(0,0,0)
(0,0,0)
(0,0,0)
(0,0,0)
(0,0,0)
(0,0,0)
(0,0,0)
(0,0,0)
(0,0,0)
(0,0,0)
(0,0,0)
(0,0,0)
(0,0,0)
(0,0,0)
(0,0,0)
(0,0,0)
(0,0,0)
(0,0,0)
(0,0,0)
(0,0,0)
(0,0,0)
(0,0,0)
(0,0,0)
(0,0,0)
(0,0,0)
(0,0,0)
(0,0,0)
(0,0,0)
(0,0,0)
(0,0,0)
(0,0,0)
(0,0,0)
(0,0,0)
(0,0,0)
(0,0,0)
(0,0,0)
(0,0,0)
(0,0,0)
(0,0,0)
(0,0,0)
(0,0,0)
(0,0,0)
(0,0,0)
(0,0,0)
(0,0,0)
(0,0,0)
(0,0,0)
(0,0,0)
(0,0,0)
(0,0,0)
(0,0,0)
(0,0,0)
(0,0,0)
(0,0,0)
(0,0,0)
(0,0,0)
(0,0,0)
(0,0,0)
(0,0,0)
(0,0,0)
(0,0,0)
(0,0,0)
(0,0,0)
(0,0,0)
(0,0,0)
(0,0,0)
(0,0,0)
(0,0,0)
(0,0,0)
(0,0,0)
(0,0,0)
(0,0,0)
(0,0,0)
(0,0,0)
(0,0,0)
(0,0,0)
(0,0,0)
(0,0,0)
(0,0,0)
(0,0,0)
(0,0,0)
(0,0,0)
(0,0,0)
(0,0,0)
(0,0,0)
(0,0,0)
(0,0,0)
(0,0,0)
(0,0,0)
(0,0,0)
(0,0,0)
(0,0,0)
(0,0,0)
(0,0,0)
(0,0,0)
(0,0,0)
(0,0,0)
(0,0,0)
(0,0,0)
(0,0,0)
(0,0,0)
(0,0,0)
(0,0,0)
(0,0,0)
(0,0,0)
(0,0,0)
(0,0,0)
(0,0,0)
(0,0,0)
(0,0,0)
(0,0,0)
(0,0,0)
(0,0,0)
(0,0,0)
(0,0,0)
(0,0,0)
(0,0,0)
(0,0,0)
(0,0,0)
(0,0,0)
(0,0,0)
(0,0,0)
(0,0,0)
(0,0,0)
(0,0,0)
(0,0,0)
(0,0,0)
(0,0,0)
(0,0,0)
(0,0,0)
(0,0,0)
(0,0,0)
(0,0,0)
(0,0,0)
(0,0,0)
(0,0,0)
(0,0,0)
(0,0,0)
(0,0,0)
(0,0,0)
(0,0,0)
(0,0,0)
(0,0,0)
(0,0,0)
(0,0,0)
(0,0,0)
(0,0,0)
(0,0,0)
(0,0,0)
(0,0,0)
(0,0,0)
(0,0,0)
(0,0,0)
(0,0,0)
(0,0,0)
(0,0,0)
(0,0,0)
(0,0,0)
(0,0,0)
(0,0,0)
(0,0,0)
(0,0,0)
(0,0,0)
(0,0,0)
(0,0,0)
(0,0,0)
(0,0,0)
(0,0,0)
(0,0,0)
(0,0,0)
(0,0,0)
(0,0,0)
(0,0,0)
(0,0,0)
(0,0,0)
(0,0,0)
(0,0,0)
(0,0,0)
(0,0,0)
(0,0,0)
(0,0,0)
(0,0,0)
(0,0,0)
(0,0,0)
(0,0,0)
(0,0,0)
(0,0,0)
(0,0,0)
(0,0,0)
(0,0,0)
(0,0,0)
(0,0,0)
(0,0,0)
(0,0,0)
(0,0,0)
(0,0,0)
(0,0,0)
(0,0,0)
(0,0,0)
(0,0,0)
(0,0,0)
(0,0,0)
(0,0,0)
(0,0,0)
(0,0,0)
(0,0,0)
(0,0,0)
(0,0,0)
(0,0,0)
(0,0,0)
(0,0,0)
(0,0,0)
(0,0,0)
(0,0,0)
(0,0,0)
(0,0,0)
(0,0,0)
(0,0,0)
(0,0,0)
(0,0,0)
(0,0,0)
(0,0,0)
(0,0,0)
(0,0,0)
(0,0,0)
(0,0,0)
(0,0,0)
(0,0,0)
(0,0,0)
(0,0,0)
(0,0,0)
(0,0,0)
(0,0,0)
(0,0,0)
(0,0,0)
(0,0,0)
(0,0,0)
(0,0,0)
(0,0,0)
(0,0,0)
(0,0,0)
(0,0,0)
(0,0,0)
(0,0,0)
(0,0,0)
(0,0,0)
(0,0,0)
(0,0,0)
(0,0,0)
(0,0,0)
(0,0,0)
(0,0,0)
(0,0,0)
(0,0,0)
(0,0,0)
(0,0,0)
(0,0,0)
(0,0,0)
(0,0,0)
(0,0,0)
(0,0,0)
(0,0,0)
(0,0,0)
(0,0,0)
(0,0,0)
(0,0,0)
(0,0,0)
(0,0,0)
(0,0,0)
(0,0,0)
(0,0,0)
(0,0,0)
(0,0,0)
(0,0,0)
(0,0,0)
(0,0,0)
(0,0,0)
(0,0,0)
(0,0,0)
(0,0,0)
(0,0,0)
(0,0,0)
(0,0,0)
(0,0,0)
(0,0,0)
(0,0,0)
(0,0,0)
(0,0,0)
(0,0,0)
(0,0,0)
(0,0,0)
(0,0,0)
(0,0,0)
(0,0,0)
(0,0,0)
(0,0,0)
(0,0,0)
(0,0,0)
(0,0,0)
(0,0,0)
(0,0,0)
(0,0,0)
(0,0,0)
(0,0,0)
(0,0,0)
(0,0,0)
(0,0,0)
(0,0,0)
(0,0,0)
(0,0,0)
(0,0,0)
(0,0,0)
(0,0,0)
(0,0,0)
(0,0,0)
(0,0,0)
(0,0,0)
(0,0,0)
(0,0,0)
(0,0,0)
(0,0,0)
(0,0,0)
(0,0,0)
(0,0,0)
(0,0,0)
(0,0,0)
(0,0,0)
(0,0,0)
(0,0,0)
(0,0,0)
(0,0,0)
(0,0,0)
(0,0,0)
(0,0,0)
(0,0,0)
(0,0,0)
(0,0,0)
(0,0,0)
(0,0,0)
(0,0,0)
(0,0,0)
(0,0,0)
(0,0,0)
(0,0,0)
(0,0,0)
(0,0,0)
(0,0,0)
(0,0,0)
(0,0,0)
(0,0,0)
(0,0,0)
(0,0,0)
(0,0,0)
(0,0,0)
(0,0,0)
(0,0,0)
(0,0,0)
(0,0,0)
(0,0,0)
(0,0,0)
(0,0,0)
(0,0,0)
(0,0,0)
(0,0,0)
(0,0,0)
(0,0,0)
(0,0,0)
(0,0,0)
(0,0,0)
(0,0,0)
(0,0,0)
(0,0,0)
(0,0,0)
(0,0,0)
(0,0,0)
(0,0,0)
(0,0,0)
(0,0,0)
(0,0,0)
(0,0,0)
(0,0,0)
(0,0,0)
(0,0,0)
(0,0,0)
(0,0,0)
(0,0,0)
(0,0,0)
(0,0,0)
(0,0,0)
(0,0,0)
(0,0,0)
(0,0,0)
(0,0,0)
(0,0,0)
(0,0,0)
(0,0,0)
(0,0,0)
(0,0,0)
(0,0,0)
(0,0,0)
(0,0,0)
(0,0,0)
(0,0,0)
(0,0,0)
(0,0,0)
(0,0,0)
(0,0,0)
(0,0,0)
(0,0,0)
(0,0,0)
(0,0,0)
(0,0,0)
(0,0,0)
(0,0,0)
(0,0,0)
(0,0,0)
(0,0,0)
(0,0,0)
(0,0,0)
(0,0,0)
(0,0,0)
(0,0,0)
(0,0,0)
(0,0,0)
(0,0,0)
(0,0,0)
(0,0,0)
(0,0,0)
(0,0,0)
(0,0,0)
(0,0,0)
(0,0,0)
(0,0,0)
(0,0,0)
(0,0,0)
(0,0,0)
(0,0,0)
(0,0,0)
(0,0,0)
(0,0,0)
(0,0,0)
(0,0,0)
(0,0,0)
(0,0,0)
(0,0,0)
(0,0,0)
(0,0,0)
(0,0,0)
(0,0,0)
(0,0,0)
(0,0,0)
(0,0,0)
(0,0,0)
(0,0,0)
(0,0,0)
(0,0,0)
(0,0,0)
(0,0,0)
(0,0,0)
(0,0,0)
(0,0,0)
(0,0,0)
(0,0,0)
(0,0,0)
(0,0,0)
(0,0,0)
(0,0,0)
(0,0,0)
(0,0,0)
(0,0,0)
(0,0,0)
(0,0,0)
(0,0,0)
(0,0,0)
(0,0,0)
(0,0,0)
(0,0,0)
(0,0,0)
(0,0,0)
(0,0,0)
(0,0,0)
(0,0,0)
(0,0,0)
(0,0,0)
(0,0,0)
(0,0,0)
(0,0,0)
(0,0,0)
(0,0,0)
(0,0,0)
(0,0,0)
(0,0,0)
(0,0,0)
(0,0,0)
(0,0,0)
(0,0,0)
(0,0,0)
(0,0,0)
(0,0,0)
(0,0,0)
(0,0,0)
(0,0,0)
(0,0,0)
(0,0,0)
(0,0,0)
(0,0,0)
(0,0,0)
(0,0,0)
(0,0,0)
(0,0,0)
(0,0,0)
(0,0,0)
(0,0,0)
(0,0,0)
(0,0,0)
(0,0,0)
(0,0,0)
(0,0,0)
(0,0,0)
(0,0,0)
(0,0,0)
(0,0,0)
(0,0,0)
(0,0,0)
(0,0,0)
(0,0,0)
(0,0,0)
(0,0,0)
(0,0,0)
(0,0,0)
(0,0,0)
(0,0,0)
(0,0,0)
(0,0,0)
(0,0,0)
(0,0,0)
(0,0,0)
(0,0,0)
(0,0,0)
(0,0,0)
(0,0,0)
(0,0,0)
(0,0,0)
(0,0,0)
(0,0,0)
(0,0,0)
(0,0,0)
(0,0,0)
(0,0,0)
(0,0,0)
(0,0,0)
(0,0,0)
(0,0,0)
(0,0,0)
(0,0,0)
(0,0,0)
(0,0,0)
(0,0,0)
(0,0,0)
(0,0,0)
(0,0,0)
(0,0,0)
(0,0,0)
(0,0,0)
(0,0,0)
(0,0,0)
(0,0,0)
(0,0,0)
(0,0,0)
(0,0,0)
(0,0,0)
(1.14488315671958e-13,1.31487201846312e-11,-1.21019689217744e-11)
(7.10063326380393e-13,2.79658358304338e-11,-1.14718013160517e-11)
(9.55304593081689e-13,4.82108700394797e-11,-1.05809447617927e-11)
(9.41118729220937e-13,7.79006232752606e-11,-9.24636764368463e-12)
(3.86069923651096e-13,1.22105640004225e-10,-6.4891391617977e-12)
(-1.69048559846315e-13,1.89739630042581e-10,-3.65512680623265e-12)
(-1.7101611959596e-12,3.003246223815e-10,-1.53645328426079e-12)
(-2.7163095495195e-12,4.86264124649425e-10,-5.66876979998172e-13)
(-3.43125933065703e-12,7.92941493016928e-10,-8.55801696898977e-14)
(-4.26481023592806e-12,1.22157125663767e-09,-1.57401096579758e-13)
(0,0,0)
(0,0,0)
(0,0,0)
(0,0,0)
(0,0,0)
(0,0,0)
(1.09295226832865e-12,1.23695536446102e-11,-2.77980774251356e-11)
(2.18353268990384e-12,2.66703538603684e-11,-2.65859401867836e-11)
(2.00427532781483e-12,4.62523328604278e-11,-2.46007348890334e-11)
(1.0942704191468e-12,7.52080794961751e-11,-2.13770054959846e-11)
(1.00949111541444e-14,1.19430264862832e-10,-1.62741978272443e-11)
(-9.49857905271767e-13,1.88045588607065e-10,-1.09135220290489e-11)
(-4.19685421112377e-12,2.99755718514824e-10,-6.34897013805436e-12)
(-7.35775630756166e-12,4.86767617703875e-10,-4.16190002616721e-12)
(-9.40293141896534e-12,7.94213872266132e-10,-2.4691688128274e-12)
(-1.0673837543644e-11,1.22232416720791e-09,-1.18853461489212e-12)
(0,0,0)
(0,0,0)
(0,0,0)
(0,0,0)
(0,0,0)
(0,0,0)
(9.95929712016946e-13,1.11249423715029e-11,-4.81826018775783e-11)
(1.27352703128847e-12,2.47523874101628e-11,-4.66463996254412e-11)
(-5.01585562347891e-13,4.29519055118919e-11,-4.36501020064301e-11)
(-2.35312266261074e-12,7.01059103825651e-11,-3.89119666272389e-11)
(-2.99617386251268e-12,1.13692869204318e-10,-3.25145195538052e-11)
(-4.33759211591717e-12,1.83411010657498e-10,-2.51876242862567e-11)
(-9.25522706586519e-12,2.9761430958601e-10,-1.78522388394149e-11)
(-1.48032856482323e-11,4.86727623494951e-10,-1.29644642092599e-11)
(-1.83230762550726e-11,7.95448232606422e-10,-8.53703805900662e-12)
(-1.96992447226976e-11,1.22340588917725e-09,-4.17466265769002e-12)
(0,0,0)
(0,0,0)
(0,0,0)
(0,0,0)
(0,0,0)
(0,0,0)
(-5.25246704044882e-13,9.5772461778017e-12,-7.82943613861763e-11)
(-1.59544682116763e-12,2.18119967331469e-11,-7.67298089482565e-11)
(-3.83133789127072e-12,3.78074619030594e-11,-7.33413227951447e-11)
(-5.60189246251724e-12,6.24780042442083e-11,-6.7960799961277e-11)
(-7.26769131130652e-12,1.04593489543402e-10,-6.05935183754775e-11)
(-1.03668035443601e-11,1.74586352330628e-10,-5.16439328860088e-11)
(-1.63153001903385e-11,2.91945259645458e-10,-4.19439026216417e-11)
(-2.38502168431965e-11,4.84170910722426e-10,-3.24740621612125e-11)
(-2.93125276311574e-11,7.93868227546827e-10,-2.23407005694858e-11)
(-3.09896147894461e-11,1.22181804074589e-09,-1.14174060928664e-11)
(0,0,0)
(0,0,0)
(0,0,0)
(0,0,0)
(0,0,0)
(0,0,0)
(-1.11224067871973e-12,7.60691234060807e-12,-1.2133475090646e-10)
(-3.03759805813553e-12,1.75673622188025e-11,-1.19927842010489e-10)
(-5.0943449710496e-12,3.11821905537825e-11,-1.16876178659227e-10)
(-6.65490588189438e-12,5.315491272475e-11,-1.12199000211479e-10)
(-1.02276705879321e-11,9.23963015875532e-11,-1.0534525881685e-10)
(-1.6098903459103e-11,1.60829839837591e-10,-9.67667290919396e-11)
(-2.38199999484546e-11,2.80151257589028e-10,-8.65017110025619e-11)
(-3.16599261537997e-11,4.75819827850473e-10,-7.0023207143979e-11)
(-3.77311606151724e-11,7.85287263907416e-10,-4.92055103962849e-11)
(-4.03733018771082e-11,1.2122351709617e-09,-2.55393093022111e-11)
(0,0,0)
(0,0,0)
(0,0,0)
(0,0,0)
(0,0,0)
(0,0,0)
(-1.64496249502087e-12,5.35554989778947e-12,-1.85819864015134e-10)
(-3.97765666239326e-12,1.28726108989917e-11,-1.84643304815895e-10)
(-6.43267643916078e-12,2.44811320321945e-11,-1.82434582209395e-10)
(-8.09881985637101e-12,4.38633544585653e-11,-1.79451867537606e-10)
(-1.26222886358113e-11,7.95423951404717e-11,-1.73986704504856e-10)
(-1.98625500394491e-11,1.45234818888987e-10,-1.65513756247938e-10)
(-2.80899607659015e-11,2.64851385109643e-10,-1.52129882417794e-10)
(-3.5766787994092e-11,4.58602317963655e-10,-1.28028086007041e-10)
(-4.17268896865201e-11,7.64412591192274e-10,-9.26686854725959e-11)
(-4.46436976411998e-11,1.18864531582788e-09,-4.90423618853058e-11)
(0,0,0)
(0,0,0)
(0,0,0)
(0,0,0)
(0,0,0)
(0,0,0)
(-2.5160804918616e-12,3.60727876889676e-12,-2.92532299808167e-10)
(-3.96639033139958e-12,9.27319518392179e-12,-2.9212398908435e-10)
(-6.01464455831202e-12,1.8872765356145e-11,-2.90868117928135e-10)
(-8.2464537093398e-12,3.52589384722406e-11,-2.88696646057923e-10)
(-1.34125855262046e-11,6.68611050468506e-11,-2.83798818306164e-10)
(-2.14713430953811e-11,1.27508608278648e-10,-2.73985909016141e-10)
(-2.95379232474408e-11,2.41945675811647e-10,-2.53761108048853e-10)
(-3.7570669906466e-11,4.2689616616236e-10,-2.19329490039468e-10)
(-4.31539764817888e-11,7.23766629622926e-10,-1.63632242264777e-10)
(-4.6049239564253e-11,1.1419412961243e-09,-8.9035025036338e-11)
(0,0,0)
(0,0,0)
(0,0,0)
(0,0,0)
(0,0,0)
(0,0,0)
(-2.82027578581699e-12,2.31633216843694e-12,-4.73878213884184e-10)
(-4.00234890576023e-12,6.50003542717129e-12,-4.74129986314504e-10)
(-5.62557269163794e-12,1.38869163463192e-11,-4.73552440673705e-10)
(-8.02703306671171e-12,2.75322448150464e-11,-4.71266709021176e-10)
(-1.24670703836684e-11,5.53693236282193e-11,-4.65851335584351e-10)
(-2.01952750124102e-11,1.08818881189323e-10,-4.5337332189461e-10)
(-2.87442302742112e-11,2.08158876538733e-10,-4.26167252131942e-10)
(-3.7570673581786e-11,3.729849651091e-10,-3.74674906693577e-10)
(-4.39866966547082e-11,6.50750267306436e-10,-2.89712164795445e-10)
(-4.83742202690362e-11,1.05452374332626e-09,-1.64138954183795e-10)
(0,0,0)
(0,0,0)
(0,0,0)
(0,0,0)
(0,0,0)
(0,0,0)
(-2.53664030188338e-12,1.48131122926261e-12,-7.78802784332949e-10)
(-3.60532820181266e-12,4.2794908202714e-12,-7.79045248025e-10)
(-5.08208347065366e-12,9.18690941022772e-12,-7.78308590235348e-10)
(-7.35794458927215e-12,1.94257641077996e-11,-7.75329524367711e-10)
(-1.1969919265752e-11,4.10244052223533e-11,-7.683676073229e-10)
(-1.97060296002121e-11,8.13863892031483e-11,-7.51738939893944e-10)
(-2.77932174709297e-11,1.56291498028416e-10,-7.15851563427392e-10)
(-3.69730287382854e-11,2.88222471740103e-10,-6.46270422621429e-10)
(-4.5470077679124e-11,5.25249495295653e-10,-5.22474451238766e-10)
(-5.06090863867348e-11,8.90345281331319e-10,-3.14018991542372e-10)
(0,0,0)
(0,0,0)
(0,0,0)
(0,0,0)
(0,0,0)
(0,0,0)
(-3.02354882775858e-12,1.12025331892193e-12,-1.2070884780453e-09)
(-4.16798503730881e-12,2.42911173650305e-12,-1.20666846333894e-09)
(-5.43174636247188e-12,4.5960373539216e-12,-1.20534675489607e-09)
(-7.57049567466662e-12,1.02472639532322e-11,-1.20220211268757e-09)
(-1.27181393499681e-11,2.24140463479311e-11,-1.19395727891508e-09)
(-1.9903191984613e-11,4.43224565137637e-11,-1.17367330572009e-09)
(-2.84593519090298e-11,8.56769517466532e-11,-1.13142895015082e-09)
(-3.75275941526914e-11,1.63548449428598e-10,-1.04797752134921e-09)
(-4.65339540916142e-11,3.1541325705243e-10,-8.86334669621603e-10)
(-5.23002668342245e-11,5.74901663622443e-10,-5.73116100751352e-10)
(0,0,0)
(0,0,0)
(0,0,0)
(0,0,0)
(0,0,0)
(0,0,0)
(0,0,0)
(0,0,0)
(0,0,0)
(0,0,0)
(0,0,0)
(0,0,0)
(0,0,0)
(0,0,0)
(0,0,0)
(0,0,0)
(0,0,0)
(0,0,0)
(0,0,0)
(0,0,0)
(0,0,0)
(0,0,0)
(0,0,0)
(0,0,0)
(0,0,0)
(0,0,0)
(0,0,0)
(0,0,0)
(0,0,0)
(0,0,0)
(0,0,0)
(0,0,0)
(0,0,0)
(0,0,0)
(0,0,0)
(0,0,0)
(0,0,0)
(0,0,0)
(0,0,0)
(0,0,0)
(0,0,0)
(0,0,0)
(0,0,0)
(0,0,0)
(0,0,0)
(0,0,0)
(0,0,0)
(0,0,0)
(0,0,0)
(0,0,0)
(0,0,0)
(0,0,0)
(0,0,0)
(0,0,0)
(0,0,0)
(0,0,0)
(0,0,0)
(0,0,0)
(0,0,0)
(0,0,0)
(0,0,0)
(0,0,0)
(0,0,0)
(0,0,0)
(0,0,0)
(0,0,0)
(0,0,0)
(0,0,0)
(0,0,0)
(0,0,0)
(0,0,0)
(0,0,0)
(0,0,0)
(0,0,0)
(0,0,0)
(0,0,0)
(0,0,0)
(0,0,0)
(0,0,0)
(0,0,0)
(0,0,0)
(0,0,0)
(0,0,0)
(0,0,0)
(0,0,0)
(0,0,0)
(0,0,0)
(0,0,0)
(0,0,0)
(0,0,0)
(0,0,0)
(0,0,0)
(0,0,0)
(0,0,0)
(0,0,0)
(0,0,0)
(0,0,0)
(0,0,0)
(0,0,0)
(0,0,0)
(0,0,0)
(0,0,0)
(2.63487249966938e-13,2.51771120008556e-11,-2.46931167868478e-11)
(1.1146887421835e-12,5.39854366921956e-11,-2.33842048246082e-11)
(1.57926465400346e-12,9.06714973135557e-11,-2.06957532503232e-11)
(8.76434026418969e-13,1.43217915171641e-10,-1.6992709911692e-11)
(2.27432709426085e-13,2.2169391366366e-10,-1.17156404126668e-11)
(-5.93680646278018e-13,3.40207101089428e-10,-5.91712353385912e-12)
(-2.11083363347546e-12,5.29461292855445e-10,-1.29001219541854e-12)
(-3.701099414411e-12,8.51500595635767e-10,7.63812148987247e-13)
(-4.63181765333623e-12,1.46498065767461e-09,1.03147617803977e-12)
(-5.1751219032495e-12,2.87139658070246e-09,3.35276460629073e-13)
(0,0,0)
(0,0,0)
(0,0,0)
(0,0,0)
(0,0,0)
(0,0,0)
(1.12542630308515e-12,2.34875213563035e-11,-5.48038809255567e-11)
(2.11629384236317e-12,5.09917183834704e-11,-5.1812713190495e-11)
(2.0809732833082e-12,8.6671864990505e-11,-4.65179894198837e-11)
(1.09363186401035e-12,1.37638902388927e-10,-3.8892508701876e-11)
(3.86814771473599e-13,2.15922530028449e-10,-2.87439551286341e-11)
(-8.79831846716073e-13,3.36363372345803e-10,-1.68885068566831e-11)
(-4.24251539431092e-12,5.28503430408838e-10,-6.29121026394078e-12)
(-9.01049331173042e-12,8.53063169368636e-10,-1.87460578400213e-12)
(-1.19179259568184e-11,1.46792779119478e-09,-8.86497550268461e-13)
(-1.29440941276338e-11,2.87375800715862e-09,-8.35618361295647e-13)
(0,0,0)
(0,0,0)
(0,0,0)
(0,0,0)
(0,0,0)
(0,0,0)
(1.00742365358191e-12,2.0694421072218e-11,-9.30387567969398e-11)
(1.21762008929891e-12,4.58914998023849e-11,-8.90280626273492e-11)
(-9.52773326926456e-14,7.91590765929336e-11,-8.19004177376569e-11)
(-1.12266359768008e-12,1.27156686449626e-10,-7.14927866665296e-11)
(-1.22368946920027e-12,2.03835961335215e-10,-5.74118199221798e-11)
(-2.84831923589188e-12,3.26231975721013e-10,-3.92344742199856e-11)
(-8.47395175544572e-12,5.25001969345264e-10,-2.14408372851776e-11)
(-1.66739990261464e-11,8.55208088013887e-10,-1.34256059979894e-11)
(-2.11054465970377e-11,1.47219650302128e-09,-9.56907912106535e-12)
(-2.22860589491995e-11,2.8774602817778e-09,-5.49134752580053e-12)
(0,0,0)
(0,0,0)
(0,0,0)
(0,0,0)
(0,0,0)
(0,0,0)
(-1.19465304771941e-13,1.73262927953278e-11,-1.46098432258716e-10)
(-7.39298459938284e-13,3.91424145198772e-11,-1.4223522200342e-10)
(-2.58658937586954e-12,6.83178603134382e-11,-1.34669344669771e-10)
(-3.64608252885392e-12,1.11574040349747e-10,-1.23072256942524e-10)
(-4.02008884493894e-12,1.83810142996429e-10,-1.0664256550707e-10)
(-6.31032131566412e-12,3.0594414248825e-10,-8.49206492457152e-11)
(-1.39911385943589e-11,5.1437681691002e-10,-6.17534239898934e-11)
(-2.56324955628607e-11,8.54629812048249e-10,-4.71375257561386e-11)
(-3.16548584679177e-11,1.47301887409934e-09,-3.41153633759192e-11)
(-3.28241510972877e-11,2.87728532550748e-09,-1.82792890670751e-11)
(0,0,0)
(0,0,0)
(0,0,0)
(0,0,0)
(0,0,0)
(0,0,0)
(-2.67787131871952e-13,1.33728299477757e-11,-2.21375216859505e-10)
(-1.39451008958948e-12,3.06962699074681e-11,-2.18244482572106e-10)
(-3.07046489720949e-12,5.45911004325784e-11,-2.11757905870749e-10)
(-4.21708901034573e-12,9.13025473021253e-11,-2.01621837539125e-10)
(-5.95229386575192e-12,1.55620493501448e-10,-1.87486302738343e-10)
(-1.0768900599878e-11,2.71912962135194e-10,-1.70810336909545e-10)
(-2.49986313276588e-11,4.87007911096868e-10,-1.5636134135868e-10)
(-3.5260113014481e-11,8.45119062781455e-10,-1.22710226775437e-10)
(-4.05226889941618e-11,1.46280684504785e-09,-8.56020426187122e-11)
(-4.23227560459613e-11,2.86393031700986e-09,-4.43893081587976e-11)
(0,0,0)
(0,0,0)
(0,0,0)
(0,0,0)
(0,0,0)
(0,0,0)
(-1.07325056536684e-12,9.57058158179985e-12,-3.32628350640656e-10)
(-2.5869635538245e-12,2.22964349586929e-11,-3.30395484097203e-10)
(-3.80702443490415e-12,4.10635465514891e-11,-3.26163776863523e-10)
(-4.95956690278421e-12,7.113026412812e-11,-3.19767447699395e-10)
(-8.41394679909653e-12,1.27284373513331e-10,-3.10014196751202e-10)
(-1.55202132592873e-11,2.38582966724153e-10,-2.96469406181431e-10)
(-2.9286047878591e-11,4.63604635274148e-10,-2.7741612520201e-10)
(-3.94200367272224e-11,8.19487900911446e-10,-2.314439204644e-10)
(-4.47072517045667e-11,1.42922959346675e-09,-1.65568567138045e-10)
(-4.69820398226933e-11,2.8244588833326e-09,-8.67999158115825e-11)
(0,0,0)
(0,0,0)
(0,0,0)
(0,0,0)
(0,0,0)
(0,0,0)
(-1.63344461521995e-12,6.50297153450121e-12,-5.13753129559547e-10)
(-2.44910173086329e-12,1.56377649189202e-11,-5.1240897807209e-10)
(-3.20026741869721e-12,3.02281374345856e-11,-5.10006791575329e-10)
(-5.41758780391232e-12,5.40778057632771e-11,-5.06707639410904e-10)
(-1.17337133975746e-11,1.01308896547089e-10,-5.01465290547088e-10)
(-2.30064169733199e-11,2.01375025356427e-10,-4.89782764652511e-10)
(-3.01827419838671e-11,4.24353544036604e-10,-4.52973035208556e-10)
(-3.93567166280341e-11,7.64356659162692e-10,-3.96523317904186e-10)
(-4.47348313940425e-11,1.35742732154924e-09,-2.92015653040872e-10)
(-4.76667118020224e-11,2.74182949539711e-09,-1.57154771208498e-10)
(0,0,0)
(0,0,0)
(0,0,0)
(0,0,0)
(0,0,0)
(0,0,0)
(-1.733482416323e-12,4.05209976325054e-12,-8.2789028350822e-10)
(-2.3593499396589e-12,1.07128515568809e-11,-8.2710089876629e-10)
(-3.21129740807173e-12,2.2357955318159e-11,-8.25591677674134e-10)
(-5.3359257962885e-12,4.29696523790312e-11,-8.23040636333717e-10)
(-1.06001656675692e-11,8.64907537817584e-11,-8.17768882339997e-10)
(-1.99688527888784e-11,1.79200947010696e-10,-8.02960264887329e-10)
(-2.83691972022213e-11,3.68022926283513e-10,-7.61477753561705e-10)
(-3.77709221110977e-11,6.63270975542748e-10,-6.68754008816124e-10)
(-4.40591352554219e-11,1.22554934047193e-09,-5.14719018593753e-10)
(-4.83347124584792e-11,2.58678511702859e-09,-2.92656782094096e-10)
(0,0,0)
(0,0,0)
(0,0,0)
(0,0,0)
(0,0,0)
(0,0,0)
(-1.93311869949152e-12,2.34774909239863e-12,-1.43749420471844e-09)
(-2.49160690769535e-12,7.1151194159419e-12,-1.437146642722e-09)
(-3.47027728198296e-12,1.57439683371745e-11,-1.43550465078981e-09)
(-5.14136147951214e-12,3.22311582239588e-11,-1.43143370582877e-09)
(-9.98822782027278e-12,6.7227367191769e-11,-1.42184809253627e-09)
(-1.8529473377398e-11,1.38123985001656e-10,-1.39747412178264e-09)
(-2.67598119951321e-11,2.74081519397826e-10,-1.33929763873319e-09)
(-3.60949778094527e-11,5.09208043595998e-10,-1.21715563244827e-09)
(-4.408929913231e-11,1.00356421540533e-09,-9.99782915818874e-10)
(-4.91844602201293e-11,2.29409551124289e-09,-6.24993544069359e-10)
(0,0,0)
(0,0,0)
(0,0,0)
(0,0,0)
(0,0,0)
(0,0,0)
(-2.32331021519445e-12,1.45313934572616e-12,-2.84268636622598e-09)
(-3.06058174368012e-12,3.99116997950178e-12,-2.84207083950001e-09)
(-3.98035121704604e-12,8.46212371698466e-12,-2.83980380761321e-09)
(-5.56806549392721e-12,1.7922439163158e-11,-2.83466622950856e-09)
(-1.05880661970399e-11,3.77608735773879e-11,-2.82150782201162e-09)
(-1.78250910401269e-11,7.60950449680396e-11,-2.78936327528815e-09)
(-2.62338289639959e-11,1.49358273995795e-10,-2.71850227223113e-09)
(-3.56219964516573e-11,2.8987344694949e-10,-2.57332482495559e-09)
(-4.43392659094323e-11,6.26645453922169e-10,-2.28722774280389e-09)
(-5.0514703963048e-11,1.66741352904058e-09,-1.66446189477814e-09)
(0,0,0)
(0,0,0)
(0,0,0)
(0,0,0)
(0,0,0)
(0,0,0)
(0,0,0)
(0,0,0)
(0,0,0)
(0,0,0)
(0,0,0)
(0,0,0)
(0,0,0)
(0,0,0)
(0,0,0)
(0,0,0)
(0,0,0)
(0,0,0)
(0,0,0)
(0,0,0)
(0,0,0)
(0,0,0)
(0,0,0)
(0,0,0)
(0,0,0)
(0,0,0)
(0,0,0)
(0,0,0)
(0,0,0)
(0,0,0)
(0,0,0)
(0,0,0)
(0,0,0)
(0,0,0)
(0,0,0)
(0,0,0)
(0,0,0)
(0,0,0)
(0,0,0)
(0,0,0)
(0,0,0)
(0,0,0)
(0,0,0)
(0,0,0)
(0,0,0)
(0,0,0)
(0,0,0)
(0,0,0)
(0,0,0)
(0,0,0)
(0,0,0)
(0,0,0)
(0,0,0)
(0,0,0)
(0,0,0)
(0,0,0)
(0,0,0)
(0,0,0)
(0,0,0)
(0,0,0)
(0,0,0)
(0,0,0)
(0,0,0)
(0,0,0)
(0,0,0)
(0,0,0)
(0,0,0)
(0,0,0)
(0,0,0)
(0,0,0)
(0,0,0)
(0,0,0)
(0,0,0)
(0,0,0)
(0,0,0)
(0,0,0)
(0,0,0)
(0,0,0)
(0,0,0)
(0,0,0)
(0,0,0)
(0,0,0)
(0,0,0)
(0,0,0)
(0,0,0)
(0,0,0)
(0,0,0)
(0,0,0)
(0,0,0)
(0,0,0)
(0,0,0)
(0,0,0)
(0,0,0)
(0,0,0)
(0,0,0)
(0,0,0)
(0,0,0)
(0,0,0)
(0,0,0)
(0,0,0)
(0,0,0)
(0,0,0)
(6.44165932259414e-13,3.42526196037994e-11,-3.52918831457326e-11)
(1.41995547631485e-12,7.32412380896003e-11,-3.32408052845832e-11)
(1.87585363909559e-12,1.21989172411208e-10,-2.88674443709965e-11)
(1.17837731046831e-12,1.9030893591027e-10,-2.27163771902577e-11)
(2.00299465466142e-13,2.86781441232051e-10,-1.42700305456676e-11)
(-1.37706324110924e-12,4.25586845518112e-10,-4.31502518385432e-12)
(-3.20679553160102e-12,6.2917266941129e-10,4.03690305954429e-12)
(-5.53133717635494e-12,9.24207045546673e-10,6.49695469516493e-12)
(-6.88275145601938e-12,1.3434248932761e-09,5.0130774682756e-12)
(-7.2012718990779e-12,1.85463177272521e-09,2.26666657971503e-12)
(0,0,0)
(0,0,0)
(0,0,0)
(0,0,0)
(0,0,0)
(0,0,0)
(9.27358851654031e-13,3.23289902449412e-11,-7.65822243781555e-11)
(1.92178865228476e-12,6.93555002819908e-11,-7.22663692891706e-11)
(1.9682809619485e-12,1.16287693192289e-10,-6.3944649490406e-11)
(1.42729423076352e-12,1.81774885095457e-10,-5.14297061680266e-11)
(6.17935192862766e-13,2.77171134534642e-10,-3.41114998739464e-11)
(-1.34573181463123e-12,4.18330216241092e-10,-1.24769340780354e-11)
(-5.15765881190428e-12,6.28300684901905e-10,7.70722540731223e-12)
(-1.21435201892147e-11,9.28158019463406e-10,1.21624117433625e-11)
(-1.62375169724621e-11,1.34901772421177e-09,8.20599784112859e-12)
(-1.74819871078708e-11,1.85976051673262e-09,3.12783315799815e-12)
(0,0,0)
(0,0,0)
(0,0,0)
(0,0,0)
(0,0,0)
(0,0,0)
(3.64857758882574e-13,2.83080229073454e-11,-1.27462806540521e-10)
(8.39060483329649e-13,6.15150188390686e-11,-1.21721426134753e-10)
(3.3830787626712e-13,1.04327331719604e-10,-1.10712417157095e-10)
(3.79015757095308e-13,1.64668668292712e-10,-9.35745531007045e-11)
(6.24783167512567e-13,2.56380796959948e-10,-6.77913559020225e-11)
(-3.54122937995449e-13,4.00065776440371e-10,-3.13828679055899e-11)
(-5.86403060653678e-12,6.265798774433e-10,7.98688431441946e-12)
(-1.9952249938485e-11,9.37465150441066e-10,1.14595626448805e-11)
(-2.60055492692234e-11,1.35950506098187e-09,3.94373179815241e-12)
(-2.76024502054239e-11,1.86817372566063e-09,-3.18036092721137e-13)
(0,0,0)
(0,0,0)
(0,0,0)
(0,0,0)
(0,0,0)
(0,0,0)
(-2.92127132704561e-14,2.29018995226343e-11,-1.93975472491e-10)
(1.40968820076217e-13,5.08775654335253e-11,-1.88265019724264e-10)
(-4.56917222910009e-13,8.70098655092598e-11,-1.7644084876329e-10)
(1.95719082534916e-13,1.38381848695394e-10,-1.57423676102333e-10)
(2.44764438929221e-12,2.19698946806609e-10,-1.27628683573497e-10)
(4.55363378110784e-12,3.59762524231821e-10,-8.16735807409387e-11)
(-1.23813101472985e-12,6.17811330773102e-10,-2.00838360777902e-11)
(-2.9143908675865e-11,9.53104045089334e-10,-1.98177298755174e-11)
(-3.72789037248801e-11,1.37168902496673e-09,-2.30865207079747e-11)
(-3.77484316675224e-11,1.87469544897292e-09,-1.53036223349123e-11)
(0,0,0)
(0,0,0)
(0,0,0)
(0,0,0)
(0,0,0)
(0,0,0)
(4.0372694633183e-13,1.70247601857318e-11,-2.85409219519415e-10)
(5.18748158724182e-13,3.87131785380399e-11,-2.80728032978128e-10)
(3.2102065111969e-13,6.62580732387496e-11,-2.70307786425564e-10)
(1.81965936308547e-12,1.0502765617019e-10,-2.53864440497484e-10)
(5.70786029453581e-12,1.6712510071277e-10,-2.30259422779243e-10)
(8.11209925928634e-12,2.80523431591817e-10,-2.02854883782112e-10)
(-3.5246470089023e-11,5.43732733669411e-10,-2.18235813826052e-10)
(-4.67371353012583e-11,9.67907428920216e-10,-1.4529311247075e-10)
(-4.81581718712161e-11,1.37589479703442e-09,-9.82477994192096e-11)
(-4.72406305280725e-11,1.86758487709103e-09,-5.10044090406899e-11)
(0,0,0)
(0,0,0)
(0,0,0)
(0,0,0)
(0,0,0)
(0,0,0)
(-2.38507061172706e-13,1.19855519143648e-11,-4.14042012538647e-10)
(-1.60000748029253e-13,2.70730308518107e-11,-4.10953029219106e-10)
(6.32055517675843e-13,4.59940249616452e-11,-4.04314137394378e-10)
(2.33964051518066e-12,7.24337491302604e-11,-3.94319442901278e-10)
(4.01673959632784e-12,1.17460278614766e-10,-3.80580343972419e-10)
(2.6344471290149e-12,2.20529247328105e-10,-3.6397109019361e-10)
(-3.60071613781473e-11,5.45124601458497e-10,-3.72876407782839e-10)
(-5.01641483054442e-11,9.54166553471875e-10,-2.97373372476115e-10)
(-5.16736311128902e-11,1.34451682886374e-09,-2.05282752497134e-10)
(-5.11525676996841e-11,1.82518129925986e-09,-1.05143295737666e-10)
(0,0,0)
(0,0,0)
(0,0,0)
(0,0,0)
(0,0,0)
(0,0,0)
(-5.2672433077023e-13,7.86448386917105e-12,-6.043092703028e-10)
(7.36251337808719e-14,1.74977630747776e-11,-6.02930163350195e-10)
(1.37076253345898e-12,2.98590643260676e-11,-6.00299902943182e-10)
(4.48216716461053e-13,4.57828884240302e-11,-5.98092843720799e-10)
(-8.59809652651571e-12,7.1029880669618e-11,-6.00734691128773e-10)
(-3.76420680717049e-11,1.35979343618414e-10,-6.10750499846572e-10)
(-3.03018415349174e-11,5.05120099818487e-10,-5.38717133977296e-10)
(-4.27786978720984e-11,8.9356477819773e-10,-5.16609714230891e-10)
(-4.77177321485141e-11,1.25835440423705e-09,-3.57672038663518e-10)
(-4.97771046416406e-11,1.72650802203777e-09,-1.83562347299887e-10)
(0,0,0)
(0,0,0)
(0,0,0)
(0,0,0)
(0,0,0)
(0,0,0)
(-8.18516487132564e-13,4.97867058005883e-12,-8.86914542861952e-10)
(-2.70838890737638e-13,1.1392246052858e-11,-8.86316932580017e-10)
(8.51648231714674e-13,2.10037390184733e-11,-8.85728933144543e-10)
(1.30814366201254e-13,3.68798434741728e-11,-8.8622523218124e-10)
(-6.14539653097591e-12,7.21179439282102e-11,-8.90137400916618e-10)
(-2.03744021052038e-11,1.71151351040942e-10,-8.96891206224657e-10)
(-2.71515350620083e-11,4.5823456057484e-10,-8.78163615266551e-10)
(-3.77429803878541e-11,7.38574083659208e-10,-7.48499627696853e-10)
(-4.41362466881257e-11,1.08829469061058e-09,-5.45602340472367e-10)
(-4.83018887662947e-11,1.54507759721494e-09,-2.94167298954426e-10)
(0,0,0)
(0,0,0)
(0,0,0)
(0,0,0)
(0,0,0)
(0,0,0)
(-1.38607094939421e-12,2.9506188801004e-12,-1.3002938328102e-09)
(-1.00964940346661e-12,7.72577617994082e-12,-1.30043011788076e-09)
(-2.59377622223293e-13,1.55935504098231e-11,-1.29981219284545e-09)
(-4.1825571124368e-13,3.10169357265365e-11,-1.2979343823683e-09)
(-4.89570495911354e-12,6.58954565175432e-11,-1.292779771687e-09)
(-1.46770163935778e-11,1.49099734370633e-10,-1.27644191677719e-09)
(-2.41785728780771e-11,3.23032481826252e-10,-1.22217866581349e-09)
(-3.41330977934217e-11,5.3450553971404e-10,-1.07439870695734e-09)
(-4.19599093979025e-11,8.36417613745754e-10,-8.31880445308558e-10)
(-4.74960220873163e-11,1.249946961591e-09,-4.77698974411445e-10)
(0,0,0)
(0,0,0)
(0,0,0)
(0,0,0)
(0,0,0)
(0,0,0)
(-1.48569759602702e-12,1.58832265337979e-12,-1.81009163592149e-09)
(-1.33644365124249e-12,4.25917871886984e-12,-1.81008848570855e-09)
(-6.55805604307087e-13,8.87832691445139e-12,-1.80885527256239e-09)
(-8.04033827918362e-13,1.85531006133535e-11,-1.80473114903177e-09)
(-4.9717393429062e-12,3.94353808967202e-11,-1.79256142542212e-09)
(-1.25910491296457e-11,8.46324972597502e-11,-1.76127499375624e-09)