/*--------------------------------*- C++ -*----------------------------------*\
| =========                 |                                                 |
| \\      /  F ield         | foam-extend: Open Source CFD                    |
|  \\    /   O peration     | Version:     4.0                                |
|   \\  /    A nd           | Web:         http://www.foam-extend.org         |
|    \\/     M anipulation  |                                                 |
\*---------------------------------------------------------------------------*/
FoamFile
{
    version 2.0;
    format ascii;
    class volVectorField;
    location "2064";
    object      E;
}
// * * * * * * * * * * * * * * * * * * * * * * * * * * * * * * * * * * * * * //

dimensions      [0 1 -1 0 0 0 0];

internalField   nonuniform List<vector>
4096
(
(0,0,0)
(0,0,0)
(0,0,0)
(0,0,0)
(0,0,0)
(0,0,0)
(0,0,0)
(0,0,0)
(0,0,0)
(0,0,0)
(0,0,0)
(0,0,0)
(0,0,0)
(0,0,0)
(0,0,0)
(0,0,0)
(0,0,0)
(0,0,0)
(0,0,0)
(0,0,0)
(0,0,0)
(0,0,0)
(0,0,0)
(0,0,0)
(0,0,0)
(0,0,0)
(0,0,0)
(0,0,0)
(0,0,0)
(0,0,0)
(0,0,0)
(0,0,0)
(0,0,0)
(0,0,0)
(0,0,0)
(0,0,0)
(0,0,0)
(0,0,0)
(0,0,0)
(0,0,0)
(0,0,0)
(0,0,0)
(0,0,0)
(0,0,0)
(0,0,0)
(0,0,0)
(0,0,0)
(0,0,0)
(0,0,0)
(0,0,0)
(0,0,0)
(0,0,0)
(0,0,0)
(0,0,0)
(0,0,0)
(0,0,0)
(0,0,0)
(0,0,0)
(0,0,0)
(0,0,0)
(0,0,0)
(0,0,0)
(0,0,0)
(0,0,0)
(0,0,0)
(0,0,0)
(0,0,0)
(0,0,0)
(0,0,0)
(0,0,0)
(0,0,0)
(0,0,0)
(0,0,0)
(0,0,0)
(0,0,0)
(0,0,0)
(0,0,0)
(0,0,0)
(0,0,0)
(0,0,0)
(0,0,0)
(0,0,0)
(0,0,0)
(0,0,0)
(0,0,0)
(0,0,0)
(0,0,0)
(0,0,0)
(0,0,0)
(0,0,0)
(0,0,0)
(0,0,0)
(0,0,0)
(0,0,0)
(0,0,0)
(0,0,0)
(0,0,0)
(0,0,0)
(0,0,0)
(0,0,0)
(0,0,0)
(0,0,0)
(0,0,0)
(0,0,0)
(0,0,0)
(0,0,0)
(0,0,0)
(0,0,0)
(0,0,0)
(0,0,0)
(0,0,0)
(0,0,0)
(0,0,0)
(0,0,0)
(0,0,0)
(0,0,0)
(0,0,0)
(0,0,0)
(0,0,0)
(0,0,0)
(0,0,0)
(0,0,0)
(0,0,0)
(0,0,0)
(0,0,0)
(0,0,0)
(0,0,0)
(0,0,0)
(0,0,0)
(0,0,0)
(0,0,0)
(0,0,0)
(0,0,0)
(0,0,0)
(0,0,0)
(0,0,0)
(0,0,0)
(0,0,0)
(0,0,0)
(0,0,0)
(0,0,0)
(0,0,0)
(0,0,0)
(0,0,0)
(0,0,0)
(0,0,0)
(0,0,0)
(0,0,0)
(0,0,0)
(0,0,0)
(0,0,0)
(0,0,0)
(0,0,0)
(0,0,0)
(0,0,0)
(0,0,0)
(0,0,0)
(0,0,0)
(0,0,0)
(0,0,0)
(0,0,0)
(0,0,0)
(0,0,0)
(0,0,0)
(0,0,0)
(0,0,0)
(0,0,0)
(0,0,0)
(0,0,0)
(0,0,0)
(0,0,0)
(0,0,0)
(0,0,0)
(0,0,0)
(0,0,0)
(0,0,0)
(0,0,0)
(0,0,0)
(0,0,0)
(0,0,0)
(0,0,0)
(0,0,0)
(0,0,0)
(0,0,0)
(0,0,0)
(0,0,0)
(0,0,0)
(0,0,0)
(0,0,0)
(0,0,0)
(0,0,0)
(0,0,0)
(0,0,0)
(0,0,0)
(0,0,0)
(0,0,0)
(0,0,0)
(0,0,0)
(0,0,0)
(0,0,0)
(0,0,0)
(0,0,0)
(0,0,0)
(0,0,0)
(0,0,0)
(0,0,0)
(0,0,0)
(0,0,0)
(0,0,0)
(0,0,0)
(0,0,0)
(0,0,0)
(0,0,0)
(0,0,0)
(0,0,0)
(0,0,0)
(0,0,0)
(0,0,0)
(0,0,0)
(0,0,0)
(0,0,0)
(0,0,0)
(0,0,0)
(0,0,0)
(0,0,0)
(0,0,0)
(0,0,0)
(0,0,0)
(0,0,0)
(0,0,0)
(0,0,0)
(0,0,0)
(0,0,0)
(0,0,0)
(0,0,0)
(0,0,0)
(0,0,0)
(0,0,0)
(0,0,0)
(0,0,0)
(0,0,0)
(0,0,0)
(0,0,0)
(0,0,0)
(0,0,0)
(0,0,0)
(0,0,0)
(0,0,0)
(0,0,0)
(0,0,0)
(0,0,0)
(0,0,0)
(0,0,0)
(0,0,0)
(0,0,0)
(0,0,0)
(0,0,0)
(0,0,0)
(0,0,0)
(0,0,0)
(0,0,0)
(0,0,0)
(0,0,0)
(0,0,0)
(0,0,0)
(0,0,0)
(0,0,0)
(0,0,0)
(0,0,0)
(0,0,0)
(0,0,0)
(0,0,0)
(0,0,0)
(0,0,0)
(0,0,0)
(0,0,0)
(0,0,0)
(0,0,0)
(0,0,0)
(0,0,0)
(0,0,0)
(0,0,0)
(0,0,0)
(0,0,0)
(0,0,0)
(0,0,0)
(0,0,0)
(0,0,0)
(0,0,0)
(0,0,0)
(0,0,0)
(0,0,0)
(0,0,0)
(0,0,0)
(0,0,0)
(0,0,0)
(0,0,0)
(0,0,0)
(0,0,0)
(0,0,0)
(0,0,0)
(0,0,0)
(0,0,0)
(0,0,0)
(0,0,0)
(0,0,0)
(0,0,0)
(0,0,0)
(0,0,0)
(0,0,0)
(0,0,0)
(0,0,0)
(0,0,0)
(0,0,0)
(0,0,0)
(0,0,0)
(0,0,0)
(0,0,0)
(0,0,0)
(0,0,0)
(0,0,0)
(0,0,0)
(0,0,0)
(0,0,0)
(0,0,0)
(0,0,0)
(0,0,0)
(0,0,0)
(0,0,0)
(0,0,0)
(0,0,0)
(0,0,0)
(0,0,0)
(0,0,0)
(0,0,0)
(0,0,0)
(0,0,0)
(0,0,0)
(0,0,0)
(0,0,0)
(0,0,0)
(0,0,0)
(0,0,0)
(0,0,0)
(0,0,0)
(0,0,0)
(0,0,0)
(0,0,0)
(0,0,0)
(0,0,0)
(0,0,0)
(0,0,0)
(0,0,0)
(0,0,0)
(0,0,0)
(0,0,0)
(0,0,0)
(0,0,0)
(0,0,0)
(0,0,0)
(0,0,0)
(0,0,0)
(0,0,0)
(0,0,0)
(0,0,0)
(0,0,0)
(0,0,0)
(0,0,0)
(0,0,0)
(0,0,0)
(0,0,0)
(0,0,0)
(0,0,0)
(0,0,0)
(0,0,0)
(0,0,0)
(0,0,0)
(0,0,0)
(0,0,0)
(0,0,0)
(0,0,0)
(0,0,0)
(0,0,0)
(0,0,0)
(0,0,0)
(0,0,0)
(0,0,0)
(0,0,0)
(0,0,0)
(0,0,0)
(0,0,0)
(0,0,0)
(0,0,0)
(0,0,0)
(0,0,0)
(0,0,0)
(0,0,0)
(0,0,0)
(0,0,0)
(0,0,0)
(0,0,0)
(0,0,0)
(0,0,0)
(0,0,0)
(0,0,0)
(0,0,0)
(0,0,0)
(0,0,0)
(0,0,0)
(0,0,0)
(0,0,0)
(0,0,0)
(0,0,0)
(0,0,0)
(0,0,0)
(0,0,0)
(0,0,0)
(0,0,0)
(0,0,0)
(0,0,0)
(0,0,0)
(0,0,0)
(0,0,0)
(0,0,0)
(0,0,0)
(0,0,0)
(0,0,0)
(0,0,0)
(0,0,0)
(0,0,0)
(0,0,0)
(0,0,0)
(0,0,0)
(0,0,0)
(0,0,0)
(0,0,0)
(0,0,0)
(0,0,0)
(0,0,0)
(0,0,0)
(0,0,0)
(0,0,0)
(0,0,0)
(0,0,0)
(0,0,0)
(0,0,0)
(0,0,0)
(0,0,0)
(0,0,0)
(0,0,0)
(0,0,0)
(0,0,0)
(0,0,0)
(0,0,0)
(0,0,0)
(0,0,0)
(0,0,0)
(0,0,0)
(0,0,0)
(0,0,0)
(0,0,0)
(0,0,0)
(0,0,0)
(0,0,0)
(0,0,0)
(0,0,0)
(0,0,0)
(0,0,0)
(0,0,0)
(0,0,0)
(0,0,0)
(0,0,0)
(0,0,0)
(0,0,0)
(0,0,0)
(0,0,0)
(0,0,0)
(0,0,0)
(0,0,0)
(0,0,0)
(0,0,0)
(0,0,0)
(0,0,0)
(0,0,0)
(0,0,0)
(0,0,0)
(0,0,0)
(0,0,0)
(0,0,0)
(0,0,0)
(0,0,0)
(0,0,0)
(0,0,0)
(0,0,0)
(0,0,0)
(0,0,0)
(0,0,0)
(0,0,0)
(0,0,0)
(0,0,0)
(0,0,0)
(0,0,0)
(0,0,0)
(0,0,0)
(0,0,0)
(0,0,0)
(0,0,0)
(0,0,0)
(0,0,0)
(0,0,0)
(0,0,0)
(0,0,0)
(0,0,0)
(0,0,0)
(0,0,0)
(0,0,0)
(0,0,0)
(0,0,0)
(0,0,0)
(0,0,0)
(0,0,0)
(0,0,0)
(0,0,0)
(0,0,0)
(0,0,0)
(0,0,0)
(0,0,0)
(0,0,0)
(0,0,0)
(0,0,0)
(0,0,0)
(0,0,0)
(0,0,0)
(0,0,0)
(0,0,0)
(0,0,0)
(0,0,0)
(0,0,0)
(0,0,0)
(0,0,0)
(0,0,0)
(0,0,0)
(0,0,0)
(0,0,0)
(0,0,0)
(0,0,0)
(0,0,0)
(0,0,0)
(0,0,0)
(0,0,0)
(0,0,0)
(0,0,0)
(0,0,0)
(0,0,0)
(0,0,0)
(0,0,0)
(0,0,0)
(0,0,0)
(0,0,0)
(0,0,0)
(0,0,0)
(0,0,0)
(0,0,0)
(0,0,0)
(0,0,0)
(0,0,0)
(0,0,0)
(0,0,0)
(0,0,0)
(0,0,0)
(0,0,0)
(0,0,0)
(0,0,0)
(0,0,0)
(0,0,0)
(0,0,0)
(0,0,0)
(0,0,0)
(0,0,0)
(0,0,0)
(0,0,0)
(0,0,0)
(0,0,0)
(0,0,0)
(0,0,0)
(0,0,0)
(0,0,0)
(0,0,0)
(0,0,0)
(0,0,0)
(0,0,0)
(0,0,0)
(0,0,0)
(0,0,0)
(0,0,0)
(0,0,0)
(0,0,0)
(0,0,0)
(0,0,0)
(0,0,0)
(0,0,0)
(0,0,0)
(0,0,0)
(0,0,0)
(0,0,0)
(0,0,0)
(0,0,0)
(0,0,0)
(0,0,0)
(0,0,0)
(0,0,0)
(0,0,0)
(0,0,0)
(0,0,0)
(0,0,0)
(0,0,0)
(0,0,0)
(0,0,0)
(0,0,0)
(0,0,0)
(0,0,0)
(0,0,0)
(0,0,0)
(0,0,0)
(0,0,0)
(0,0,0)
(0,0,0)
(0,0,0)
(0,0,0)
(0,0,0)
(0,0,0)
(0,0,0)
(0,0,0)
(0,0,0)
(0,0,0)
(0,0,0)
(0,0,0)
(0,0,0)
(0,0,0)
(0,0,0)
(0,0,0)
(0,0,0)
(0,0,0)
(0,0,0)
(0,0,0)
(0,0,0)
(0,0,0)
(0,0,0)
(0,0,0)
(0,0,0)
(0,0,0)
(0,0,0)
(0,0,0)
(0,0,0)
(0,0,0)
(0,0,0)
(0,0,0)
(0,0,0)
(0,0,0)
(0,0,0)
(0,0,0)
(0,0,0)
(0,0,0)
(0,0,0)
(0,0,0)
(0,0,0)
(0,0,0)
(0,0,0)
(0,0,0)
(0,0,0)
(0,0,0)
(0,0,0)
(0,0,0)
(0,0,0)
(0,0,0)
(0,0,0)
(0,0,0)
(0,0,0)
(0,0,0)
(0,0,0)
(0,0,0)
(0,0,0)
(0,0,0)
(0,0,0)
(0,0,0)
(0,0,0)
(0,0,0)
(0,0,0)
(0,0,0)
(0,0,0)
(0,0,0)
(0,0,0)
(0,0,0)
(0,0,0)
(0,0,0)
(0,0,0)
(0,0,0)
(0,0,0)
(0,0,0)
(0,0,0)
(0,0,0)
(0,0,0)
(0,0,0)
(0,0,0)
(0,0,0)
(0,0,0)
(0,0,0)
(0,0,0)
(0,0,0)
(0,0,0)
(0,0,0)
(0,0,0)
(0,0,0)
(0,0,0)
(0,0,0)
(0,0,0)
(0,0,0)
(0,0,0)
(0,0,0)
(0,0,0)
(0,0,0)
(0,0,0)
(0,0,0)
(0,0,0)
(0,0,0)
(0,0,0)
(0,0,0)
(0,0,0)
(0,0,0)
(0,0,0)
(0,0,0)
(0,0,0)
(0,0,0)
(0,0,0)
(0,0,0)
(0,0,0)
(0,0,0)
(0,0,0)
(0,0,0)
(0,0,0)
(0,0,0)
(0,0,0)
(0,0,0)
(0,0,0)
(0,0,0)
(0,0,0)
(0,0,0)
(0,0,0)
(0,0,0)
(0,0,0)
(0,0,0)
(0,0,0)
(0,0,0)
(0,0,0)
(0,0,0)
(0,0,0)
(0,0,0)
(0,0,0)
(0,0,0)
(0,0,0)
(0,0,0)
(0,0,0)
(0,0,0)
(0,0,0)
(0,0,0)
(0,0,0)
(0,0,0)
(0,0,0)
(0,0,0)
(0,0,0)
(0,0,0)
(0,0,0)
(0,0,0)
(0,0,0)
(0,0,0)
(0,0,0)
(0,0,0)
(0,0,0)
(0,0,0)
(0,0,0)
(0,0,0)
(0,0,0)
(0,0,0)
(0,0,0)
(0,0,0)
(0,0,0)
(0,0,0)
(0,0,0)
(0,0,0)
(0,0,0)
(0,0,0)
(0,0,0)
(0,0,0)
(0,0,0)
(0,0,0)
(0,0,0)
(0,0,0)
(0,0,0)
(0,0,0)
(0,0,0)
(0,0,0)
(0,0,0)
(0,0,0)
(0,0,0)
(0,0,0)
(0,0,0)
(0,0,0)
(0,0,0)
(0,0,0)
(0,0,0)
(0,0,0)
(0,0,0)
(0,0,0)
(0,0,0)
(0,0,0)
(0,0,0)
(0,0,0)
(0,0,0)
(0,0,0)
(-96.5965156037219,254.006250336104,-157.409734733962)
(-124.839549855446,209.480595023215,-242.050779901584)
(-196.477737926687,143.726175091071,-189.299217065746)
(-306.706004360798,127.040290273941,-9.63350297331377)
(-410.405836567341,80.8381365959042,319.934197007949)
(-625.514041556886,32.1666603342023,913.281578221754)
(-1053.2719724915,-0.234403712739413,1966.7879544502)
(-1842.59781228194,-24.6276822919099,3834.01344906404)
(-3214.56871641728,-12.5315743322819,7061.11373978453)
(-4700.03403915178,-17.6539974552903,11778.8017764212)
(0,0,0)
(0,0,0)
(0,0,0)
(0,0,0)
(0,0,0)
(0,0,0)
(-132.212437244782,493.744546121033,-107.525858541865)
(-181.337538893676,442.843715385205,-159.551440005181)
(-246.180842791988,362.044763109509,-131.689185235567)
(-346.77930260468,314.629498684257,27.5009089652327)
(-438.13747922939,218.363645136681,328.112879643289)
(-646.834109661916,117.863676695037,889.249972942919)
(-1064.66966219355,48.573208672457,1905.11202275084)
(-1844.2038004595,-1.88171684232825,3726.56985768438)
(-3223.62067182195,6.55411558751064,6931.10483963374)
(-4706.1953172047,-23.1468163686448,11642.7929756869)
(0,0,0)
(0,0,0)
(0,0,0)
(0,0,0)
(0,0,0)
(0,0,0)
(-188.617928900213,737.680239192024,-55.3177641711505)
(-264.850548504671,709.546934163698,-57.1704344419251)
(-314.863473096506,634.175943340937,-14.438141572172)
(-384.360939258299,565.702129885643,118.850166487256)
(-479.446271957483,444.279062610528,372.381020959089)
(-696.639102659152,286.964318306494,899.91948200603)
(-1113.04396788158,165.484772688309,1896.05188588707)
(-1861.379295801,79.9201378595902,3675.6293269612)
(-3233.97150528422,41.4057774637128,6874.74917038979)
(-4706.28436119628,-14.1108296949351,11571.9975449791)
(0,0,0)
(0,0,0)
(0,0,0)
(0,0,0)
(0,0,0)
(0,0,0)
(-247.369721185816,1007.30682649148,-22.2568661122281)
(-328.557441241053,987.729301224115,28.1182080705346)
(-377.304545282279,917.395221747787,122.20347493896)
(-414.63476506092,861.23871250397,241.301657373085)
(-517.379102786451,744.549801391903,458.410021385326)
(-750.734995130974,565.017901934999,931.091432891774)
(-1170.19671855035,383.008052448705,1883.76487167658)
(-1909.54748228291,231.720954823122,3641.51153693141)
(-3267.0881528594,137.952359283038,6812.05310793663)
(-4724.36982005523,44.1171019637752,11478.1949964618)
(0,0,0)
(0,0,0)
(0,0,0)
(0,0,0)
(0,0,0)
(0,0,0)
(-354.722688044296,1360.58830804425,1.44120648772047)
(-428.435124598918,1347.78508048755,69.8205518199163)
(-467.419091006154,1280.57302108099,174.061843494722)
(-490.767836358358,1226.65168246738,299.416709888151)
(-607.514643154287,1130.7772250768,520.703929358884)
(-863.298498539274,975.265052372552,973.755277438812)
(-1312.99796695089,764.320293558776,1905.44100327981)
(-2048.29411825655,535.209349345313,3650.2467270245)
(-3350.00042831027,365.925428928656,6772.27408577215)
(-4761.37392203629,166.621565689069,11411.1435440609)
(0,0,0)
(0,0,0)
(0,0,0)
(0,0,0)
(0,0,0)
(0,0,0)
(-602.810790171805,1955.54782684179,7.85127137705611)
(-644.826850408814,1937.34929852417,63.1139037447613)
(-683.764270486649,1866.7144664059,160.736728907195)
(-728.021283898034,1797.00105798757,318.408637283158)
(-860.098391380907,1714.93453143603,594.34972231011)
(-1123.12440494206,1616.31372402935,1076.42545561425)
(-1589.43283739989,1429.00565438422,2001.17293220043)
(-2314.94649876976,1123.943233611,3727.38554670492)
(-3543.62793073246,809.911280887743,6827.02762555012)
(-4866.46789364063,418.304483425681,11441.8126012925)
(0,0,0)
(0,0,0)
(0,0,0)
(0,0,0)
(0,0,0)
(0,0,0)
(-1039.79184092633,2944.39604187733,50.943625889913)
(-1057.85443017228,2919.33068222223,126.816672374581)
(-1098.05301454304,2845.90861727266,245.675536056472)
(-1137.16058669605,2791.35935433153,388.477826411655)
(-1257.06736287037,2726.283693105,634.196027608827)
(-1518.19012615101,2668.6570935224,1100.04278426153)
(-1983.5888536583,2503.37529597358,2009.26199634126)
(-2686.72800670048,2133.20847268186,3686.72476397607)
(-3816.5347798659,1600.41749939294,6712.7533252816)
(-5011.95933909695,885.717173637495,11257.2999742764)
(0,0,0)
(0,0,0)
(0,0,0)
(0,0,0)
(0,0,0)
(0,0,0)
(-1869.77824415021,4774.56462486348,39.6096611639584)
(-1875.00631382328,4722.6687723501,111.277884864754)
(-1889.80826831611,4620.51730327941,226.477467188894)
(-1894.88885982909,4550.50819648026,362.217484856914)
(-1983.88531106632,4510.80683372612,561.579655295843)
(-2226.57751864886,4488.7199051164,968.094362332778)
(-2640.26625497157,4305.03469429261,1806.70121896568)
(-3253.56964895651,3838.96820652142,3354.51113410325)
(-4269.27418421275,3021.25597075827,6202.9468469491)
(-5284.51024336465,1748.5013235123,10624.6729403787)
(0,0,0)
(0,0,0)
(0,0,0)
(0,0,0)
(0,0,0)
(0,0,0)
(-3265.66243516386,7985.11173397173,55.115326023826)
(-3279.34335725445,7948.06154458703,109.065911059649)
(-3281.10989667933,7837.41171879996,173.281392173712)
(-3269.24052304677,7721.56433942118,271.465772265995)
(-3321.50629413996,7679.74335890761,424.035541221059)
(-3495.61039534663,7661.29100903101,747.074832656289)
(-3799.15490203401,7427.52210781634,1423.74232117616)
(-4277.63140810723,6831.85292189043,2708.48901391708)
(-5062.79642885094,5624.95436750186,5167.58704594693)
(-5714.62650902415,3444.46152996833,9186.25334852602)
(0,0,0)
(0,0,0)
(0,0,0)
(0,0,0)
(0,0,0)
(0,0,0)
(-4732.47215601163,12676.6731284384,40.9107615723467)
(-4749.53343387327,12668.107515366,70.3982246706963)
(-4754.43752869602,12577.6182254377,84.62924675756)
(-4751.89283597022,12422.1955205202,135.890901665245)
(-4773.52752794788,12370.4921807394,218.669607817507)
(-4856.90896760625,12336.1755239203,400.694060521881)
(-5029.32353946939,12049.3708480842,808.16885971755)
(-5290.94570627682,11343.1142168125,1587.85327103157)
(-5707.72516762013,9719.12525400524,3201.40755210396)
(-5826.39200066632,6370.83826984127,6101.42281292596)
(0,0,0)
(0,0,0)
(0,0,0)
(0,0,0)
(0,0,0)
(0,0,0)
(0,0,0)
(0,0,0)
(0,0,0)
(0,0,0)
(0,0,0)
(0,0,0)
(0,0,0)
(0,0,0)
(0,0,0)
(0,0,0)
(0,0,0)
(0,0,0)
(0,0,0)
(0,0,0)
(0,0,0)
(0,0,0)
(0,0,0)
(0,0,0)
(0,0,0)
(0,0,0)
(0,0,0)
(0,0,0)
(0,0,0)
(0,0,0)
(0,0,0)
(0,0,0)
(0,0,0)
(0,0,0)
(0,0,0)
(0,0,0)
(0,0,0)
(0,0,0)
(0,0,0)
(0,0,0)
(0,0,0)
(0,0,0)
(0,0,0)
(0,0,0)
(0,0,0)
(0,0,0)
(0,0,0)
(0,0,0)
(0,0,0)
(0,0,0)
(0,0,0)
(0,0,0)
(0,0,0)
(0,0,0)
(0,0,0)
(0,0,0)
(0,0,0)
(0,0,0)
(0,0,0)
(0,0,0)
(0,0,0)
(0,0,0)
(0,0,0)
(0,0,0)
(0,0,0)
(0,0,0)
(0,0,0)
(0,0,0)
(0,0,0)
(0,0,0)
(0,0,0)
(0,0,0)
(0,0,0)
(0,0,0)
(0,0,0)
(0,0,0)
(0,0,0)
(0,0,0)
(0,0,0)
(0,0,0)
(0,0,0)
(0,0,0)
(0,0,0)
(0,0,0)
(0,0,0)
(0,0,0)
(0,0,0)
(0,0,0)
(0,0,0)
(0,0,0)
(0,0,0)
(0,0,0)
(0,0,0)
(0,0,0)
(0,0,0)
(0,0,0)
(0,0,0)
(0,0,0)
(0,0,0)
(0,0,0)
(0,0,0)
(0,0,0)
(47152.248918622,206.272921071658,-111.628284747501)
(47102.0283109328,176.942310767849,-171.948385692179)
(46989.0888159191,138.314359254498,-152.339228307346)
(46815.2905151513,125.65150216211,-56.4971794518068)
(46618.4610867454,83.1472546181574,174.978713188489)
(46282.1852546558,51.3583157534432,559.411171648661)
(45578.1665136557,38.0498698084233,1233.41288616539)
(44172.6586843613,16.2632796749573,2545.38318040857)
(40812.2558198022,8.76564256912668,5853.28307220757)
(31483.7939891031,-11.5938142689636,17024.5389287662)
(0,0,0)
(0,0,0)
(0,0,0)
(0,0,0)
(0,0,0)
(0,0,0)
(47078.5356095751,423.964896264207,-84.9499514337376)
(47005.3319211034,382.22777299055,-133.414803045331)
(46897.6429728106,326.812265545212,-122.246454415371)
(46739.0936491816,280.466239654334,-19.4440731560775)
(46581.3970443018,195.430801347892,192.227927161127)
(46263.018185033,128.143895061618,549.08012377868)
(45588.8745821004,82.6388372643641,1194.43698264772)
(44190.9136929737,34.8866189417013,2484.18622052774)
(40829.3915000482,26.6958478654981,5756.73391371622)
(31499.0446876642,-18.4605296175852,16901.8506946903)
(0,0,0)
(0,0,0)
(0,0,0)
(0,0,0)
(0,0,0)
(0,0,0)
(46957.8188143648,647.369819814058,-26.3515963142348)
(46867.654212501,618.685486202712,-51.8239999702697)
(46780.9455880421,564.425295604032,-41.7560205210267)
(46658.7615734936,491.215354007782,47.8624229922166)
(46512.1089950556,382.340070861623,212.88795703685)
(46192.4602482715,248.123506777209,547.299064972332)
(45536.0442923728,128.894149674776,1195.44556292076)
(44184.369680264,61.9801104172869,2466.09316605375)
(40837.236863455,49.9153297978614,5715.15538588113)
(31504.2195836279,-8.18062367894608,16837.8616057269)
(0,0,0)
(0,0,0)
(0,0,0)
(0,0,0)
(0,0,0)
(0,0,0)
(46880.909539673,860.481353698316,2.09927580887274)
(46778.5469401787,850.016278838265,7.15417235393754)
(46688.0673131017,801.497773355719,48.1999067786759)
(46603.123395955,733.203573600821,131.943596750718)
(46458.7787746232,621.048781590492,260.567079235125)
(46102.9689724601,441.403624689596,557.073064346791)
(45398.1496065651,243.683401310673,1217.42755819828)
(44095.1516025705,130.636003986262,2487.56265033564)
(40802.557415872,106.752405602176,5704.57007624553)
(31486.6962258413,32.1324481719317,16796.6810291827)
(0,0,0)
(0,0,0)
(0,0,0)
(0,0,0)
(0,0,0)
(0,0,0)
(46693.2165706139,1137.80255746414,18.2296081170218)
(46603.2208663994,1133.56534297036,46.5146235162354)
(46532.7353347278,1095.57168257334,95.7763592041785)
(46465.08724968,1034.80561693161,181.809300366468)
(46298.6850179713,944.368144332548,295.780347142407)
(45860.592737498,786.290673819617,570.492132576239)
(44983.2878063714,575.056046178344,1286.32378496918)
(43739.9724715824,383.622925776655,2588.56034397803)
(40647.7159655018,286.78850006322,5754.29792615541)
(31436.3922625313,125.274801938841,16806.8794583662)
(0,0,0)
(0,0,0)
(0,0,0)
(0,0,0)
(0,0,0)
(0,0,0)
(46286.95821443,1578.8470474849,12.6765759078694)
(46250.9609055375,1550.02526247487,43.9189710641366)
(46188.6280707193,1510.52702707594,100.061355895445)
(46098.8640766315,1450.63086829422,200.840814687357)
(45906.4059387763,1374.67529571411,347.519403742293)
(45435.134905648,1276.59764221761,642.443195288552)
(44480.6516880387,1108.00172690782,1382.90305971708)
(43223.1151175853,868.881303170323,2703.07313641992)
(40299.0287974937,647.429798526517,5843.26518030368)
(31266.5710503636,321.822059734989,16857.1690490012)
(0,0,0)
(0,0,0)
(0,0,0)
(0,0,0)
(0,0,0)
(0,0,0)
(45577.9123062595,2275.9528771158,28.680093753205)
(45569.3571612993,2221.73054118299,73.2532941730579)
(45517.5443766982,2156.95404923474,154.71895146417)
(45442.27437564,2121.65794888198,247.74697910269)
(45252.7729308639,2077.88836872102,378.183682962312)
(44774.8231146742,2039.61414132251,665.644013530528)
(43788.7125632291,1928.09097075204,1416.74342330212)
(42571.592210571,1670.89444647508,2699.90013335051)
(39827.0887854177,1258.92090626543,5788.27553069903)
(31008.0650465478,680.600337123746,16752.9629383499)
(0,0,0)
(0,0,0)
(0,0,0)
(0,0,0)
(0,0,0)
(0,0,0)
(44095.4766943255,3625.82481224923,28.3631969986915)
(44098.2343378853,3551.17284005143,69.1703170029635)
(44080.1776649804,3453.98061536042,145.647888148656)
(44058.2046544615,3412.75292815272,244.949465179719)
(43908.4493939055,3411.28252056047,362.710678790676)
(43466.7217205468,3437.49526841446,615.02038318402)
(42573.2776001496,3355.06627855059,1317.99129077798)
(41645.2415022694,2973.11274163979,2460.45191483486)
(38991.5699536526,2345.03893589785,5456.97981783904)
(30484.319642448,1368.33983929186,16343.9005004237)
(0,0,0)
(0,0,0)
(0,0,0)
(0,0,0)
(0,0,0)
(0,0,0)
(40701.2665887686,6954.22462800427,48.1612309360373)
(40703.8646740631,6891.57442495167,68.0416853568149)
(40712.3466005731,6772.38751277304,99.6683612589864)
(40721.8556272693,6691.63128904329,173.183920579952)
(40633.7156925116,6683.1091504977,289.625374532691)
(40349.0615395586,6704.72737038958,521.211408205561)
(39813.3746753189,6565.2608211623,1041.9773588707)
(38970.1123775922,6112.88033564489,1997.95604978821)
(36651.0363617059,5218.96494591796,4753.68731977519)
(28984.4851133171,3461.69290247553,15304.7127047707)
(0,0,0)
(0,0,0)
(0,0,0)
(0,0,0)
(0,0,0)
(0,0,0)
(31410.4744409368,18115.0533216949,39.7147798408792)
(31408.7865548139,18066.486010486,49.9732761154867)
(31422.7767632219,17946.3148782738,42.3216892855036)
(31426.7008294636,17817.5421724853,81.3072110973349)
(31388.9526857274,17782.246564626,163.179653934342)
(31253.5948635631,17799.7603186362,301.13294512765)
(30972.9729064682,17611.8120145826,595.775376359419)
(30468.9617311458,17096.7132540122,1195.52509121217)
(28981.076515287,15854.305120467,3214.87330434275)
(23552.249609685,12459.4851438453,12181.9295230645)
(0,0,0)
(0,0,0)
(0,0,0)
(0,0,0)
(0,0,0)
(0,0,0)
(0,0,0)
(0,0,0)
(0,0,0)
(0,0,0)
(0,0,0)
(0,0,0)
(0,0,0)
(0,0,0)
(0,0,0)
(0,0,0)
(0,0,0)
(0,0,0)
(0,0,0)
(0,0,0)
(0,0,0)
(0,0,0)
(0,0,0)
(0,0,0)
(0,0,0)
(0,0,0)
(0,0,0)
(0,0,0)
(0,0,0)
(0,0,0)
(0,0,0)
(0,0,0)
(0,0,0)
(0,0,0)
(0,0,0)
(0,0,0)
(0,0,0)
(0,0,0)
(0,0,0)
(0,0,0)
(0,0,0)
(0,0,0)
(0,0,0)
(0,0,0)
(0,0,0)
(0,0,0)
(0,0,0)
(0,0,0)
(0,0,0)
(0,0,0)
(0,0,0)
(0,0,0)
(0,0,0)
(0,0,0)
(0,0,0)
(0,0,0)
(0,0,0)
(0,0,0)
(0,0,0)
(0,0,0)
(0,0,0)
(0,0,0)
(0,0,0)
(0,0,0)
(0,0,0)
(0,0,0)
(0,0,0)
(0,0,0)
(0,0,0)
(0,0,0)
(0,0,0)
(0,0,0)
(0,0,0)
(0,0,0)
(0,0,0)
(0,0,0)
(0,0,0)
(0,0,0)
(0,0,0)
(0,0,0)
(0,0,0)
(0,0,0)
(0,0,0)
(0,0,0)
(0,0,0)
(0,0,0)
(0,0,0)
(0,0,0)
(0,0,0)
(0,0,0)
(0,0,0)
(0,0,0)
(0,0,0)
(0,0,0)
(0,0,0)
(0,0,0)
(0,0,0)
(0,0,0)
(0,0,0)
(0,0,0)
(0,0,0)
(0,0,0)
(-276.128581184281,143.882561093011,-58.9951318353846)
(-354.08577541146,145.562046240597,-91.9331623476731)
(-475.671273624674,143.850967496834,-114.514110785113)
(-668.859082537915,132.086608100701,-105.941191725963)
(-873.037022255986,87.8570127700128,-45.7901660610397)
(-1186.26638240271,70.6201704535348,8.55123010700394)
(-1756.5867371006,48.7069317033457,-48.8925213470156)
(-2686.13288917683,19.7095610912569,-553.300579452156)
(-4187.34626365189,-5.55101840241017,-2891.63754821462)
(-5508.52010630456,-23.4667305293089,-13219.3467926761)
(0,0,0)
(0,0,0)
(0,0,0)
(0,0,0)
(0,0,0)
(0,0,0)
(-380.547493068685,325.342771176262,-65.8671780186037)
(-479.022055486695,314.069281021462,-93.5105068196999)
(-583.130864663101,297.820611553283,-110.196383927182)
(-742.449406682413,249.273706235744,-89.3304967381802)
(-898.49018623616,171.030724578223,-36.1070485795184)
(-1182.14196368506,127.742144443207,8.44105553210675)
(-1717.12448060982,82.6622675894771,-63.0052882427109)
(-2653.39312403536,44.1757126297611,-586.654693370785)
(-4160.04287708275,29.1231658418259,-2975.38457086723)
(-5473.83282142937,-12.8704275408543,-13356.593435255)
(0,0,0)
(0,0,0)
(0,0,0)
(0,0,0)
(0,0,0)
(0,0,0)
(-556.089050535629,517.33557591891,-21.5750103408464)
(-644.847830246025,504.486366273276,-42.9801234096181)
(-714.73182712962,477.661955401947,-70.6341227380703)
(-827.143119312924,391.636321280666,-70.5821155899883)
(-962.495681061134,289.831121743289,-58.267907217374)
(-1225.81864942855,172.149386768157,-27.8863224281107)
(-1726.50237007509,25.9863239600244,-52.1537869575991)
(-2591.10958738413,-3.04518289696469,-572.943694471645)
(-4091.9144641441,39.3230381731467,-2997.48230966605)
(-5434.72570734047,4.6967756472186,-13419.5942924694)
(0,0,0)
(0,0,0)
(0,0,0)
(0,0,0)
(0,0,0)
(0,0,0)
(-640.593700969171,683.510997480523,11.837748527309)
(-727.848571529341,674.117047195072,5.11250871524059)
(-793.874124538753,640.22961022869,-19.0037790300043)
(-872.072691297661,547.624580063156,-43.2860211446022)
(-995.186615623587,437.422663557943,-80.4022433285409)
(-1294.92018271914,238.494957801101,-92.3487297829006)
(-1939.43844682378,-87.7001659568176,15.4357429231755)
(-2612.45767313903,-141.984387042493,-481.5058477556)
(-4036.28664807806,6.68912450963959,-2953.5179406361)
(-5408.69123611801,0.736823156114146,-13397.6605968343)
(0,0,0)
(0,0,0)
(0,0,0)
(0,0,0)
(0,0,0)
(0,0,0)
(-854.403155214979,863.670334605736,23.9703181554525)
(-915.298996252369,843.229080401577,29.888077066804)
(-944.040505542872,804.408803137526,-1.00534621653831)
(-1002.59778199276,719.860085282701,-49.0458902954251)
(-1146.36953984802,637.836638443816,-147.895378000735)
(-1610.24028797795,480.519538380433,-262.577003700938)
(-3130.30280750902,260.650527190496,159.172846421436)
(-3459.8329339101,50.5639215952517,-177.060127317644)
(-4153.11273996239,77.3519069657595,-2790.38427479731)
(-5427.64993472223,21.6959545932707,-13290.7912794076)
(0,0,0)
(0,0,0)
(0,0,0)
(0,0,0)
(0,0,0)
(0,0,0)
(-1232.4630607147,1034.18488166882,5.4166575563747)
(-1250.22785944282,992.478831136961,13.8656012016962)
(-1272.65406372999,946.662454520575,-10.595986274664)
(-1336.75085124638,860.007797295019,-58.6188410918923)
(-1483.8184778599,789.355369885241,-163.403226485619)
(-1999.13209482722,689.077278686933,-281.184036847447)
(-3682.9855367208,535.498757846356,264.114886646081)
(-4238.24441456529,335.315631218583,97.2326386620458)
(-4539.33780893419,253.010254744283,-2583.54917329586)
(-5591.62022128751,103.208778936765,-13150.3607964237)
(0,0,0)
(0,0,0)
(0,0,0)
(0,0,0)
(0,0,0)
(0,0,0)
(-1816.78026234832,1080.515349224,4.87203046999096)
(-1807.94853774386,1012.04077565223,19.1257144040625)
(-1823.15480666448,940.95105537084,22.0462262061303)
(-1879.85970788252,876.845032606008,-16.1469961441018)
(-2039.24541453935,859.884874650005,-138.148226094557)
(-2580.58863372678,854.306454084346,-291.455723578768)
(-4494.03295393389,837.814587896918,345.483893048655)
(-5190.81946968539,855.631374913563,244.089759011235)
(-5050.33927410678,488.864893249368,-2457.826890345)
(-5848.19347285073,194.580255161851,-13036.4299178813)
(0,0,0)
(0,0,0)
(0,0,0)
(0,0,0)
(0,0,0)
(0,0,0)
(-2837.77098751218,660.97175506732,9.30120539125992)
(-2814.96083556999,569.042614422033,22.0044694933601)
(-2810.60145898625,487.913691707389,22.3308865540723)
(-2832.87453266882,442.728792886964,4.03624280926723)
(-2968.51259530093,491.444337064855,-94.0513008248882)
(-3502.87895389575,641.137385378483,-254.771628334673)
(-5602.18718568785,900.604800207053,514.412874681881)
(-4915.25538050733,537.899482889949,49.1515789680798)
(-5498.42565707243,167.070023870173,-2482.54801137316)
(-6144.79280869462,-52.5690975570335,-12949.7762780221)
(0,0,0)
(0,0,0)
(0,0,0)
(0,0,0)
(0,0,0)
(0,0,0)
(-4372.65207514572,-1630.04226942463,21.4426177772786)
(-4347.3878574158,-1714.66735897813,12.9150520165193)
(-4320.3850091181,-1816.95665645029,7.02693931176497)
(-4312.69135264308,-1872.28111391246,13.0937554913492)
(-4392.65257088322,-1824.54691271106,11.9631981271063)
(-4662.91070380452,-1711.18939718637,32.7721534728656)
(-5269.1698541237,-1624.48355988718,296.914972393222)
(-5569.23386964904,-1829.8032729733,-139.526095141749)
(-6238.76735697689,-1995.58970236582,-2430.55272077237)
(-6551.97463905359,-1687.07621952391,-12603.0759169958)
(0,0,0)
(0,0,0)
(0,0,0)
(0,0,0)
(0,0,0)
(0,0,0)
(-5593.64082550131,-11994.4377278905,25.0206543711893)
(-5575.17273210591,-12064.5203180927,15.3428297968902)
(-5546.35861884571,-12174.9802425464,-0.988272588841364)
(-5538.57814515691,-12264.2803949891,12.7999124086449)
(-5575.40467368484,-12243.5374650163,52.6577535632579)
(-5689.52295374261,-12144.9807655186,86.0768686017798)
(-5919.47640634565,-12125.685286162,136.237837168313)
(-6162.71950306404,-12214.9691518754,-190.405120401785)
(-6550.53514178493,-12081.4999990535,-1916.3732372457)
(-6432.43793079853,-10350.8583207178,-10611.3936660963)
(0,0,0)
(0,0,0)
(0,0,0)
(0,0,0)
(0,0,0)
(0,0,0)
(0,0,0)
(0,0,0)
(0,0,0)
(0,0,0)
(0,0,0)
(0,0,0)
(0,0,0)
(0,0,0)
(0,0,0)
(0,0,0)
(0,0,0)
(0,0,0)
(0,0,0)
(0,0,0)
(0,0,0)
(0,0,0)
(0,0,0)
(0,0,0)
(0,0,0)
(0,0,0)
(0,0,0)
(0,0,0)
(0,0,0)
(0,0,0)
(0,0,0)
(0,0,0)
(0,0,0)
(0,0,0)
(0,0,0)
(0,0,0)
(0,0,0)
(0,0,0)
(0,0,0)
(0,0,0)
(0,0,0)
(0,0,0)
(0,0,0)
(0,0,0)
(0,0,0)
(0,0,0)
(0,0,0)
(0,0,0)
(0,0,0)
(0,0,0)
(0,0,0)
(0,0,0)
(0,0,0)
(0,0,0)
(0,0,0)
(0,0,0)
(0,0,0)
(0,0,0)
(0,0,0)
(0,0,0)
(0,0,0)
(0,0,0)
(0,0,0)
(0,0,0)
(0,0,0)
(0,0,0)
(0,0,0)
(0,0,0)
(0,0,0)
(0,0,0)
(0,0,0)
(0,0,0)
(0,0,0)
(0,0,0)
(0,0,0)
(0,0,0)
(0,0,0)
(0,0,0)
(0,0,0)
(0,0,0)
(0,0,0)
(0,0,0)
(0,0,0)
(0,0,0)
(0,0,0)
(0,0,0)
(0,0,0)
(0,0,0)
(0,0,0)
(0,0,0)
(0,0,0)
(0,0,0)
(0,0,0)
(0,0,0)
(0,0,0)
(0,0,0)
(0,0,0)
(0,0,0)
(0,0,0)
(0,0,0)
(0,0,0)
(0,0,0)
(-327.140949360024,104.013008350424,-53.0006401742088)
(-425.648323244039,130.902928068242,-112.341020405391)
(-536.849455345401,137.432148591148,-188.59498727439)
(-730.336025296139,112.088292951891,-239.206337471703)
(-903.614756663096,70.5705469767691,-279.199150039768)
(-1103.955264392,72.3650585352502,-433.87532658286)
(-1404.64387385844,82.7403441079072,-868.558533930618)
(-1834.56619860711,78.5118661359624,-1798.63709064348)
(-2312.88693461236,46.7083199785762,-3719.80473963486)
(-2164.29833088454,5.50779884848973,-7069.53431388569)
(0,0,0)
(0,0,0)
(0,0,0)
(0,0,0)
(0,0,0)
(0,0,0)
(-450.669583838391,229.569467356277,-55.4343682375355)
(-538.680131846945,247.275961344193,-112.149325152067)
(-624.995478115775,250.247714015354,-183.100277120334)
(-775.922223253503,199.00440562284,-236.543573224509)
(-907.877156722409,128.055845096602,-284.641900855091)
(-1062.44956556477,101.901292075048,-433.870532508026)
(-1310.64588526655,92.3614114233271,-849.970195159881)
(-1745.61660023655,128.386510251284,-1807.62136307156)
(-2268.81657001804,124.111604128822,-3776.25095428027)
(-2143.77963250665,52.8405236833719,-7153.63686809113)
(0,0,0)
(0,0,0)
(0,0,0)
(0,0,0)
(0,0,0)
(0,0,0)
(-642.823202646736,341.908876039821,-25.6052565685567)
(-693.107699208715,348.919766467219,-78.9891927329911)
(-730.106264026232,338.621278419768,-151.988320242075)
(-809.387214311728,263.690488199196,-234.430307816203)
(-903.876306111996,173.298532999242,-338.292370669888)
(-1008.18651719731,52.6083077530567,-506.631518591604)
(-1184.21040962257,-162.502715839312,-794.059351779691)
(-1492.5072876435,15.6413843427839,-1779.91652562248)
(-2109.22822775213,145.440318959843,-3783.93147683059)
(-2069.17364494409,82.0771281172461,-7178.72014366398)
(0,0,0)
(0,0,0)
(0,0,0)
(0,0,0)
(0,0,0)
(0,0,0)
(-754.232618793949,447.496846259717,8.05094761211809)
(-785.903701556114,446.485453520651,-31.4596094093422)
(-808.218239168839,422.789505202121,-101.283721559259)
(-827.029985317152,347.674257358142,-230.31019669971)
(-858.40543925949,235.980076374607,-429.772916436931)
(-903.802167682835,-61.650828065568,-706.631795655962)
(-1111.85089152713,-1172.60658423172,-524.115482566711)
(-668.992182973044,-887.592271239372,-1564.34731714673)
(-1744.29038373918,-15.8610880365193,-3695.04217449245)
(-1943.81872909819,28.8593153879321,-7106.69686880283)
(0,0,0)
(0,0,0)
(0,0,0)
(0,0,0)
(0,0,0)
(0,0,0)
(-944.646698395229,528.347272864519,9.39311657364187)
(-944.509644408551,510.057103415986,-24.9678851658067)
(-914.380488442329,470.112981875998,-101.951378939044)
(-883.108350468813,404.987598617622,-278.754151719281)
(-866.288659846997,324.912910289529,-647.767865637464)
(-770.551816961217,163.446326940646,-1712.55349166805)