/*--------------------------------*- C++ -*----------------------------------*\
| =========                 |                                                 |
| \\      /  F ield         | foam-extend: Open Source CFD                    |
|  \\    /   O peration     | Version:     4.0                                |
|   \\  /    A nd           | Web:         http://www.foam-extend.org         |
|    \\/     M anipulation  |                                                 |
\*---------------------------------------------------------------------------*/
FoamFile
{
    version 2.0;
    format ascii;
    class volVectorField;
    location "2314";
    object      H;
}
// * * * * * * * * * * * * * * * * * * * * * * * * * * * * * * * * * * * * * //

dimensions      [0 1 -1 0 0 0 0];

internalField   nonuniform List<vector>
4096
(
(0,0,0)
(0,0,0)
(0,0,0)
(0,0,0)
(0,0,0)
(0,0,0)
(0,0,0)
(0,0,0)
(0,0,0)
(0,0,0)
(0,0,0)
(0,0,0)
(0,0,0)
(0,0,0)
(0,0,0)
(0,0,0)
(0,0,0)
(0,0,0)
(0,0,0)
(0,0,0)
(0,0,0)
(0,0,0)
(0,0,0)
(0,0,0)
(0,0,0)
(0,0,0)
(0,0,0)
(0,0,0)
(0,0,0)
(0,0,0)
(0,0,0)
(0,0,0)
(0,0,0)
(0,0,0)
(0,0,0)
(0,0,0)
(0,0,0)
(0,0,0)
(0,0,0)
(0,0,0)
(0,0,0)
(0,0,0)
(0,0,0)
(0,0,0)
(0,0,0)
(0,0,0)
(0,0,0)
(0,0,0)
(0,0,0)
(0,0,0)
(0,0,0)
(0,0,0)
(0,0,0)
(0,0,0)
(0,0,0)
(0,0,0)
(0,0,0)
(0,0,0)
(0,0,0)
(0,0,0)
(0,0,0)
(0,0,0)
(0,0,0)
(0,0,0)
(0,0,0)
(0,0,0)
(0,0,0)
(0,0,0)
(0,0,0)
(0,0,0)
(0,0,0)
(0,0,0)
(0,0,0)
(0,0,0)
(0,0,0)
(0,0,0)
(0,0,0)
(0,0,0)
(0,0,0)
(0,0,0)
(0,0,0)
(0,0,0)
(0,0,0)
(0,0,0)
(0,0,0)
(0,0,0)
(0,0,0)
(0,0,0)
(0,0,0)
(0,0,0)
(0,0,0)
(0,0,0)
(0,0,0)
(0,0,0)
(0,0,0)
(0,0,0)
(0,0,0)
(0,0,0)
(0,0,0)
(0,0,0)
(0,0,0)
(0,0,0)
(0,0,0)
(0,0,0)
(0,0,0)
(0,0,0)
(0,0,0)
(0,0,0)
(0,0,0)
(0,0,0)
(0,0,0)
(0,0,0)
(0,0,0)
(0,0,0)
(0,0,0)
(0,0,0)
(0,0,0)
(0,0,0)
(0,0,0)
(0,0,0)
(0,0,0)
(0,0,0)
(0,0,0)
(0,0,0)
(0,0,0)
(0,0,0)
(0,0,0)
(0,0,0)
(0,0,0)
(0,0,0)
(0,0,0)
(0,0,0)
(0,0,0)
(0,0,0)
(0,0,0)
(0,0,0)
(0,0,0)
(0,0,0)
(0,0,0)
(0,0,0)
(0,0,0)
(0,0,0)
(0,0,0)
(0,0,0)
(0,0,0)
(0,0,0)
(0,0,0)
(0,0,0)
(0,0,0)
(0,0,0)
(0,0,0)
(0,0,0)
(0,0,0)
(0,0,0)
(0,0,0)
(0,0,0)
(0,0,0)
(0,0,0)
(0,0,0)
(0,0,0)
(0,0,0)
(0,0,0)
(0,0,0)
(0,0,0)
(0,0,0)
(0,0,0)
(0,0,0)
(0,0,0)
(0,0,0)
(0,0,0)
(0,0,0)
(0,0,0)
(0,0,0)
(0,0,0)
(0,0,0)
(0,0,0)
(0,0,0)
(0,0,0)
(0,0,0)
(0,0,0)
(0,0,0)
(0,0,0)
(0,0,0)
(0,0,0)
(0,0,0)
(0,0,0)
(0,0,0)
(0,0,0)
(0,0,0)
(0,0,0)
(0,0,0)
(0,0,0)
(0,0,0)
(0,0,0)
(0,0,0)
(0,0,0)
(0,0,0)
(0,0,0)
(0,0,0)
(0,0,0)
(0,0,0)
(0,0,0)
(0,0,0)
(0,0,0)
(0,0,0)
(0,0,0)
(0,0,0)
(0,0,0)
(0,0,0)
(0,0,0)
(0,0,0)
(0,0,0)
(0,0,0)
(0,0,0)
(0,0,0)
(0,0,0)
(0,0,0)
(0,0,0)
(0,0,0)
(0,0,0)
(0,0,0)
(0,0,0)
(0,0,0)
(0,0,0)
(0,0,0)
(0,0,0)
(0,0,0)
(0,0,0)
(0,0,0)
(0,0,0)
(0,0,0)
(0,0,0)
(0,0,0)
(0,0,0)
(0,0,0)
(0,0,0)
(0,0,0)
(0,0,0)
(0,0,0)
(0,0,0)
(0,0,0)
(0,0,0)
(0,0,0)
(0,0,0)
(0,0,0)
(0,0,0)
(0,0,0)
(0,0,0)
(0,0,0)
(0,0,0)
(0,0,0)
(0,0,0)
(0,0,0)
(0,0,0)
(0,0,0)
(0,0,0)
(0,0,0)
(0,0,0)
(0,0,0)
(0,0,0)
(0,0,0)
(0,0,0)
(0,0,0)
(0,0,0)
(0,0,0)
(0,0,0)
(0,0,0)
(0,0,0)
(0,0,0)
(0,0,0)
(0,0,0)
(0,0,0)
(0,0,0)
(0,0,0)
(0,0,0)
(0,0,0)
(0,0,0)
(0,0,0)
(0,0,0)
(0,0,0)
(0,0,0)
(0,0,0)
(0,0,0)
(0,0,0)
(0,0,0)
(0,0,0)
(0,0,0)
(0,0,0)
(0,0,0)
(0,0,0)
(0,0,0)
(0,0,0)
(0,0,0)
(0,0,0)
(0,0,0)
(0,0,0)
(0,0,0)
(0,0,0)
(0,0,0)
(0,0,0)
(0,0,0)
(0,0,0)
(0,0,0)
(0,0,0)
(0,0,0)
(0,0,0)
(0,0,0)
(0,0,0)
(0,0,0)
(0,0,0)
(0,0,0)
(0,0,0)
(0,0,0)
(0,0,0)
(0,0,0)
(0,0,0)
(0,0,0)
(0,0,0)
(0,0,0)
(0,0,0)
(0,0,0)
(0,0,0)
(0,0,0)
(0,0,0)
(0,0,0)
(0,0,0)
(0,0,0)
(0,0,0)
(0,0,0)
(0,0,0)
(0,0,0)
(0,0,0)
(0,0,0)
(0,0,0)
(0,0,0)
(0,0,0)
(0,0,0)
(0,0,0)
(0,0,0)
(0,0,0)
(0,0,0)
(0,0,0)
(0,0,0)
(0,0,0)
(0,0,0)
(0,0,0)
(0,0,0)
(0,0,0)
(0,0,0)
(0,0,0)
(0,0,0)
(0,0,0)
(0,0,0)
(0,0,0)
(0,0,0)
(0,0,0)
(0,0,0)
(0,0,0)
(0,0,0)
(0,0,0)
(0,0,0)
(0,0,0)
(0,0,0)
(0,0,0)
(0,0,0)
(0,0,0)
(0,0,0)
(0,0,0)
(0,0,0)
(0,0,0)
(0,0,0)
(0,0,0)
(0,0,0)
(0,0,0)
(0,0,0)
(0,0,0)
(0,0,0)
(0,0,0)
(0,0,0)
(0,0,0)
(0,0,0)
(0,0,0)
(0,0,0)
(0,0,0)
(0,0,0)
(0,0,0)
(0,0,0)
(0,0,0)
(0,0,0)
(0,0,0)
(0,0,0)
(0,0,0)
(0,0,0)
(0,0,0)
(0,0,0)
(0,0,0)
(0,0,0)
(0,0,0)
(0,0,0)
(0,0,0)
(0,0,0)
(0,0,0)
(0,0,0)
(0,0,0)
(0,0,0)
(0,0,0)
(0,0,0)
(0,0,0)
(0,0,0)
(0,0,0)
(0,0,0)
(0,0,0)
(0,0,0)
(0,0,0)
(0,0,0)
(0,0,0)
(0,0,0)
(0,0,0)
(0,0,0)
(0,0,0)
(0,0,0)
(0,0,0)
(0,0,0)
(0,0,0)
(0,0,0)
(0,0,0)
(0,0,0)
(0,0,0)
(0,0,0)
(0,0,0)
(0,0,0)
(0,0,0)
(0,0,0)
(0,0,0)
(0,0,0)
(0,0,0)
(0,0,0)
(0,0,0)
(0,0,0)
(0,0,0)
(0,0,0)
(0,0,0)
(0,0,0)
(0,0,0)
(0,0,0)
(0,0,0)
(0,0,0)
(0,0,0)
(0,0,0)
(0,0,0)
(0,0,0)
(0,0,0)
(0,0,0)
(0,0,0)
(0,0,0)
(0,0,0)
(0,0,0)
(0,0,0)
(0,0,0)
(0,0,0)
(0,0,0)
(0,0,0)
(0,0,0)
(0,0,0)
(0,0,0)
(0,0,0)
(0,0,0)
(0,0,0)
(0,0,0)
(0,0,0)
(0,0,0)
(0,0,0)
(0,0,0)
(0,0,0)
(0,0,0)
(0,0,0)
(0,0,0)
(0,0,0)
(0,0,0)
(0,0,0)
(0,0,0)
(0,0,0)
(0,0,0)
(0,0,0)
(0,0,0)
(0,0,0)
(0,0,0)
(0,0,0)
(0,0,0)
(0,0,0)
(0,0,0)
(0,0,0)
(0,0,0)
(0,0,0)
(0,0,0)
(0,0,0)
(0,0,0)
(0,0,0)
(0,0,0)
(0,0,0)
(0,0,0)
(0,0,0)
(0,0,0)
(0,0,0)
(0,0,0)
(0,0,0)
(0,0,0)
(0,0,0)
(0,0,0)
(0,0,0)
(0,0,0)
(0,0,0)
(0,0,0)
(0,0,0)
(0,0,0)
(0,0,0)
(0,0,0)
(0,0,0)
(0,0,0)
(0,0,0)
(0,0,0)
(0,0,0)
(0,0,0)
(0,0,0)
(0,0,0)
(0,0,0)
(0,0,0)
(0,0,0)
(0,0,0)
(0,0,0)
(0,0,0)
(0,0,0)
(0,0,0)
(0,0,0)
(0,0,0)
(0,0,0)
(0,0,0)
(0,0,0)
(0,0,0)
(0,0,0)
(0,0,0)
(0,0,0)
(0,0,0)
(0,0,0)
(0,0,0)
(0,0,0)
(0,0,0)
(0,0,0)
(0,0,0)
(0,0,0)
(0,0,0)
(0,0,0)
(0,0,0)
(0,0,0)
(0,0,0)
(0,0,0)
(0,0,0)
(0,0,0)
(0,0,0)
(0,0,0)
(0,0,0)
(0,0,0)
(0,0,0)
(0,0,0)
(0,0,0)
(0,0,0)
(0,0,0)
(0,0,0)
(0,0,0)
(0,0,0)
(0,0,0)
(0,0,0)
(0,0,0)
(0,0,0)
(0,0,0)
(0,0,0)
(0,0,0)
(0,0,0)
(0,0,0)
(0,0,0)
(0,0,0)
(0,0,0)
(0,0,0)
(0,0,0)
(0,0,0)
(0,0,0)
(0,0,0)
(0,0,0)
(0,0,0)
(0,0,0)
(0,0,0)
(0,0,0)
(0,0,0)
(0,0,0)
(0,0,0)
(0,0,0)
(0,0,0)
(0,0,0)
(0,0,0)
(0,0,0)
(0,0,0)
(0,0,0)
(0,0,0)
(0,0,0)
(0,0,0)
(0,0,0)
(0,0,0)
(0,0,0)
(0,0,0)
(0,0,0)
(0,0,0)
(0,0,0)
(0,0,0)
(0,0,0)
(0,0,0)
(0,0,0)
(0,0,0)
(0,0,0)
(0,0,0)
(0,0,0)
(0,0,0)
(0,0,0)
(0,0,0)
(0,0,0)
(0,0,0)
(0,0,0)
(0,0,0)
(0,0,0)
(0,0,0)
(0,0,0)
(0,0,0)
(0,0,0)
(0,0,0)
(0,0,0)
(0,0,0)
(0,0,0)
(0,0,0)
(0,0,0)
(0,0,0)
(0,0,0)
(0,0,0)
(0,0,0)
(0,0,0)
(0,0,0)
(0,0,0)
(0,0,0)
(0,0,0)
(0,0,0)
(0,0,0)
(0,0,0)
(0,0,0)
(0,0,0)
(0,0,0)
(0,0,0)
(0,0,0)
(0,0,0)
(0,0,0)
(0,0,0)
(0,0,0)
(0,0,0)
(0,0,0)
(0,0,0)
(0,0,0)
(0,0,0)
(0,0,0)
(0,0,0)
(0,0,0)
(0,0,0)
(0,0,0)
(0,0,0)
(0,0,0)
(0,0,0)
(0,0,0)
(0,0,0)
(0,0,0)
(0,0,0)
(0,0,0)
(0,0,0)
(0,0,0)
(0,0,0)
(0,0,0)
(0,0,0)
(0,0,0)
(0,0,0)
(0,0,0)
(0,0,0)
(0,0,0)
(0,0,0)
(0,0,0)
(0,0,0)
(0,0,0)
(0,0,0)
(0,0,0)
(0,0,0)
(0,0,0)
(0,0,0)
(0,0,0)
(0,0,0)
(0,0,0)
(0,0,0)
(0,0,0)
(0,0,0)
(0,0,0)
(0,0,0)
(0,0,0)
(0,0,0)
(0,0,0)
(0,0,0)
(0,0,0)
(0,0,0)
(0,0,0)
(0,0,0)
(0,0,0)
(0,0,0)
(0,0,0)
(0,0,0)
(0,0,0)
(0,0,0)
(0,0,0)
(0,0,0)
(0,0,0)
(0,0,0)
(0,0,0)
(0,0,0)
(0,0,0)
(0,0,0)
(0,0,0)
(0,0,0)
(0,0,0)
(0,0,0)
(0,0,0)
(0,0,0)
(0,0,0)
(0,0,0)
(0,0,0)
(0,0,0)
(0,0,0)
(0,0,0)
(0,0,0)
(0,0,0)
(0,0,0)
(0,0,0)
(0,0,0)
(0,0,0)
(0,0,0)
(0,0,0)
(0,0,0)
(0,0,0)
(0,0,0)
(0,0,0)
(0,0,0)
(0,0,0)
(0,0,0)
(0,0,0)
(0,0,0)
(0,0,0)
(0,0,0)
(0,0,0)
(0,0,0)
(0,0,0)
(0,0,0)
(0,0,0)
(0,0,0)
(0,0,0)
(0,0,0)
(0,0,0)
(0,0,0)
(0,0,0)
(0,0,0)
(0,0,0)
(0,0,0)
(0,0,0)
(0,0,0)
(0,0,0)
(0,0,0)
(0,0,0)
(0,0,0)
(0,0,0)
(0,0,0)
(0,0,0)
(0,0,0)
(0,0,0)
(0,0,0)
(0,0,0)
(0,0,0)
(0,0,0)
(0,0,0)
(0,0,0)
(0,0,0)
(0,0,0)
(0,0,0)
(0,0,0)
(0,0,0)
(0,0,0)
(0,0,0)
(0,0,0)
(0,0,0)
(0,0,0)
(0,0,0)
(0,0,0)
(0,0,0)
(0,0,0)
(0,0,0)
(0,0,0)
(0,0,0)
(0,0,0)
(0,0,0)
(0,0,0)
(0,0,0)
(0,0,0)
(0,0,0)
(0,0,0)
(0,0,0)
(0,0,0)
(0,0,0)
(0,0,0)
(0,0,0)
(0,0,0)
(0,0,0)
(3.84138578300182e-13,1.44471276390314e-11,-1.28656923402748e-11)
(7.08529663026391e-13,3.09109863447473e-11,-1.28645222117855e-11)
(9.91197444053167e-13,5.16570797426719e-11,-1.19002138048413e-11)
(2.4479500405434e-12,8.00102732014542e-11,-1.02247826525009e-11)
(3.26277249799482e-12,1.22881711211931e-10,-7.97638537174062e-12)
(3.96932074335279e-12,1.90024326773544e-10,-5.47923772650149e-12)
(4.9496713905613e-12,2.99356151158189e-10,-3.47972330786561e-12)
(4.74648156533314e-12,4.82791821517047e-10,-2.40848432629813e-12)
(4.17351851687927e-12,7.86630340742556e-10,-1.8024605755279e-12)
(3.97620663868534e-12,1.21043471074373e-09,-1.18880883461407e-12)
(0,0,0)
(0,0,0)
(0,0,0)
(0,0,0)
(0,0,0)
(0,0,0)
(5.21412245292221e-13,1.41212847536397e-11,-3.00187810471077e-11)
(6.3855215892871e-13,2.97733884461429e-11,-2.94611484522302e-11)
(1.53833859250625e-12,4.99264961337892e-11,-2.74848043740283e-11)
(3.80870403530371e-12,7.80482943278887e-11,-2.41839590413727e-11)
(5.57560370123755e-12,1.20730215859898e-10,-1.95823746261979e-11)
(6.81522257235955e-12,1.88386848677996e-10,-1.41649602051948e-11)
(7.4570097188294e-12,2.9907905002553e-10,-8.92783699806304e-12)
(7.36333933934998e-12,4.8322728269083e-10,-5.79925433837223e-12)
(7.74169645274232e-12,7.87358837179548e-10,-3.84439526667878e-12)
(8.14161676760472e-12,1.21094978429455e-09,-2.02424225784581e-12)
(0,0,0)
(0,0,0)
(0,0,0)
(0,0,0)
(0,0,0)
(0,0,0)
(1.89271775535482e-13,1.3427330205245e-11,-5.27324907887967e-11)
(8.68699042573241e-13,2.78040852808798e-11,-5.13854049921343e-11)
(2.70053457864596e-12,4.6753291790945e-11,-4.8568956212247e-11)
(5.50205462236416e-12,7.35588533011283e-11,-4.38083211970738e-11)
(7.48539606807851e-12,1.15414665931645e-10,-3.68219824273407e-11)
(8.68829409542357e-12,1.83542104038808e-10,-2.82843226496115e-11)
(9.07850302330048e-12,2.96613876040837e-10,-1.97737503564429e-11)
(8.95644516083939e-12,4.82486674816165e-10,-1.39609714709627e-11)
(9.53773390586909e-12,7.87412375851048e-10,-9.58027316290243e-12)
(1.01174642468126e-11,1.21126284076463e-09,-4.75135367078645e-12)
(0,0,0)
(0,0,0)
(0,0,0)
(0,0,0)
(0,0,0)
(0,0,0)
(1.38564465210241e-12,1.16098505438218e-11,-8.33449305192426e-11)
(2.36278433587899e-12,2.44807826472243e-11,-8.16141763371644e-11)
(4.84654096981912e-12,4.15009423354443e-11,-7.82463236127554e-11)
(8.25935233713533e-12,6.58989305596751e-11,-7.22037443172008e-11)
(1.04291899556854e-11,1.06042572739997e-10,-6.35534593080172e-11)
(1.17066185956802e-11,1.74299425472064e-10,-5.31135178538485e-11)
(1.18525470170287e-11,2.89809322477592e-10,-4.18086103841452e-11)
(1.09713220821307e-11,4.7840928958143e-10,-3.19442974780311e-11)
(1.12988352393704e-11,7.8402068904276e-10,-2.2469854065658e-11)
(1.16977160737978e-11,1.20862905793627e-09,-1.16773270759852e-11)
(0,0,0)
(0,0,0)
(0,0,0)
(0,0,0)
(0,0,0)
(0,0,0)
(3.37232612169366e-12,9.13093641846402e-12,-1.26140739282914e-10)
(5.65774466691556e-12,2.01201715213511e-11,-1.24698979147182e-10)
(8.36270518858733e-12,3.47181700580778e-11,-1.21412271164854e-10)
(1.10497345973638e-11,5.61890374280438e-11,-1.15538001474916e-10)
(1.32909563650292e-11,9.36762219335743e-11,-1.07544439688764e-10)
(1.45720009258854e-11,1.60492485081308e-10,-9.71083575782843e-11)
(1.33872433569524e-11,2.77496719240852e-10,-8.40577974784816e-11)
(1.30723485664892e-11,4.69489579638096e-10,-6.69441270560936e-11)
(1.45469868505459e-11,7.74915436881757e-10,-4.7234314102597e-11)
(1.50604527660829e-11,1.19884751724218e-09,-2.47897666910913e-11)
(0,0,0)
(0,0,0)
(0,0,0)
(0,0,0)
(0,0,0)
(0,0,0)
(4.69992996691913e-12,7.01336203324606e-12,-1.92487431168454e-10)
(9.13531480648116e-12,1.58010190365575e-11,-1.91443190641055e-10)
(1.3236292381164e-11,2.77834960431351e-11,-1.88576044650131e-10)
(1.5946407987908e-11,4.64748492256875e-11,-1.83332315219923e-10)
(1.78223300151953e-11,8.04761305935029e-11,-1.76024642453844e-10)
(1.84466254413288e-11,1.44588194873406e-10,-1.64951840135303e-10)
(1.72216746917446e-11,2.62097467135203e-10,-1.47943279944164e-10)
(1.7324694051779e-11,4.52386502070326e-10,-1.2289205148937e-10)
(1.80186544870804e-11,7.54616808591705e-10,-8.88319410485761e-11)
(1.83698986578118e-11,1.17559615653192e-09,-4.7250599313999e-11)
(0,0,0)
(0,0,0)
(0,0,0)
(0,0,0)
(0,0,0)
(0,0,0)
(6.63596039958978e-12,5.00704304101595e-12,-3.00011503248028e-10)
(1.22031931920822e-11,1.1958878348293e-11,-2.99395990063145e-10)
(1.68973276307178e-11,2.1835695981674e-11,-2.97049238449905e-10)
(1.93097045768138e-11,3.78777389616257e-11,-2.92290401130019e-10)
(2.04369482432509e-11,6.75737337757321e-11,-2.85078270374796e-10)
(2.11667984847835e-11,1.26288633103499e-10,-2.72560362010551e-10)
(2.07562964438632e-11,2.38878735700848e-10,-2.49256542671419e-10)
(2.18314713712642e-11,4.2073014983442e-10,-2.14090199142062e-10)
(2.25797250317382e-11,7.14325390560686e-10,-1.59568163299218e-10)
(2.28452778057655e-11,1.12895488827155e-09,-8.66819263760556e-11)
(0,0,0)
(0,0,0)
(0,0,0)
(0,0,0)
(0,0,0)
(0,0,0)
(6.79714801230023e-12,3.74182440777602e-12,-4.78235398539333e-10)
(1.2449148824263e-11,9.18033039159219e-12,-4.77788913716615e-10)
(1.7537447273092e-11,1.7078158932616e-11,-4.75759311698483e-10)
(2.02953526963096e-11,3.0318260943343e-11,-4.70995022235841e-10)
(2.21887564057068e-11,5.56169544798181e-11,-4.62903642072167e-10)
(2.39590987828982e-11,1.07283979449067e-10,-4.48320316644328e-10)
(2.37960694908302e-11,2.05248218255981e-10,-4.19572862995681e-10)
(2.49649259249988e-11,3.6732142766976e-10,-3.68047530545891e-10)
(2.59525708338301e-11,6.41588702065688e-10,-2.84502734875684e-10)
(2.66587216921468e-11,1.04179869736469e-09,-1.61154982270592e-10)
(0,0,0)
(0,0,0)
(0,0,0)
(0,0,0)
(0,0,0)
(0,0,0)
(6.22552256496385e-12,2.88176298700428e-12,-7.78708969560439e-10)
(1.14985610782385e-11,6.6756263927034e-12,-7.78212092035142e-10)
(1.7074570165913e-11,1.21780098508121e-11,-7.75820991680641e-10)
(2.05562097212639e-11,2.17634389134621e-11,-7.6998178719224e-10)
(2.39355390012138e-11,4.07525952673386e-11,-7.59840381570708e-10)
(2.5941739336757e-11,7.99986429186088e-11,-7.41155916578241e-10)
(2.5595717906937e-11,1.53668738004024e-10,-7.04400936781773e-10)
(2.65390956775929e-11,2.83169757823256e-10,-6.35385717210542e-10)
(2.82255882633258e-11,5.1699897500733e-10,-5.14047491994316e-10)
(3.07825614543593e-11,8.78985931521411e-10,-3.09272747864591e-10)
(0,0,0)
(0,0,0)
(0,0,0)
(0,0,0)
(0,0,0)
(0,0,0)
(5.23893362737881e-12,1.8575184544443e-12,-1.20218561611252e-09)
(9.92773888135697e-12,3.72958088759396e-12,-1.20100500225181e-09)
(1.5957059793188e-11,6.43229007832838e-12,-1.19782823244578e-09)
(2.06172552832162e-11,1.14833197400882e-11,-1.19142731415185e-09)
(2.50474258492148e-11,2.19116808914757e-11,-1.17991203422356e-09)
(2.6700593797835e-11,4.32474001725141e-11,-1.15792971146731e-09)
(2.59792947434224e-11,8.37423892397845e-11,-1.1150604507073e-09)
(2.68967730474394e-11,1.60284944453868e-10,-1.03244848586723e-09)
(2.82917546570282e-11,3.10452798288089e-10,-8.73921993900054e-10)
(3.0779665106457e-11,5.6796028272878e-10,-5.65646046060877e-10)
(0,0,0)
(0,0,0)
(0,0,0)
(0,0,0)
(0,0,0)
(0,0,0)
(0,0,0)
(0,0,0)
(0,0,0)
(0,0,0)
(0,0,0)
(0,0,0)
(0,0,0)
(0,0,0)
(0,0,0)
(0,0,0)
(0,0,0)
(0,0,0)
(0,0,0)
(0,0,0)
(0,0,0)
(0,0,0)
(0,0,0)
(0,0,0)
(0,0,0)
(0,0,0)
(0,0,0)
(0,0,0)
(0,0,0)
(0,0,0)
(0,0,0)
(0,0,0)
(0,0,0)
(0,0,0)
(0,0,0)
(0,0,0)
(0,0,0)
(0,0,0)
(0,0,0)
(0,0,0)
(0,0,0)
(0,0,0)
(0,0,0)
(0,0,0)
(0,0,0)
(0,0,0)
(0,0,0)
(0,0,0)
(0,0,0)
(0,0,0)
(0,0,0)
(0,0,0)
(0,0,0)
(0,0,0)
(0,0,0)
(0,0,0)
(0,0,0)
(0,0,0)
(0,0,0)
(0,0,0)
(0,0,0)
(0,0,0)
(0,0,0)
(0,0,0)
(0,0,0)
(0,0,0)
(0,0,0)
(0,0,0)
(0,0,0)
(0,0,0)
(0,0,0)
(0,0,0)
(0,0,0)
(0,0,0)
(0,0,0)
(0,0,0)
(0,0,0)
(0,0,0)
(0,0,0)
(0,0,0)
(0,0,0)
(0,0,0)
(0,0,0)
(0,0,0)
(0,0,0)
(0,0,0)
(0,0,0)
(0,0,0)
(0,0,0)
(0,0,0)
(0,0,0)
(0,0,0)
(0,0,0)
(0,0,0)
(0,0,0)
(0,0,0)
(0,0,0)
(0,0,0)
(0,0,0)
(0,0,0)
(0,0,0)
(0,0,0)
(7.08811335199885e-13,2.76818677267967e-11,-2.66882035440492e-11)
(8.81819154682882e-13,5.78994833860001e-11,-2.55078012189696e-11)
(1.04634990057395e-12,9.62542153525371e-11,-2.27342183907977e-11)
(2.1615316333476e-12,1.48314205459115e-10,-1.86699419408783e-11)
(2.91712020473455e-12,2.24771358035719e-10,-1.33791234046415e-11)
(3.60728442028655e-12,3.4116629622814e-10,-7.66714731433095e-12)
(4.15553354172879e-12,5.27283511708007e-10,-3.14703382346486e-12)
(3.70499664062908e-12,8.45608507686309e-10,-1.30270731313523e-12)
(2.83137033860532e-12,1.45325061854687e-09,-7.80634278188498e-13)
(2.27232425270904e-12,2.84510969685812e-09,-4.61563071843712e-13)
(0,0,0)
(0,0,0)
(0,0,0)
(0,0,0)
(0,0,0)
(0,0,0)
(6.57734198810669e-13,2.67581681471262e-11,-5.87377142294231e-11)
(6.31511245993905e-13,5.55590484994225e-11,-5.60477012084563e-11)
(1.41069760270333e-12,9.27861203290929e-11,-5.09862365441629e-11)
(3.6965606468819e-12,1.43956782587676e-10,-4.35598964378403e-11)
(5.47373920848608e-12,2.19805458223305e-10,-3.29385527671761e-11)
(6.42284400439631e-12,3.37127090428964e-10,-2.01635171079739e-11)
(6.79360104372247e-12,5.26402173089111e-10,-8.79164362417094e-12)
(6.14908814256763e-12,8.46848161692275e-10,-3.88428596020225e-12)
(5.86800477280579e-12,1.45496748490372e-09,-2.2280662820646e-12)
(5.80431803994245e-12,2.84642877241876e-09,-1.02437755374365e-12)
(0,0,0)
(0,0,0)
(0,0,0)
(0,0,0)
(0,0,0)
(0,0,0)
(6.59665640296958e-13,2.45295247233065e-11,-9.96109305919975e-11)
(1.37555289634698e-12,5.08016028959252e-11,-9.61278002767875e-11)
(3.19224901898803e-12,8.5729208189725e-11,-8.95897018110066e-11)
(6.17563859409216e-12,1.33959610598013e-10,-7.90952884311605e-11)
(8.31982948194248e-12,2.07712067422826e-10,-6.31939718502281e-11)
(9.42040036899422e-12,3.26020088548982e-10,-4.27595841181979e-11)
(1.00702777010849e-11,5.22007595330772e-10,-2.33290121611312e-11)
(8.65313208734767e-12,8.47647099600568e-10,-1.44967111055871e-11)
(8.10050122179461e-12,1.45705187287175e-09,-1.02225448735263e-11)
(7.99989340421727e-12,2.84853460750728e-09,-5.39630719713203e-12)
(0,0,0)
(0,0,0)
(0,0,0)
(0,0,0)
(0,0,0)
(0,0,0)
(2.13380459538116e-12,2.1030464862446e-11,-1.5371422378516e-10)
(3.35554273734008e-12,4.36788147445945e-11,-1.50193121196721e-10)
(5.58673395162256e-12,7.45692390086522e-11,-1.43198765044013e-10)
(9.31896045958651e-12,1.17638339132333e-10,-1.30947700085021e-10)
(1.23555993079303e-11,1.86667686636969e-10,-1.12095587340622e-10)
(1.42086515167529e-11,3.04600160466018e-10,-8.71802902756592e-11)
(1.43008373476364e-11,5.10151799205501e-10,-6.07123071540687e-11)
(1.04165886131926e-11,8.45672884920119e-10,-4.52623727152857e-11)
(9.61156041114207e-12,1.45613069851211e-09,-3.28600452113657e-11)
(9.80192969274365e-12,2.84706888237942e-09,-1.76642146877811e-11)
(0,0,0)
(0,0,0)
(0,0,0)
(0,0,0)
(0,0,0)
(0,0,0)
(4.04814037117946e-12,1.67589855801753e-11,-2.29417989561582e-10)
(6.6901891693792e-12,3.5082990255111e-11,-2.26428133946091e-10)
(9.42310951359124e-12,6.06299643736199e-11,-2.20003487361459e-10)
(1.27703610135631e-11,9.70600214987073e-11,-2.08694308686012e-10)
(1.60549655946312e-11,1.5811988218616e-10,-1.91935478683066e-10)
(1.74257310339863e-11,2.7014856204341e-10,-1.70641064397469e-10)
(1.16728250402167e-11,4.81738258430784e-10,-1.50189110795522e-10)
(1.04656131809554e-11,8.35268256778228e-10,-1.15491251071192e-10)
(1.24010677290252e-11,1.44548796553352e-09,-8.08615263722854e-11)
(1.35220467847971e-11,2.8335470840121e-09,-4.23686295736031e-11)
(0,0,0)
(0,0,0)
(0,0,0)
(0,0,0)
(0,0,0)
(0,0,0)
(5.66200843175015e-12,1.28560490249432e-11,-3.43778607717433e-10)
(1.01103095038212e-11,2.67214774644652e-11,-3.41236305970612e-10)
(1.39403630124132e-11,4.66488943917974e-11,-3.36198663853531e-10)
(1.72358454859025e-11,7.63031515873286e-11,-3.27188904088714e-10)
(1.96519245144354e-11,1.2899036664578e-10,-3.1345791528247e-10)
(1.97376270200661e-11,2.36260980971505e-10,-2.94071643424622e-10)
(1.53891776713642e-11,4.58157648596508e-10,-2.67887036815581e-10)
(1.49209358469075e-11,8.09220392541173e-10,-2.21247038232726e-10)
(1.67287307834007e-11,1.41237991593676e-09,-1.58929080682396e-10)
(1.77605676044174e-11,2.79448793744109e-09,-8.38894269184115e-11)
(0,0,0)
(0,0,0)
(0,0,0)
(0,0,0)
(0,0,0)
(0,0,0)
(7.28566584794594e-12,9.28350462334957e-12,-5.26462102170914e-10)
(1.26349895355442e-11,1.98402125036976e-11,-5.24548083322354e-10)
(1.68960273598908e-11,3.50066294787671e-11,-5.20298186228819e-10)
(1.96570518398657e-11,5.84619165860363e-11,-5.13286926183851e-10)
(1.9875819174942e-11,1.0231668749717e-10,-5.0293444305559e-10)
(1.68676328001098e-11,1.98494647415928e-10,-4.85018870654691e-10)
(1.92204703594184e-11,4.17842376014318e-10,-4.41856391520416e-10)
(2.07181576929288e-11,7.53179722315236e-10,-3.85561850493535e-10)
(2.24301766032781e-11,1.34053300633764e-09,-2.84817950609093e-10)
(2.3319542337101e-11,2.711915656396e-09,-1.53555094790533e-10)
(0,0,0)
(0,0,0)
(0,0,0)
(0,0,0)
(0,0,0)
(0,0,0)
(7.2107246103543e-12,6.63905824923622e-12,-8.36030507804543e-10)
(1.29242508050203e-11,1.45608550219726e-11,-8.34625353655067e-10)
(1.76733068922569e-11,2.65500849246797e-11,-8.30872598362037e-10)
(2.07587945625181e-11,4.6571479982921e-11,-8.24028648218473e-10)
(2.24697901903228e-11,8.67956607176761e-11,-8.13025750272341e-10)
(2.24969816647332e-11,1.76474846421908e-10,-7.92817682778709e-10)
(2.38502172930302e-11,3.62663465014684e-10,-7.47441239611585e-10)
(2.55718001011159e-11,6.53354949436462e-10,-6.55453263427457e-10)
(2.71945452872528e-11,1.2093864465733e-09,-5.04611526828365e-10)
(2.83165052642452e-11,2.55765813740805e-09,-2.8687761882405e-10)
(0,0,0)
(0,0,0)
(0,0,0)
(0,0,0)
(0,0,0)
(0,0,0)
(6.75288957222641e-12,4.68712890796548e-12,-1.43745258031263e-09)
(1.20535062288473e-11,1.01017637791908e-11,-1.43591802658681e-09)
(1.69810854499977e-11,1.88862810526325e-11,-1.4317529811329e-09)
(2.06949232731092e-11,3.43871898952123e-11,-1.42315404313437e-09)
(2.40919883846232e-11,6.64821398906624e-11,-1.40797061739177e-09)
(2.5938002286363e-11,1.35442641888745e-10,-1.37903966492069e-09)
(2.65068470999457e-11,2.69238476209525e-10,-1.3186774546132e-09)
(2.80856838307474e-11,5.00540977389294e-10,-1.19794873450764e-09)
(2.99970208528308e-11,9.89149784557587e-10,-9.8437914730652e-10)
(3.25354623824904e-11,2.26785576917444e-09,-6.15651961234403e-10)
(0,0,0)
(0,0,0)
(0,0,0)
(0,0,0)
(0,0,0)
(0,0,0)
(5.915838221111e-12,2.612166727134e-12,-2.8278832225444e-09)
(1.04805499629179e-11,5.33415459765403e-12,-2.82540749007288e-09)
(1.5988431577589e-11,9.99885666288195e-12,-2.82028825959384e-09)
(2.05852950950098e-11,1.84670651061367e-11,-2.81057044546408e-09)
(2.49767839844365e-11,3.64622417506314e-11,-2.79257090112019e-09)
(2.70787332103258e-11,7.38971812518995e-11,-2.75679328917498e-09)
(2.71097191431287e-11,1.45786927770749e-10,-2.68473590930707e-09)
(2.86552255341736e-11,2.84330499811774e-10,-2.54186816920408e-09)
(3.04686051059413e-11,6.17659882737678e-10,-2.26043466689325e-09)
(3.30939017744556e-11,1.64957104453564e-09,-1.64610123605976e-09)
(0,0,0)
(0,0,0)
(0,0,0)
(0,0,0)
(0,0,0)
(0,0,0)
(0,0,0)
(0,0,0)
(0,0,0)
(0,0,0)
(0,0,0)
(0,0,0)
(0,0,0)
(0,0,0)
(0,0,0)
(0,0,0)
(0,0,0)
(0,0,0)
(0,0,0)
(0,0,0)
(0,0,0)
(0,0,0)
(0,0,0)
(0,0,0)
(0,0,0)
(0,0,0)
(0,0,0)
(0,0,0)
(0,0,0)
(0,0,0)
(0,0,0)
(0,0,0)
(0,0,0)
(0,0,0)
(0,0,0)
(0,0,0)
(0,0,0)
(0,0,0)
(0,0,0)
(0,0,0)
(0,0,0)
(0,0,0)
(0,0,0)
(0,0,0)
(0,0,0)
(0,0,0)
(0,0,0)
(0,0,0)
(0,0,0)
(0,0,0)
(0,0,0)
(0,0,0)
(0,0,0)
(0,0,0)
(0,0,0)
(0,0,0)
(0,0,0)
(0,0,0)
(0,0,0)
(0,0,0)
(0,0,0)
(0,0,0)
(0,0,0)
(0,0,0)
(0,0,0)
(0,0,0)
(0,0,0)
(0,0,0)
(0,0,0)
(0,0,0)
(0,0,0)
(0,0,0)
(0,0,0)
(0,0,0)
(0,0,0)
(0,0,0)
(0,0,0)
(0,0,0)
(0,0,0)
(0,0,0)
(0,0,0)
(0,0,0)
(0,0,0)
(0,0,0)
(0,0,0)
(0,0,0)
(0,0,0)
(0,0,0)
(0,0,0)
(0,0,0)
(0,0,0)
(0,0,0)
(0,0,0)
(0,0,0)
(0,0,0)
(0,0,0)
(0,0,0)
(0,0,0)
(0,0,0)
(0,0,0)
(0,0,0)
(0,0,0)
(4.52108589776223e-13,3.71067476211308e-11,-3.89055402213016e-11)
(4.48671212810741e-13,7.78309149760851e-11,-3.67081865028132e-11)
(4.50168474751577e-13,1.2812379298562e-10,-3.2365147365497e-11)
(1.22813596888804e-12,1.94136093922103e-10,-2.57033852800478e-11)
(2.17104392651832e-12,2.88063831636746e-10,-1.68035292153704e-11)
(3.12637672857103e-12,4.25136432598671e-10,-6.27934475247019e-12)
(3.19254564994734e-12,6.25808137246416e-10,2.72469667532488e-12)
(1.9432695997068e-12,9.17876752165676e-10,5.42895875696619e-12)
(7.95432775463039e-13,1.33268999716394e-09,4.2232339072601e-12)
(4.9168562001011e-13,1.8383308341783e-09,2.11469401025947e-12)
(0,0,0)
(0,0,0)
(0,0,0)
(0,0,0)
(0,0,0)
(0,0,0)
(1.96364601140419e-13,3.55842221932541e-11,-8.2325829658211e-11)
(3.27492184643122e-13,7.42233164285622e-11,-7.8179774490562e-11)
(1.04126963481534e-12,1.22372771259842e-10,-7.04480169100928e-11)
(3.07238896661875e-12,1.86537913795374e-10,-5.83127325090162e-11)
(4.79209434985521e-12,2.79204434827725e-10,-4.02210966905811e-11)
(6.15797240062674e-12,4.18000324745183e-10,-1.68219952438938e-11)
(6.28082113686714e-12,6.25368530140967e-10,5.3010237231731e-12)
(3.69393055756997e-12,9.21596343323076e-10,1.05626161199069e-11)
(2.57992807633894e-12,1.33699464196986e-09,7.17638955438955e-12)
(2.67410539789399e-12,1.84185858481911e-09,3.28622307265895e-12)
(0,0,0)
(0,0,0)
(0,0,0)
(0,0,0)
(0,0,0)
(0,0,0)
(6.75595183994241e-13,3.21388478296408e-11,-1.36405906832473e-10)
(1.96024258308129e-12,6.69912856044349e-11,-1.31320765528013e-10)
(3.85780482077056e-12,1.11220631490477e-10,-1.21061640462037e-10)
(6.5955934781307e-12,1.70320413718239e-10,-1.03760053292816e-10)
(8.92982253584227e-12,2.58623007493284e-10,-7.60571118260497e-11)
(1.14097564947914e-11,3.99078164163839e-10,-3.67114896129992e-11)
(1.30937727717084e-11,6.2350168462611e-10,6.32132295565068e-12)
(6.35318053468691e-12,9.30139122672975e-10,1.10343634722796e-11)
(4.19543790613408e-12,1.34576053848563e-09,3.91389946845703e-12)
(4.06931133424555e-12,1.84891711016768e-09,1.52009985551178e-13)
(0,0,0)
(0,0,0)
(0,0,0)
(0,0,0)
(0,0,0)
(0,0,0)
(2.88418128842997e-12,2.71567458530195e-11,-2.06672543827162e-10)
(4.95701107529925e-12,5.65580659728478e-11,-2.01107762586235e-10)
(7.27494362701067e-12,9.44506493151747e-11,-1.89592819242055e-10)
(1.10451653480566e-11,1.44314293957885e-10,-1.69455008850428e-10)
(1.5988106694503e-11,2.21678688964293e-10,-1.36422869315258e-10)
(2.21922668172214e-11,3.57997872798604e-10,-8.50910529531485e-11)
(2.72644436837649e-11,6.15306380600717e-10,-1.5534141634666e-11)
(8.41888925162459e-12,9.46009672927584e-10,-1.51794907596886e-11)
(5.05846286649817e-12,1.35750695901059e-09,-2.04071192539991e-11)
(5.65951337160012e-12,1.85481386483826e-09,-1.40369523825474e-11)
(0,0,0)
(0,0,0)
(0,0,0)
(0,0,0)
(0,0,0)
(0,0,0)
(4.96122131055734e-12,2.12583911570922e-11,-2.99753967607595e-10)
(8.62705537630791e-12,4.42736621481808e-11,-2.94933521165696e-10)
(1.20950008188347e-11,7.36249929374182e-11,-2.84416328171857e-10)
(1.67684009222127e-11,1.11040061096849e-10,-2.65777863302961e-10)
(2.38900668503921e-11,1.68416388123967e-10,-2.37311762216424e-10)
(3.08613585029097e-11,2.76679294365365e-10,-2.01888813142325e-10)
(5.5557514930899e-13,5.38852256950073e-10,-2.0268318505612e-10)
(1.88375271905639e-12,9.60801403279023e-10,-1.29441767617474e-10)
(7.01622052879206e-12,1.36097183262403e-09,-8.96289533086174e-11)
(1.02125637816502e-11,1.84666464382078e-09,-4.74941762893431e-11)
(0,0,0)
(0,0,0)
(0,0,0)
(0,0,0)
(0,0,0)
(0,0,0)
(6.69225108692453e-12,1.58091847127889e-11,-4.31132100854113e-10)
(1.19539323472429e-11,3.25631899636543e-11,-4.27298662937469e-10)
(1.65728681603968e-11,5.30198394217302e-11,-4.19322580116307e-10)
(2.1346091682322e-11,7.79963572055645e-11,-4.05204310551694e-10)
(2.69393318041152e-11,1.18141455926852e-10,-3.84974877062642e-10)
(3.13193539666487e-11,2.16792441913268e-10,-3.5908546725894e-10)
(9.0644516711238e-12,5.42555309137831e-10,-3.49429173221758e-10)
(8.64364852181338e-12,9.45755552623727e-10,-2.75428094973278e-10)
(1.35359866192763e-11,1.32863672549466e-09,-1.93776343765092e-10)
(1.64434217301136e-11,1.80350573408861e-09,-1.00630381113151e-10)
(0,0,0)
(0,0,0)
(0,0,0)
(0,0,0)
(0,0,0)
(0,0,0)
(8.01609337410988e-12,1.09489472180346e-11,-6.22674689967851e-10)
(1.36644499231709e-11,2.28509022653163e-11,-6.1997491312849e-10)
(1.8341311869114e-11,3.59543511902716e-11,-6.14320078336905e-10)
(2.1195005314675e-11,5.03510107046691e-11,-6.06901588287977e-10)
(1.7481273553883e-11,7.13300346132616e-11,-6.02814841526505e-10)
(-4.27504534039252e-12,1.32177176260948e-10,-6.03994154343961e-10)
(1.81048403324651e-11,4.97239317825895e-10,-5.16237600730832e-10)
(1.97990306866089e-11,8.80551514526572e-10,-4.96696682461602e-10)
(2.23138805495513e-11,1.24113768551581e-09,-3.46996800569203e-10)
(2.40219665349978e-11,1.70418566171027e-09,-1.7909780867055e-10)
(0,0,0)
(0,0,0)
(0,0,0)
(0,0,0)
(0,0,0)
(0,0,0)
(7.75749980240282e-12,7.46654002649726e-12,-9.02275132273189e-10)
(1.36305867549046e-11,1.59198732987133e-11,-9.00272028188759e-10)
(1.84931606200392e-11,2.60787169264106e-11,-8.95852605361033e-10)
(2.19401867052114e-11,4.08713102105851e-11,-8.90738838649453e-10)
(2.25752435229684e-11,7.26365507438972e-11,-8.88182257136016e-10)
(1.81527430310156e-11,1.68481481308765e-10,-8.87695792245596e-10)
(2.52872299141867e-11,4.54438618403063e-10,-8.60044957662313e-10)
(2.75440355480281e-11,7.28363040150126e-10,-7.32168866235299e-10)
(2.96972992990212e-11,1.07228348486989e-09,-5.34226368723337e-10)
(3.12412546744216e-11,1.52340940627336e-09,-2.88201410771567e-10)
(0,0,0)
(0,0,0)
(0,0,0)
(0,0,0)
(0,0,0)
(0,0,0)
(7.29329802714534e-12,4.97636329090689e-12,-1.30966668071653e-09)
(1.26560699563318e-11,1.06916586671638e-11,-1.30729306260788e-09)
(1.72695718419189e-11,1.90149358537817e-11,-1.30247891934004e-09)
(2.14316223195797e-11,3.35463517071827e-11,-1.29526518546966e-09)
(2.51809340539906e-11,6.58458881473989e-11,-1.28440144309173e-09)
(2.71212526153687e-11,1.46223159458142e-10,-1.2629179590937e-09)
(2.92296754330071e-11,3.18104509247287e-10,-1.20457552959342e-09)
(3.07265742060735e-11,5.25900096870608e-10,-1.05748220292172e-09)
(3.27597366014193e-11,8.23175825570434e-10,-8.18559526021198e-10)
(3.51682257867711e-11,1.23219818300519e-09,-4.70149929504364e-10)
(0,0,0)
(0,0,0)
(0,0,0)
(0,0,0)
(0,0,0)
(0,0,0)
(6.05227247616842e-12,2.683095425927e-12,-1.81313050350748e-09)
(1.06954740812045e-11,5.6700179075619e-12,-1.81001147633539e-09)
(1.62694741111455e-11,1.05472084807161e-11,-1.80435112318948e-09)
(2.10528158569858e-11,1.93389958390919e-11,-1.7945067933224e-09)
(2.56614137901147e-11,3.89013154910452e-11,-1.77713343661045e-09)
(2.8918534593778e-11,8.24950152332248e-11,-1.7418740619171e-09)
(3.0028906811279e-11,1.65340555009016e-10,-1.66388145234308e-09)
(3.1552223033909e-11,2.83112592110156e-10,-1.50288527669853e-09)
(3.37950570106907e-11,4.71673170983511e-10,-1.22338822736936e-09)
(3.6563710251009e-11,7.59066543627703e-10,-7.55224752542615e-10)