/*--------------------------------*- C++ -*----------------------------------*\
| =========                 |                                                 |
| \\      /  F ield         | foam-extend: Open Source CFD                    |
|  \\    /   O peration     | Version:     4.0                                |
|   \\  /    A nd           | Web:         http://www.foam-extend.org         |
|    \\/     M anipulation  |                                                 |
\*---------------------------------------------------------------------------*/
FoamFile
{
    version 2.0;
    format ascii;
    class volVectorField;
    location "745";
    object      E;
}
// * * * * * * * * * * * * * * * * * * * * * * * * * * * * * * * * * * * * * //

dimensions      [0 1 -1 0 0 0 0];

internalField   nonuniform List<vector>
4096
(
(0,0,0)
(0,0,0)
(0,0,0)
(0,0,0)
(0,0,0)
(0,0,0)
(0,0,0)
(0,0,0)
(0,0,0)
(0,0,0)
(0,0,0)
(0,0,0)
(0,0,0)
(0,0,0)
(0,0,0)
(0,0,0)
(0,0,0)
(0,0,0)
(0,0,0)
(0,0,0)
(0,0,0)
(0,0,0)
(0,0,0)
(0,0,0)
(0,0,0)
(0,0,0)
(0,0,0)
(0,0,0)
(0,0,0)
(0,0,0)
(0,0,0)
(0,0,0)
(0,0,0)
(0,0,0)
(0,0,0)
(0,0,0)
(0,0,0)
(0,0,0)
(0,0,0)
(0,0,0)
(0,0,0)
(0,0,0)
(0,0,0)
(0,0,0)
(0,0,0)
(0,0,0)
(0,0,0)
(0,0,0)
(0,0,0)
(0,0,0)
(0,0,0)
(0,0,0)
(0,0,0)
(0,0,0)
(0,0,0)
(0,0,0)
(0,0,0)
(0,0,0)
(0,0,0)
(0,0,0)
(0,0,0)
(0,0,0)
(0,0,0)
(0,0,0)
(0,0,0)
(0,0,0)
(0,0,0)
(0,0,0)
(0,0,0)
(0,0,0)
(0,0,0)
(0,0,0)
(0,0,0)
(0,0,0)
(0,0,0)
(0,0,0)
(0,0,0)
(0,0,0)
(0,0,0)
(0,0,0)
(0,0,0)
(0,0,0)
(0,0,0)
(0,0,0)
(0,0,0)
(0,0,0)
(0,0,0)
(0,0,0)
(0,0,0)
(0,0,0)
(0,0,0)
(0,0,0)
(0,0,0)
(0,0,0)
(0,0,0)
(0,0,0)
(0,0,0)
(0,0,0)
(0,0,0)
(0,0,0)
(0,0,0)
(0,0,0)
(0,0,0)
(0,0,0)
(0,0,0)
(0,0,0)
(0,0,0)
(0,0,0)
(0,0,0)
(0,0,0)
(0,0,0)
(0,0,0)
(0,0,0)
(0,0,0)
(0,0,0)
(0,0,0)
(0,0,0)
(0,0,0)
(0,0,0)
(0,0,0)
(0,0,0)
(0,0,0)
(0,0,0)
(0,0,0)
(0,0,0)
(0,0,0)
(0,0,0)
(0,0,0)
(0,0,0)
(0,0,0)
(0,0,0)
(0,0,0)
(0,0,0)
(0,0,0)
(0,0,0)
(0,0,0)
(0,0,0)
(0,0,0)
(0,0,0)
(0,0,0)
(0,0,0)
(0,0,0)
(0,0,0)
(0,0,0)
(0,0,0)
(0,0,0)
(0,0,0)
(0,0,0)
(0,0,0)
(0,0,0)
(0,0,0)
(0,0,0)
(0,0,0)
(0,0,0)
(0,0,0)
(0,0,0)
(0,0,0)
(0,0,0)
(0,0,0)
(0,0,0)
(0,0,0)
(0,0,0)
(0,0,0)
(0,0,0)
(0,0,0)
(0,0,0)
(0,0,0)
(0,0,0)
(0,0,0)
(0,0,0)
(0,0,0)
(0,0,0)
(0,0,0)
(0,0,0)
(0,0,0)
(0,0,0)
(0,0,0)
(0,0,0)
(0,0,0)
(0,0,0)
(0,0,0)
(0,0,0)
(0,0,0)
(0,0,0)
(0,0,0)
(0,0,0)
(0,0,0)
(0,0,0)
(0,0,0)
(0,0,0)
(0,0,0)
(0,0,0)
(0,0,0)
(0,0,0)
(0,0,0)
(0,0,0)
(0,0,0)
(0,0,0)
(0,0,0)
(0,0,0)
(0,0,0)
(0,0,0)
(0,0,0)
(0,0,0)
(0,0,0)
(0,0,0)
(0,0,0)
(0,0,0)
(0,0,0)
(0,0,0)
(0,0,0)
(0,0,0)
(0,0,0)
(0,0,0)
(0,0,0)
(0,0,0)
(0,0,0)
(0,0,0)
(0,0,0)
(0,0,0)
(0,0,0)
(0,0,0)
(0,0,0)
(0,0,0)
(0,0,0)
(0,0,0)
(0,0,0)
(0,0,0)
(0,0,0)
(0,0,0)
(0,0,0)
(0,0,0)
(0,0,0)
(0,0,0)
(0,0,0)
(0,0,0)
(0,0,0)
(0,0,0)
(0,0,0)
(0,0,0)
(0,0,0)
(0,0,0)
(0,0,0)
(0,0,0)
(0,0,0)
(0,0,0)
(0,0,0)
(0,0,0)
(0,0,0)
(0,0,0)
(0,0,0)
(0,0,0)
(0,0,0)
(0,0,0)
(0,0,0)
(0,0,0)
(0,0,0)
(0,0,0)
(0,0,0)
(0,0,0)
(0,0,0)
(0,0,0)
(0,0,0)
(0,0,0)
(0,0,0)
(0,0,0)
(0,0,0)
(0,0,0)
(0,0,0)
(0,0,0)
(0,0,0)
(0,0,0)
(0,0,0)
(0,0,0)
(0,0,0)
(0,0,0)
(0,0,0)
(0,0,0)
(0,0,0)
(0,0,0)
(0,0,0)
(0,0,0)
(0,0,0)
(0,0,0)
(0,0,0)
(0,0,0)
(0,0,0)
(0,0,0)
(0,0,0)
(0,0,0)
(0,0,0)
(0,0,0)
(0,0,0)
(0,0,0)
(0,0,0)
(0,0,0)
(0,0,0)
(0,0,0)
(0,0,0)
(0,0,0)
(0,0,0)
(0,0,0)
(0,0,0)
(0,0,0)
(0,0,0)
(0,0,0)
(0,0,0)
(0,0,0)
(0,0,0)
(0,0,0)
(0,0,0)
(0,0,0)
(0,0,0)
(0,0,0)
(0,0,0)
(0,0,0)
(0,0,0)
(0,0,0)
(0,0,0)
(0,0,0)
(0,0,0)
(0,0,0)
(0,0,0)
(0,0,0)
(0,0,0)
(0,0,0)
(0,0,0)
(0,0,0)
(0,0,0)
(0,0,0)
(0,0,0)
(0,0,0)
(0,0,0)
(0,0,0)
(0,0,0)
(0,0,0)
(0,0,0)
(0,0,0)
(0,0,0)
(0,0,0)
(0,0,0)
(0,0,0)
(0,0,0)
(0,0,0)
(0,0,0)
(0,0,0)
(0,0,0)
(0,0,0)
(0,0,0)
(0,0,0)
(0,0,0)
(0,0,0)
(0,0,0)
(0,0,0)
(0,0,0)
(0,0,0)
(0,0,0)
(0,0,0)
(0,0,0)
(0,0,0)
(0,0,0)
(0,0,0)
(0,0,0)
(0,0,0)
(0,0,0)
(0,0,0)
(0,0,0)
(0,0,0)
(0,0,0)
(0,0,0)
(0,0,0)
(0,0,0)
(0,0,0)
(0,0,0)
(0,0,0)
(0,0,0)
(0,0,0)
(0,0,0)
(0,0,0)
(0,0,0)
(0,0,0)
(0,0,0)
(0,0,0)
(0,0,0)
(0,0,0)
(0,0,0)
(0,0,0)
(0,0,0)
(0,0,0)
(0,0,0)
(0,0,0)
(0,0,0)
(0,0,0)
(0,0,0)
(0,0,0)
(0,0,0)
(0,0,0)
(0,0,0)
(0,0,0)
(0,0,0)
(0,0,0)
(0,0,0)
(0,0,0)
(0,0,0)
(0,0,0)
(0,0,0)
(0,0,0)
(0,0,0)
(0,0,0)
(0,0,0)
(0,0,0)
(0,0,0)
(0,0,0)
(0,0,0)
(0,0,0)
(0,0,0)
(0,0,0)
(0,0,0)
(0,0,0)
(0,0,0)
(0,0,0)
(0,0,0)
(0,0,0)
(0,0,0)
(0,0,0)
(0,0,0)
(0,0,0)
(0,0,0)
(0,0,0)
(0,0,0)
(0,0,0)
(0,0,0)
(0,0,0)
(0,0,0)
(0,0,0)
(0,0,0)
(0,0,0)
(0,0,0)
(0,0,0)
(0,0,0)
(0,0,0)
(0,0,0)
(0,0,0)
(0,0,0)
(0,0,0)
(0,0,0)
(0,0,0)
(0,0,0)
(0,0,0)
(0,0,0)
(0,0,0)
(0,0,0)
(0,0,0)
(0,0,0)
(0,0,0)
(0,0,0)
(0,0,0)
(0,0,0)
(0,0,0)
(0,0,0)
(0,0,0)
(0,0,0)
(0,0,0)
(0,0,0)
(0,0,0)
(0,0,0)
(0,0,0)
(0,0,0)
(0,0,0)
(0,0,0)
(0,0,0)
(0,0,0)
(0,0,0)
(0,0,0)
(0,0,0)
(0,0,0)
(0,0,0)
(0,0,0)
(0,0,0)
(0,0,0)
(0,0,0)
(0,0,0)
(0,0,0)
(0,0,0)
(0,0,0)
(0,0,0)
(0,0,0)
(0,0,0)
(0,0,0)
(0,0,0)
(0,0,0)
(0,0,0)
(0,0,0)
(0,0,0)
(0,0,0)
(0,0,0)
(0,0,0)
(0,0,0)
(0,0,0)
(0,0,0)
(0,0,0)
(0,0,0)
(0,0,0)
(0,0,0)
(0,0,0)
(0,0,0)
(0,0,0)
(0,0,0)
(0,0,0)
(0,0,0)
(0,0,0)
(0,0,0)
(0,0,0)
(0,0,0)
(0,0,0)
(0,0,0)
(0,0,0)
(0,0,0)
(0,0,0)
(0,0,0)
(0,0,0)
(0,0,0)
(0,0,0)
(0,0,0)
(0,0,0)
(0,0,0)
(0,0,0)
(0,0,0)
(0,0,0)
(0,0,0)
(0,0,0)
(0,0,0)
(0,0,0)
(0,0,0)
(0,0,0)
(0,0,0)
(0,0,0)
(0,0,0)
(0,0,0)
(0,0,0)
(0,0,0)
(0,0,0)
(0,0,0)
(0,0,0)
(0,0,0)
(0,0,0)
(0,0,0)
(0,0,0)
(0,0,0)
(0,0,0)
(0,0,0)
(0,0,0)
(0,0,0)
(0,0,0)
(0,0,0)
(0,0,0)
(0,0,0)
(0,0,0)
(0,0,0)
(0,0,0)
(0,0,0)
(0,0,0)
(0,0,0)
(0,0,0)
(0,0,0)
(0,0,0)
(0,0,0)
(0,0,0)
(0,0,0)
(0,0,0)
(0,0,0)
(0,0,0)
(0,0,0)
(0,0,0)
(0,0,0)
(0,0,0)
(0,0,0)
(0,0,0)
(0,0,0)
(0,0,0)
(0,0,0)
(0,0,0)
(0,0,0)
(0,0,0)
(0,0,0)
(0,0,0)
(0,0,0)
(0,0,0)
(0,0,0)
(0,0,0)
(0,0,0)
(0,0,0)
(0,0,0)
(0,0,0)
(0,0,0)
(0,0,0)
(0,0,0)
(0,0,0)
(0,0,0)
(0,0,0)
(0,0,0)
(0,0,0)
(0,0,0)
(0,0,0)
(0,0,0)
(0,0,0)
(0,0,0)
(0,0,0)
(0,0,0)
(0,0,0)
(0,0,0)
(0,0,0)
(0,0,0)
(0,0,0)
(0,0,0)
(0,0,0)
(0,0,0)
(0,0,0)
(0,0,0)
(0,0,0)
(0,0,0)
(0,0,0)
(0,0,0)
(0,0,0)
(0,0,0)
(0,0,0)
(0,0,0)
(0,0,0)
(0,0,0)
(0,0,0)
(0,0,0)
(0,0,0)
(0,0,0)
(0,0,0)
(0,0,0)
(0,0,0)
(0,0,0)
(0,0,0)
(0,0,0)
(0,0,0)
(0,0,0)
(0,0,0)
(0,0,0)
(0,0,0)
(0,0,0)
(0,0,0)
(0,0,0)
(0,0,0)
(0,0,0)
(0,0,0)
(0,0,0)
(0,0,0)
(0,0,0)
(0,0,0)
(0,0,0)
(0,0,0)
(0,0,0)
(0,0,0)
(0,0,0)
(0,0,0)
(0,0,0)
(0,0,0)
(0,0,0)
(0,0,0)
(0,0,0)
(0,0,0)
(0,0,0)
(0,0,0)
(0,0,0)
(0,0,0)
(0,0,0)
(0,0,0)
(0,0,0)
(0,0,0)
(0,0,0)
(0,0,0)
(0,0,0)
(0,0,0)
(0,0,0)
(0,0,0)
(0,0,0)
(0,0,0)
(0,0,0)
(0,0,0)
(0,0,0)
(0,0,0)
(0,0,0)
(0,0,0)
(0,0,0)
(0,0,0)
(0,0,0)
(0,0,0)
(0,0,0)
(0,0,0)
(0,0,0)
(0,0,0)
(0,0,0)
(0,0,0)
(0,0,0)
(0,0,0)
(0,0,0)
(0,0,0)
(0,0,0)
(0,0,0)
(0,0,0)
(0,0,0)
(0,0,0)
(0,0,0)
(0,0,0)
(0,0,0)
(0,0,0)
(0,0,0)
(0,0,0)
(0,0,0)
(0,0,0)
(0,0,0)
(0,0,0)
(0,0,0)
(0,0,0)
(0,0,0)
(0,0,0)
(0,0,0)
(0,0,0)
(0,0,0)
(0,0,0)
(0,0,0)
(0,0,0)
(0,0,0)
(0,0,0)
(0,0,0)
(0,0,0)
(0,0,0)
(0,0,0)
(0,0,0)
(0,0,0)
(0,0,0)
(0,0,0)
(0,0,0)
(0,0,0)
(0,0,0)
(0,0,0)
(0,0,0)
(0,0,0)
(0,0,0)
(0,0,0)
(0,0,0)
(0,0,0)
(0,0,0)
(0,0,0)
(0,0,0)
(0,0,0)
(0,0,0)
(0,0,0)
(0,0,0)
(0,0,0)
(0,0,0)
(0,0,0)
(0,0,0)
(0,0,0)
(0,0,0)
(0,0,0)
(0,0,0)
(0,0,0)
(0,0,0)
(0,0,0)
(0,0,0)
(0,0,0)
(0,0,0)
(0,0,0)
(0,0,0)
(0,0,0)
(0,0,0)
(0,0,0)
(0,0,0)
(0,0,0)
(0,0,0)
(0,0,0)
(0,0,0)
(0,0,0)
(0,0,0)
(0,0,0)
(0,0,0)
(0,0,0)
(0,0,0)
(0,0,0)
(0,0,0)
(0,0,0)
(0,0,0)
(0,0,0)
(0,0,0)
(0,0,0)
(0,0,0)
(0,0,0)
(0,0,0)
(0,0,0)
(0,0,0)
(0,0,0)
(0,0,0)
(0,0,0)
(0,0,0)
(0,0,0)
(0,0,0)
(0,0,0)
(0,0,0)
(0,0,0)
(0,0,0)
(0,0,0)
(0,0,0)
(0,0,0)
(0,0,0)
(0,0,0)
(0,0,0)
(0,0,0)
(0,0,0)
(0,0,0)
(0,0,0)
(0,0,0)
(0,0,0)
(0,0,0)
(-132494.12112529,70241.3726855206,62252.7484397691)
(-140127.082175278,67339.0963826978,135040.734232349)
(-157804.084267224,61315.1649903553,231529.653509217)
(-191205.186833974,51850.0813078667,370884.759035327)
(-251448.285890181,39065.6660600649,583267.378865449)
(-359523.291281495,24421.7652569793,918368.90488995)
(-555255.318640229,11088.6679526427,1462535.55557757)
(-909080.856759624,2894.21054181747,2368722.20179537)
(-1499460.911939,136.083444293278,3868047.03029014)
(-2089281.15405377,-164.212384866342,5957492.39672877)
(0,0,0)
(0,0,0)
(0,0,0)
(0,0,0)
(0,0,0)
(0,0,0)
(-140096.741214862,150983.651516652,59354.4623837295)
(-147809.741411637,145536.609403416,128966.690774652)
(-165769.800908817,134081.040615185,221970.616058637)
(-199970.550322578,115792.638760994,357998.608928091)
(-261898.922234806,90547.9532977723,568415.243925186)
(-372576.780361683,60562.6932040497,904851.096339805)
(-570469.408095024,32154.2245256355,1454254.94786181)
(-922937.968224074,14120.4218350744,2365966.7047926)
(-1508680.67435149,6966.00045848994,3867817.46212997)
(-2093566.88293668,3543.27313489489,5957676.85954677)
(0,0,0)
(0,0,0)
(0,0,0)
(0,0,0)
(0,0,0)
(0,0,0)
(-157569.712917628,254680.262517079,53873.1019172019)
(-165423.771397513,247408.677292777,117424.805425354)
(-183945.206024531,231901.320384784,203549.731680289)
(-219851.456309209,206649.235666274,332544.591084221)
(-285733.473434858,170696.956428676,538129.061388174)
(-403279.369647009,125763.412074083,876207.71216515)
(-607977.888905511,80200.1752339331,1436139.65036236)
(-957476.432647781,48872.2547789255,2358864.25006627)
(-1530924.11098993,32248.9218656223,3864505.43964913)
(-2103640.1055596,17486.44067,5954202.37767361)
(0,0,0)
(0,0,0)
(0,0,0)
(0,0,0)
(0,0,0)
(0,0,0)
(-190182.927387366,398366.271712773,46496.9181916724)
(-198185.361001247,390285.081611188,101805.874874509)
(-217417.992729817,372929.37408773,178195.813901375)
(-255776.086181103,344267.379221947,296353.756526801)
(-328153.920455604,302314.493359909,492890.140051176)
(-458857.624818111,247102.501050226,830408.675893139)
(-679789.986537662,185703.385416971,1404695.45224777)
(-1024266.23605802,135562.237999946,2342271.70508474)
(-1571666.67585478,96369.5053885044,3849817.79741661)
(-2121414.79702703,51875.3560304627,5936843.67908328)
(0,0,0)
(0,0,0)
(0,0,0)
(0,0,0)
(0,0,0)
(0,0,0)
(-248626.096501837,608704.496582204,38287.8716324058)
(-256582.321320399,600836.37171538,84318.9028486115)
(-276181.358768095,583991.893309316,149437.74239512)
(-316585.438652364,556109.126622682,254181.433646754)
(-395666.95668575,514748.405839931,437414.477852487)
(-542685.474017907,458403.411075009,768799.041845594)
(-789183.720110089,389282.29129036,1354403.8560823)
(-1125981.34081055,312847.750762316,2303099.6841305)
(-1630878.50136205,224928.096500702,3805419.5943804)
(-2147089.70746368,119231.663121704,5885152.99475287)
(0,0,0)
(0,0,0)
(0,0,0)
(0,0,0)
(0,0,0)
(0,0,0)
(-354038.151393298,932445.051852319,30297.5961231811)
(-361595.670384759,925479.678568882,67249.9596544372)
(-380562.382201348,910490.677790289,121313.557374812)
(-420558.993069889,885397.182438268,212584.494629114)
(-500456.464411034,846904.868430002,380884.496450079)
(-650282.318532246,790063.212056271,699507.01400107)
(-897541.133044206,708552.471546948,1277777.96678872)
(-1219064.45120972,594499.658883137,2215190.50987759)
(-1695046.2950111,435352.070181101,3699812.83120832)
(-2179413.42808045,232404.970137819,5766052.95227258)
(0,0,0)
(0,0,0)
(0,0,0)
(0,0,0)
(0,0,0)
(0,0,0)
(-547604.789208378,1456907.69901718,23142.1420435227)
(-554285.210205516,1450892.49243138,52014.5383865401)
(-571313.468756458,1437821.97632493,95996.7086083552)
(-607862.812849352,1415419.53088898,173837.173006993)
(-682070.221020463,1378989.4058817,323822.856575762)
(-822845.801529451,1318912.82335868,617819.046802801)
(-1054876.80774036,1217718.54563172,1163529.7804584)
(-1347249.43993844,1049285.11588203,2055993.76339793)
(-1790725.4683948,785156.927339613,3496914.37463418)
(-2232213.24832624,427794.759558484,5533737.83353979)
(0,0,0)
(0,0,0)
(0,0,0)
(0,0,0)
(0,0,0)
(0,0,0)
(-901548.655910601,2341530.51449438,16925.8404333844)
(-906909.772085277,2336038.37535292,38689.7295971201)
(-920645.649020593,2323884.35595239,73272.9989902654)
(-950391.994302506,2302092.68453619,136991.839645549)
(-1011364.54146504,2263923.32706927,263422.459923009)
(-1128380.56682762,2194317.29654725,516398.553562046)
(-1322693.88096645,2061930.14120481,994880.838955381)
(-1559403.44041226,1811819.05493416,1791750.34031553)
(-1964411.16218415,1401781.36670856,3139537.06313073)
(-2333148.83786671,794561.445382121,5105919.21517374)
(0,0,0)
(0,0,0)
(0,0,0)
(0,0,0)
(0,0,0)
(0,0,0)
(-1494285.94431955,3824502.43373213,11314.0250818005)
(-1497955.09028331,3818997.13482299,26310.3558950629)
(-1507299.16147207,3806330.38912125,51163.4841982326)
(-1527329.0796808,3782137.37547745,98447.8729377862)
(-1567608.15409275,3736438.86698546,193540.487114366)
(-1643306.11899112,3647418.02064112,383745.882011603)
(-1770499.03240088,3471702.25775841,744472.797858878)
(-1959569.96489839,3134378.96046775,1381482.85722367)
(-2284751.0040138,2535841.73571792,2532173.49222809)
(-2509157.13445495,1524709.02782698,4311183.04423817)
(0,0,0)
(0,0,0)
(0,0,0)
(0,0,0)
(0,0,0)
(0,0,0)
(-2086850.95907978,5905606.93754565,5746.45526624909)
(-2088701.49344232,5899895.37108835,13549.7124432023)
(-2093360.90468171,5886410.63250193,26830.3737442658)
(-2103217.84621497,5859665.22766228,52520.3677744152)
(-2122716.41571002,5807308.27873533,104367.371734575)
(-2159156.28978918,5703071.41839192,207870.263772956)
(-2222810.35721897,5495434.76116774,406948.117582594)
(-2330129.60506499,5088739.62279845,782717.060316857)
(-2508579.50503139,4306308.05037603,1520830.25069014)
(-2526417.22800164,2785779.57747903,2786176.92903974)
(0,0,0)
(0,0,0)
(0,0,0)
(0,0,0)
(0,0,0)
(0,0,0)
(0,0,0)
(0,0,0)
(0,0,0)
(0,0,0)
(0,0,0)
(0,0,0)
(0,0,0)
(0,0,0)
(0,0,0)
(0,0,0)
(0,0,0)
(0,0,0)
(0,0,0)
(0,0,0)
(0,0,0)
(0,0,0)
(0,0,0)
(0,0,0)
(0,0,0)
(0,0,0)
(0,0,0)
(0,0,0)
(0,0,0)
(0,0,0)
(0,0,0)
(0,0,0)
(0,0,0)
(0,0,0)
(0,0,0)
(0,0,0)
(0,0,0)
(0,0,0)
(0,0,0)
(0,0,0)
(0,0,0)
(0,0,0)
(0,0,0)
(0,0,0)
(0,0,0)
(0,0,0)
(0,0,0)
(0,0,0)
(0,0,0)
(0,0,0)
(0,0,0)
(0,0,0)
(0,0,0)
(0,0,0)
(0,0,0)
(0,0,0)
(0,0,0)
(0,0,0)
(0,0,0)
(0,0,0)
(0,0,0)
(0,0,0)
(0,0,0)
(0,0,0)
(0,0,0)
(0,0,0)
(0,0,0)
(0,0,0)
(0,0,0)
(0,0,0)
(0,0,0)
(0,0,0)
(0,0,0)
(0,0,0)
(0,0,0)
(0,0,0)
(0,0,0)
(0,0,0)
(0,0,0)
(0,0,0)
(0,0,0)
(0,0,0)
(0,0,0)
(0,0,0)
(0,0,0)
(0,0,0)
(0,0,0)
(0,0,0)
(0,0,0)
(0,0,0)
(0,0,0)
(0,0,0)
(0,0,0)
(0,0,0)
(0,0,0)
(0,0,0)
(0,0,0)
(0,0,0)
(0,0,0)
(0,0,0)
(0,0,0)
(0,0,0)
(19594359.1164828,62608.4786891675,54631.0041187293)
(19581583.5525982,59632.5417251587,117380.548036018)
(19552212.0902881,53312.5178538621,198144.576042725)
(19497341.3292905,43052.6569527331,310638.12338141)
(19399592.9215504,28598.5630420746,475091.073314683)
(19225784.5662782,11366.9954549293,722508.940715892)
(18906814.1515338,-4127.05351711786,1108659.2444749)
(18276352.8516329,-10988.9537607018,1778307.21025896)
(16853886.1301095,-9125.35880390281,3278178.24743025)
(12990823.1940841,-4473.48111290272,8046640.10082123)
(0,0,0)
(0,0,0)
(0,0,0)
(0,0,0)
(0,0,0)
(0,0,0)
(19581413.5294715,133548.073556011,51642.8548628013)
(19568586.1500381,127953.442877109,111018.782677058)
(19538932.0381632,115908.505656519,187813.676218332)
(19482981.5865542,95906.91829793,296099.998412305)
(19382531.9238906,66691.4495314011,457668.986213545)
(19203840.2468763,29851.5228943411,706860.151952091)
(18879994.2244243,-5371.55140532165,1101733.73773704)
(18252188.6752828,-20451.8308685354,1780162.69175396)
(16838889.6066895,-15295.5828489718,3282855.35517391)
(12984284.7311788,-6517.74345675378,8051140.72381811)
(0,0,0)
(0,0,0)
(0,0,0)
(0,0,0)
(0,0,0)
(0,0,0)
(19551876.1140525,222163.907200955,46031.0598008764)
(19538999.5524507,214733.464134487,98920.4351112929)
(19508775.31397,198493.016599737,167708.124589483)
(19450371.4666043,170773.81828147,266711.022108449)
(19342952.7268985,128273.303373655,420535.688348702)
(19149604.4040032,70147.6938584734,671448.464150318)
(18807232.2257936,8325.41580019437,1086634.10266158)
(18185424.5397981,-17996.0938558606,1785370.11361911)
(16800064.9688431,-8545.51045252358,3291723.68180557)
(12968178.7726457,-299.569789467944,8057779.35034896)
(0,0,0)
(0,0,0)
(0,0,0)
(0,0,0)
(0,0,0)
(0,0,0)
(19497521.4897452,340024.583986632,38527.6264977085)
(19484640.1667135,331938.990658664,82589.2926747765)
(19453697.4691276,314181.568059787,139877.999773278)
(19391509.0772571,283456.602418623,224002.77261393)
(19271314.0375515,234760.329641109,362140.508755343)
(19044869.3768949,163226.599461527,609427.321855206)
(18645579.9314182,76249.7932419089,1060225.74687356)
(18033451.9308977,33757.2558671497,1794846.95061077)
(16721610.2650227,37087.2587989271,3300029.96089771)
(12938041.6745196,26158.7484264835,8058207.89155118)
(0,0,0)
(0,0,0)
(0,0,0)
(0,0,0)
(0,0,0)
(0,0,0)
(19401843.5838671,503315.416743038,30332.2072905673)
(19389266.7533674,495819.819752588,64695.0239247095)
(19358191.2364906,479586.982737308,109009.734404465)
(19292786.2145782,452104.100520959,175083.303487506)
(19157976.1930717,409920.399610451,290372.804176624)
(18881895.8262407,350804.276906687,522306.54688878)
(18354948.4366931,280895.272730331,1017621.63101312)
(17751628.6731657,219688.642040859,1798172.95127915)
(16598614.7577503,160708.54956509,3289151.12181644)
(12893233.1945967,86882.3422961272,8032197.34630244)
(0,0,0)
(0,0,0)
(0,0,0)
(0,0,0)
(0,0,0)
(0,0,0)
(19231679.1350652,738954.924415991,22735.9262845029)
(19219962.3971568,732810.596019661,48279.8028917731)
(19190362.8197389,719736.699808347,81297.6042964627)
(19126163.7346471,698120.512069641,132651.185446776)
(18989834.6971091,665325.293898977,231047.850053996)
(18705840.7568476,617541.429561783,452280.342434969)
(18172226.284938,551215.779584666,956285.138014355)
(17595512.4607951,466291.669671402,1739197.91879492)
(16493860.750708,339691.189517329,3215400.95353951)
(12841856.4538644,179655.767477824,7945450.36682893)
(0,0,0)
(0,0,0)
(0,0,0)
(0,0,0)
(0,0,0)
(0,0,0)
(18916016.9574869,1102964.62218303,16461.275953615)
(18905815.6366652,1098260.71910589,35003.0264125557)
(18879578.8045823,1088483.25352889,59456.9197692166)
(18821299.1920506,1072914.75513895,99593.3922159156)
(18694228.5464123,1049687.75533143,183024.883766615)
(18422669.8833635,1013361.29698306,385782.051868376)
(17905149.5445966,949897.657219884,871166.542312079)
(17384654.8930261,837124.764211712,1612521.8352232)
(16338689.9232148,611482.288734193,3055408.06481269)
(12754133.8573126,326905.930576306,7765903.51649137)
(0,0,0)
(0,0,0)
(0,0,0)
(0,0,0)
(0,0,0)
(0,0,0)
(18285111.4434799,1748802.43470259,11594.8085058895)
(18277042.2300359,1744999.4612369,24996.7846696774)
(18256118.0449222,1737224.54965142,43584.5150202787)
(18209023.8336347,1725167.84353704,76008.3191010374)
(18104355.3674435,1707677.71711808,146391.168821721)
(17874025.0691322,1679372.52519615,322067.025064767)
(17421097.436249,1614109.33999647,758156.7454886)
(17081602.4487572,1411632.7298094,1386735.61113733)
(16025680.615266,1081424.04269916,2770794.80013804)
(12551089.3499951,618557.414552101,7438997.84871638)
(0,0,0)
(0,0,0)
(0,0,0)
(0,0,0)
(0,0,0)
(0,0,0)
(16858994.6063873,3231953.0072757,7661.5971359202)
(16853559.4889736,3228244.4079191,16994.7916127793)
(16839561.0697005,3220251.41145043,31200.4190570874)
(16808724.0147827,3206230.34595707,58177.5425894652)
(16743219.0595571,3181300.42351087,117820.342962703)
(16609889.9264077,3131551.57752347,256537.965652495)
(16369442.6393509,3019393.24121048,555405.113102626)
(16031447.2264423,2763816.95963407,1056296.4123532)
(15077330.962045,2311991.64469347,2307739.56471608)
(11933525.0816347,1507444.57828036,6820262.90531406)
(0,0,0)
(0,0,0)
(0,0,0)
(0,0,0)
(0,0,0)
(0,0,0)
(12992737.9532629,7992558.84195315,3897.9733957878)
(12990024.1528837,7988614.72165293,8894.73375188171)
(12983132.6618289,7979740.83074996,17004.4683576263)
(12968302.8205389,7962794.6896751,33012.1783017132)
(12937863.7676075,7929936.60904479,67888.5298662519)
(12877971.2951599,7862212.80748202,144192.43537467)
(12766991.3081042,7718247.92986604,299628.801811803)
(12554318.0352299,7418834.0441476,604256.797419338)
(11934025.9511105,6814800.36280934,1502935.34357755)
(9703403.86376063,5312146.36261667,5312505.18789486)
(0,0,0)
(0,0,0)
(0,0,0)
(0,0,0)
(0,0,0)
(0,0,0)
(0,0,0)
(0,0,0)
(0,0,0)
(0,0,0)
(0,0,0)
(0,0,0)
(0,0,0)
(0,0,0)
(0,0,0)
(0,0,0)
(0,0,0)
(0,0,0)
(0,0,0)
(0,0,0)
(0,0,0)
(0,0,0)
(0,0,0)
(0,0,0)
(0,0,0)
(0,0,0)
(0,0,0)
(0,0,0)
(0,0,0)
(0,0,0)
(0,0,0)
(0,0,0)
(0,0,0)
(0,0,0)
(0,0,0)
(0,0,0)
(0,0,0)
(0,0,0)
(0,0,0)
(0,0,0)
(0,0,0)
(0,0,0)
(0,0,0)
(0,0,0)
(0,0,0)
(0,0,0)
(0,0,0)
(0,0,0)
(0,0,0)
(0,0,0)
(0,0,0)
(0,0,0)
(0,0,0)
(0,0,0)
(0,0,0)
(0,0,0)
(0,0,0)
(0,0,0)
(0,0,0)
(0,0,0)
(0,0,0)
(0,0,0)
(0,0,0)
(0,0,0)
(0,0,0)
(0,0,0)
(0,0,0)
(0,0,0)
(0,0,0)
(0,0,0)
(0,0,0)
(0,0,0)
(0,0,0)
(0,0,0)
(0,0,0)
(0,0,0)
(0,0,0)
(0,0,0)
(0,0,0)
(0,0,0)
(0,0,0)
(0,0,0)
(0,0,0)
(0,0,0)
(0,0,0)
(0,0,0)
(0,0,0)
(0,0,0)
(0,0,0)
(0,0,0)
(0,0,0)
(0,0,0)
(0,0,0)
(0,0,0)
(0,0,0)
(0,0,0)
(0,0,0)
(0,0,0)
(0,0,0)
(0,0,0)
(0,0,0)
(0,0,0)
(-341145.927205635,49562.4373256177,41849.8859468316)
(-355232.24148464,46581.6181192806,87991.3414944636)
(-387074.264935874,39982.8595386181,143202.116763926)
(-445039.801340393,28691.3160590579,212799.21091987)
(-544345.851081843,11560.2342696366,301085.028866553)
(-710030.339078985,-10575.002802001,403382.21660989)
(-981069.129395365,-30967.2605558681,478140.03767899)
(-1410115.65249439,-35208.3620016107,355724.183392001)
(-2025262.84465171,-24196.5016800655,-585023.060582666)
(-2482803.35273226,-11073.1857518826,-4944416.04843036)
(0,0,0)
(0,0,0)
(0,0,0)
(0,0,0)
(0,0,0)
(0,0,0)
(-355954.214498575,103996.512148262,38840.9487314244)
(-369827.317304005,98364.2808605035,81379.0329163631)
(-401374.731442628,85717.2929382302,131858.648706629)
(-459466.545990949,63285.3905390686,195619.986355819)
(-560324.028362978,27112.2663419855,278831.186121084)
(-730506.852928837,-24389.8771357433,382900.439844012)
(-1007870.39806711,-78162.768098788,473867.849462283)
(-1432715.47656208,-87289.3525055591,366760.271395151)
(-2036583.39992472,-54181.7775675373,-571874.166519023)
(-2486780.60164777,-22644.0601410036,-4933330.67971927)
(0,0,0)
(0,0,0)
(0,0,0)
(0,0,0)
(0,0,0)
(0,0,0)
(-389262.095005273,167849.227388982,33192.7734011028)
(-402672.587294759,160421.69746031,68714.7761307478)
(-433647.53970389,143428.229413453,109333.972913473)
(-492312.581903218,111901.683815912,159309.007728132)
(-598398.822593569,56579.4290028636,227100.674143451)
(-786114.218432739,-34666.1211054016,329002.820133086)
(-1097370.95117503,-153419.131319657,464769.639906698)
(-1511016.38377195,-170090.795911242,399919.286466354)
(-2070930.40506333,-87100.4870209146,-540259.350589764)
(-2497788.4081326,-30472.6063607311,-4910556.34400766)
(0,0,0)
(0,0,0)
(0,0,0)
(0,0,0)
(0,0,0)
(0,0,0)
(-448834.255983154,244385.107795847,25727.1449055375)
(-461558.960067594,236581.308563409,51673.9401675421)
(-491645.491033335,218645.981200038,77706.4281259245)
(-551464.72616053,184670.031578724,103819.163364734)
(-669321.073541472,121299.874342579,135641.108702017)
(-908480.135052497,126.389256625405,210105.38987147)
(-1375404.96114483,-214495.4503317,448073.881030623)
(-1767417.34109541,-248192.528202422,482952.164898969)
(-2157038.62106665,-86006.554720854,-483585.601727628)
(-2521414.14031135,-18707.2200287509,-4879987.89364468)
(0,0,0)
(0,0,0)
(0,0,0)
(0,0,0)
(0,0,0)
(0,0,0)
(-548809.598025034,333133.785706623,17811.7835654455)
(-560515.896778016,326484.049573319,33598.9722850821)
(-588927.37478299,311708.948697095,43561.8956456403)
(-648714.386333301,285411.146518483,40228.6612014427)
(-780476.91281467,241664.345134382,14224.5758801006)
(-1117858.18480953,174677.106618071,-4664.85084702866)
(-2220739.37705742,98132.2472356818,414302.544920147)
(-2634985.41651755,63516.7412065601,645114.644778429)
(-2325993.69592542,55922.0086666776,-416298.185349225)
(-2560147.31830801,35481.3512919027,-4861198.96418107)
(0,0,0)
(0,0,0)
(0,0,0)
(0,0,0)
(0,0,0)
(0,0,0)
(-713638.776265928,423308.737896533,11050.2387252654)
(-723897.11061955,418643.382810098,18657.692848939)
(-749354.758625177,408937.714267968,17053.7852261665)
(-804949.571956833,393253.851846867,-3768.33391426711)
(-933015.538372323,369674.337394287,-53020.8111086257)
(-1269581.3331284,334357.762613662,-81372.0975441268)
(-2318850.71561352,284173.995689189,379570.434137929)
(-2698424.90792465,255443.322513225,637488.501135089)
(-2404649.47450319,184532.956187819,-436704.941590836)
(-2598851.57687226,91958.0562443411,-4896566.33622247)
(0,0,0)
(0,0,0)
(0,0,0)
(0,0,0)
(0,0,0)
(0,0,0)
(-983102.062568788,472034.867004324,6300.17053195482)
(-991554.293895087,469448.735884978,8772.02760147492)
(-1012974.78333201,465019.617220921,1150.992146869)
(-1061447.35962901,460657.121507749,-27598.4462503702)
(-1179003.47413848,459805.04202106,-88589.8507422744)
(-1508621.09405132,464733.907799821,-131767.738929592)
(-2603125.43062379,465912.842480041,350675.669084076)
(-2953906.57007622,534093.525086664,566494.209197009)
(-2523583.32843353,298473.247342621,-529265.550725429)
(-2662747.73659085,123903.923367616,-4988422.54436122)
(0,0,0)
(0,0,0)
(0,0,0)
(0,0,0)
(0,0,0)
(0,0,0)
(-1413221.72119127,322675.782970023,3599.52828952899)
(-1419601.35202373,321479.359435004,4119.76638316181)
(-1435983.06586762,320641.479595739,-3493.70561775619)
(-1474028.57477579,324875.621914255,-28752.5180298209)
(-1571310.10826478,346584.575037145,-83959.2957535125)
(-1873714.75949365,415284.16250399,-130862.442247751)
(-3069101.40105759,562498.081414449,418658.435708571)
(-2501994.59551543,361483.532910523,330772.751741429)
(-2618346.80431222,133062.889193916,-703882.190947467)
(-2761662.04896578,1006.156371549,-5112325.7454064)
(0,0,0)
(0,0,0)
(0,0,0)
(0,0,0)
(0,0,0)
(0,0,0)
(-2030359.35593238,-634346.83024715,2283.85512097812)
(-2034490.31114117,-635344.707262014,3065.00151677952)
(-2045017.08576035,-636233.743124487,425.659281944861)
(-2068441.00401754,-634258.550874043,-7367.86954544641)
(-2122012.20609554,-624099.545065037,-15545.2042065031)
(-2250195.7471887,-600356.885962198,16088.797440122)
(-2530431.21350065,-583056.12087108,217424.132161278)
(-2622569.31880283,-713340.681350669,102172.171251677)
(-2864052.2962017,-831348.522500291,-836125.879223423)
(-2909506.93436897,-722698.067196281,-5113482.36006782)
(0,0,0)
(0,0,0)
(0,0,0)
(0,0,0)
(0,0,0)
(0,0,0)
(-2486699.23639271,-5000232.00314862,1229.64214113839)
(-2488720.61568546,-5001537.26139314,2074.24442545645)
(-2493777.47235579,-5003584.54691035,2242.46198016349)
(-2504601.38304507,-5005757.85672999,2553.25100410056)
(-2527598.48168383,-5008128.20039734,7951.43521180172)
(-2575873.5052957,-5015843.67778413,33190.3070733411)
(-2665109.33564209,-5048819.10099018,86961.2105228851)
(-2764535.50296815,-5135591.78641168,-16026.8666340279)
(-2910346.46961215,-5119367.58423618,-727728.104591447)
(-2808675.78078774,-4391385.66399026,-4391053.58366498)
(0,0,0)
(0,0,0)
(0,0,0)
(0,0,0)
(0,0,0)
(0,0,0)
(0,0,0)
(0,0,0)
(0,0,0)
(0,0,0)
(0,0,0)
(0,0,0)
(0,0,0)
(0,0,0)
(0,0,0)
(0,0,0)
(0,0,0)
(0,0,0)
(0,0,0)
(0,0,0)
(0,0,0)
(0,0,0)
(0,0,0)
(0,0,0)
(0,0,0)
(0,0,0)
(0,0,0)
(0,0,0)
(0,0,0)
(0,0,0)
(0,0,0)
(0,0,0)
(0,0,0)
(0,0,0)
(0,0,0)
(0,0,0)
(0,0,0)
(0,0,0)
(0,0,0)
(0,0,0)
(0,0,0)
(0,0,0)
(0,0,0)
(0,0,0)
(0,0,0)
(0,0,0)
(0,0,0)
(0,0,0)
(0,0,0)
(0,0,0)
(0,0,0)
(0,0,0)
(0,0,0)
(0,0,0)
(0,0,0)
(0,0,0)
(0,0,0)
(0,0,0)
(0,0,0)
(0,0,0)
(0,0,0)
(0,0,0)
(0,0,0)
(0,0,0)
(0,0,0)
(0,0,0)
(0,0,0)
(0,0,0)
(0,0,0)
(0,0,0)
(0,0,0)
(0,0,0)
(0,0,0)
(0,0,0)
(0,0,0)
(0,0,0)
(0,0,0)
(0,0,0)
(0,0,0)
(0,0,0)
(0,0,0)
(0,0,0)
(0,0,0)
(0,0,0)
(0,0,0)
(0,0,0)
(0,0,0)
(0,0,0)
(0,0,0)
(0,0,0)
(0,0,0)
(0,0,0)
(0,0,0)
(0,0,0)
(0,0,0)
(0,0,0)
(0,0,0)
(0,0,0)
(0,0,0)
(0,0,0)
(0,0,0)
(0,0,0)
(-403484.087001419,34616.620175424,27721.5396203604)
(-415424.052877781,31882.8728881581,56030.4781253432)
(-441713.519167083,25621.2922516285,85048.4401049259)
(-487619.132250272,14302.2365766102,113325.534438193)
(-561835.128393264,-4331.93176274377,135146.743512359)
(-676015.626139946,-30982.6683820897,132114.698955413)
(-840182.34116356,-57741.7309306185,48969.6416542277)
(-1043779.62414038,-57835.3131948796,-259531.073504896)
(-1206607.31989514,-35546.9548957394,-1042639.64336572)
(-1048581.39797312,-15081.8162160301,-2461779.78190884)
(0,0,0)
(0,0,0)
(0,0,0)
(0,0,0)
(0,0,0)
(0,0,0)
(-416981.056959902,70673.4931607803,24969.9694759707)
(-428258.724798668,65504.8703836236,49779.3794751644)
(-453112.240006971,53449.7866902938,73688.3936008427)
(-496643.036230474,30489.5564925687,94677.5639244076)
(-567525.910370087,-10900.1564906604,108447.670659433)
(-678407.917258432,-79950.1252719988,105316.191878945)
(-841470.705780577,-167662.72955578,48837.4982175838)
(-1038829.24651709,-165637.85951692,-237246.185505362)
(-1198612.05754016,-88579.1960737051,-1022185.28671196)
(-1043652.40949637,-33680.8969966305,-2446714.39808278)
(0,0,0)
(0,0,0)
(0,0,0)
(0,0,0)
(0,0,0)
(0,0,0)
(-446712.254675465,108330.157871371,19793.4949596044)
(-456684.975656893,101605.209632017,37705.5440733408)
(-478633.126475505,85500.4599343679,50640.4576008784)
(-517164.163955967,52783.6344599696,53197.9616862291)
(-580988.069456259,-14352.010491269,39239.0625495244)
(-687298.166799784,-157056.012542167,17528.8981867287)
(-866902.040472625,-431488.662263987,50885.9201925368)
(-1039093.56458567,-426527.07912962,-160147.679381051)
(-1179180.21850324,-173261.635526989,-967215.426487862)
(-1031654.46571243,-54142.9208324185,-2412887.34507227)
(0,0,0)
(0,0,0)
(0,0,0)
(0,0,0)
(0,0,0)
(0,0,0)
(-497964.304481627,144400.813853981,13059.3925158669)
(-506121.307254557,137643.819749208,21583.1295856417)
(-523792.013488824,121376.572365643,17853.5396098566)
(-554140.783552933,87382.9033754362,-14069.6719132092)
(-604146.106129936,10034.5387268852,-103631.188542895)
(-702801.361739048,-209379.170139728,-256986.80425879)
(-1059825.15947793,-1059916.07602113,55860.8078314525)
(-1115424.18829491,-1115836.01454004,93176.5904413885)
(-1134058.63617818,-255030.604936274,-848034.425037791)
(-1007436.96778006,-57508.666987019,-2358645.85141447)
(0,0,0)
(0,0,0)
(0,0,0)
(0,0,0)
(0,0,0)
(0,0,0)
(-578913.212604046,168304.030421268,6200.39801172455)
(-584982.085246041,163107.324927398,5203.08130155834)
(-597351.086922763,151287.408295542,-16284.0424885651)
(-615189.563615049,129175.361587214,-91601.3234185941)
(-627849.442528003,89057.0745231763,-323251.329501554)
(-565722.562522594,22878.3258274196,-1107644.44775564)