/*--------------------------------*- C++ -*----------------------------------*\
| =========                 |                                                 |
| \\      /  F ield         | foam-extend: Open Source CFD                    |
|  \\    /   O peration     | Version:     4.0                                |
|   \\  /    A nd           | Web:         http://www.foam-extend.org         |
|    \\/     M anipulation  |                                                 |
\*---------------------------------------------------------------------------*/
FoamFile
{
    version 2.0;
    format ascii;
    class volVectorField;
    location "3196";
    object      E;
}
// * * * * * * * * * * * * * * * * * * * * * * * * * * * * * * * * * * * * * //

dimensions      [0 1 -1 0 0 0 0];

internalField   nonuniform List<vector>
4096
(
(0,0,0)
(0,0,0)
(0,0,0)
(0,0,0)
(0,0,0)
(0,0,0)
(0,0,0)
(0,0,0)
(0,0,0)
(0,0,0)
(0,0,0)
(0,0,0)
(0,0,0)
(0,0,0)
(0,0,0)
(0,0,0)
(0,0,0)
(0,0,0)
(0,0,0)
(0,0,0)
(0,0,0)
(0,0,0)
(0,0,0)
(0,0,0)
(0,0,0)
(0,0,0)
(0,0,0)
(0,0,0)
(0,0,0)
(0,0,0)
(0,0,0)
(0,0,0)
(0,0,0)
(0,0,0)
(0,0,0)
(0,0,0)
(0,0,0)
(0,0,0)
(0,0,0)
(0,0,0)
(0,0,0)
(0,0,0)
(0,0,0)
(0,0,0)
(0,0,0)
(0,0,0)
(0,0,0)
(0,0,0)
(0,0,0)
(0,0,0)
(0,0,0)
(0,0,0)
(0,0,0)
(0,0,0)
(0,0,0)
(0,0,0)
(0,0,0)
(0,0,0)
(0,0,0)
(0,0,0)
(0,0,0)
(0,0,0)
(0,0,0)
(0,0,0)
(0,0,0)
(0,0,0)
(0,0,0)
(0,0,0)
(0,0,0)
(0,0,0)
(0,0,0)
(0,0,0)
(0,0,0)
(0,0,0)
(0,0,0)
(0,0,0)
(0,0,0)
(0,0,0)
(0,0,0)
(0,0,0)
(0,0,0)
(0,0,0)
(0,0,0)
(0,0,0)
(0,0,0)
(0,0,0)
(0,0,0)
(0,0,0)
(0,0,0)
(0,0,0)
(0,0,0)
(0,0,0)
(0,0,0)
(0,0,0)
(0,0,0)
(0,0,0)
(0,0,0)
(0,0,0)
(0,0,0)
(0,0,0)
(0,0,0)
(0,0,0)
(0,0,0)
(0,0,0)
(0,0,0)
(0,0,0)
(0,0,0)
(0,0,0)
(0,0,0)
(0,0,0)
(0,0,0)
(0,0,0)
(0,0,0)
(0,0,0)
(0,0,0)
(0,0,0)
(0,0,0)
(0,0,0)
(0,0,0)
(0,0,0)
(0,0,0)
(0,0,0)
(0,0,0)
(0,0,0)
(0,0,0)
(0,0,0)
(0,0,0)
(0,0,0)
(0,0,0)
(0,0,0)
(0,0,0)
(0,0,0)
(0,0,0)
(0,0,0)
(0,0,0)
(0,0,0)
(0,0,0)
(0,0,0)
(0,0,0)
(0,0,0)
(0,0,0)
(0,0,0)
(0,0,0)
(0,0,0)
(0,0,0)
(0,0,0)
(0,0,0)
(0,0,0)
(0,0,0)
(0,0,0)
(0,0,0)
(0,0,0)
(0,0,0)
(0,0,0)
(0,0,0)
(0,0,0)
(0,0,0)
(0,0,0)
(0,0,0)
(0,0,0)
(0,0,0)
(0,0,0)
(0,0,0)
(0,0,0)
(0,0,0)
(0,0,0)
(0,0,0)
(0,0,0)
(0,0,0)
(0,0,0)
(0,0,0)
(0,0,0)
(0,0,0)
(0,0,0)
(0,0,0)
(0,0,0)
(0,0,0)
(0,0,0)
(0,0,0)
(0,0,0)
(0,0,0)
(0,0,0)
(0,0,0)
(0,0,0)
(0,0,0)
(0,0,0)
(0,0,0)
(0,0,0)
(0,0,0)
(0,0,0)
(0,0,0)
(0,0,0)
(0,0,0)
(0,0,0)
(0,0,0)
(0,0,0)
(0,0,0)
(0,0,0)
(0,0,0)
(0,0,0)
(0,0,0)
(0,0,0)
(0,0,0)
(0,0,0)
(0,0,0)
(0,0,0)
(0,0,0)
(0,0,0)
(0,0,0)
(0,0,0)
(0,0,0)
(0,0,0)
(0,0,0)
(0,0,0)
(0,0,0)
(0,0,0)
(0,0,0)
(0,0,0)
(0,0,0)
(0,0,0)
(0,0,0)
(0,0,0)
(0,0,0)
(0,0,0)
(0,0,0)
(0,0,0)
(0,0,0)
(0,0,0)
(0,0,0)
(0,0,0)
(0,0,0)
(0,0,0)
(0,0,0)
(0,0,0)
(0,0,0)
(0,0,0)
(0,0,0)
(0,0,0)
(0,0,0)
(0,0,0)
(0,0,0)
(0,0,0)
(0,0,0)
(0,0,0)
(0,0,0)
(0,0,0)
(0,0,0)
(0,0,0)
(0,0,0)
(0,0,0)
(0,0,0)
(0,0,0)
(0,0,0)
(0,0,0)
(0,0,0)
(0,0,0)
(0,0,0)
(0,0,0)
(0,0,0)
(0,0,0)
(0,0,0)
(0,0,0)
(0,0,0)
(0,0,0)
(0,0,0)
(0,0,0)
(0,0,0)
(0,0,0)
(0,0,0)
(0,0,0)
(0,0,0)
(0,0,0)
(0,0,0)
(0,0,0)
(0,0,0)
(0,0,0)
(0,0,0)
(0,0,0)
(0,0,0)
(0,0,0)
(0,0,0)
(0,0,0)
(0,0,0)
(0,0,0)
(0,0,0)
(0,0,0)
(0,0,0)
(0,0,0)
(0,0,0)
(0,0,0)
(0,0,0)
(0,0,0)
(0,0,0)
(0,0,0)
(0,0,0)
(0,0,0)
(0,0,0)
(0,0,0)
(0,0,0)
(0,0,0)
(0,0,0)
(0,0,0)
(0,0,0)
(0,0,0)
(0,0,0)
(0,0,0)
(0,0,0)
(0,0,0)
(0,0,0)
(0,0,0)
(0,0,0)
(0,0,0)
(0,0,0)
(0,0,0)
(0,0,0)
(0,0,0)
(0,0,0)
(0,0,0)
(0,0,0)
(0,0,0)
(0,0,0)
(0,0,0)
(0,0,0)
(0,0,0)
(0,0,0)
(0,0,0)
(0,0,0)
(0,0,0)
(0,0,0)
(0,0,0)
(0,0,0)
(0,0,0)
(0,0,0)
(0,0,0)
(0,0,0)
(0,0,0)
(0,0,0)
(0,0,0)
(0,0,0)
(0,0,0)
(0,0,0)
(0,0,0)
(0,0,0)
(0,0,0)
(0,0,0)
(0,0,0)
(0,0,0)
(0,0,0)
(0,0,0)
(0,0,0)
(0,0,0)
(0,0,0)
(0,0,0)
(0,0,0)
(0,0,0)
(0,0,0)
(0,0,0)
(0,0,0)
(0,0,0)
(0,0,0)
(0,0,0)
(0,0,0)
(0,0,0)
(0,0,0)
(0,0,0)
(0,0,0)
(0,0,0)
(0,0,0)
(0,0,0)
(0,0,0)
(0,0,0)
(0,0,0)
(0,0,0)
(0,0,0)
(0,0,0)
(0,0,0)
(0,0,0)
(0,0,0)
(0,0,0)
(0,0,0)
(0,0,0)
(0,0,0)
(0,0,0)
(0,0,0)
(0,0,0)
(0,0,0)
(0,0,0)
(0,0,0)
(0,0,0)
(0,0,0)
(0,0,0)
(0,0,0)
(0,0,0)
(0,0,0)
(0,0,0)
(0,0,0)
(0,0,0)
(0,0,0)
(0,0,0)
(0,0,0)
(0,0,0)
(0,0,0)
(0,0,0)
(0,0,0)
(0,0,0)
(0,0,0)
(0,0,0)
(0,0,0)
(0,0,0)
(0,0,0)
(0,0,0)
(0,0,0)
(0,0,0)
(0,0,0)
(0,0,0)
(0,0,0)
(0,0,0)
(0,0,0)
(0,0,0)
(0,0,0)
(0,0,0)
(0,0,0)
(0,0,0)
(0,0,0)
(0,0,0)
(0,0,0)
(0,0,0)
(0,0,0)
(0,0,0)
(0,0,0)
(0,0,0)
(0,0,0)
(0,0,0)
(0,0,0)
(0,0,0)
(0,0,0)
(0,0,0)
(0,0,0)
(0,0,0)
(0,0,0)
(0,0,0)
(0,0,0)
(0,0,0)
(0,0,0)
(0,0,0)
(0,0,0)
(0,0,0)
(0,0,0)
(0,0,0)
(0,0,0)
(0,0,0)
(0,0,0)
(0,0,0)
(0,0,0)
(0,0,0)
(0,0,0)
(0,0,0)
(0,0,0)
(0,0,0)
(0,0,0)
(0,0,0)
(0,0,0)
(0,0,0)
(0,0,0)
(0,0,0)
(0,0,0)
(0,0,0)
(0,0,0)
(0,0,0)
(0,0,0)
(0,0,0)
(0,0,0)
(0,0,0)
(0,0,0)
(0,0,0)
(0,0,0)
(0,0,0)
(0,0,0)
(0,0,0)
(0,0,0)
(0,0,0)
(0,0,0)
(0,0,0)
(0,0,0)
(0,0,0)
(0,0,0)
(0,0,0)
(0,0,0)
(0,0,0)
(0,0,0)
(0,0,0)
(0,0,0)
(0,0,0)
(0,0,0)
(0,0,0)
(0,0,0)
(0,0,0)
(0,0,0)
(0,0,0)
(0,0,0)
(0,0,0)
(0,0,0)
(0,0,0)
(0,0,0)
(0,0,0)
(0,0,0)
(0,0,0)
(0,0,0)
(0,0,0)
(0,0,0)
(0,0,0)
(0,0,0)
(0,0,0)
(0,0,0)
(0,0,0)
(0,0,0)
(0,0,0)
(0,0,0)
(0,0,0)
(0,0,0)
(0,0,0)
(0,0,0)
(0,0,0)
(0,0,0)
(0,0,0)
(0,0,0)
(0,0,0)
(0,0,0)
(0,0,0)
(0,0,0)
(0,0,0)
(0,0,0)
(0,0,0)
(0,0,0)
(0,0,0)
(0,0,0)
(0,0,0)
(0,0,0)
(0,0,0)
(0,0,0)
(0,0,0)
(0,0,0)
(0,0,0)
(0,0,0)
(0,0,0)
(0,0,0)
(0,0,0)
(0,0,0)
(0,0,0)
(0,0,0)
(0,0,0)
(0,0,0)
(0,0,0)
(0,0,0)
(0,0,0)
(0,0,0)
(0,0,0)
(0,0,0)
(0,0,0)
(0,0,0)
(0,0,0)
(0,0,0)
(0,0,0)
(0,0,0)
(0,0,0)
(0,0,0)
(0,0,0)
(0,0,0)
(0,0,0)
(0,0,0)
(0,0,0)
(0,0,0)
(0,0,0)
(0,0,0)
(0,0,0)
(0,0,0)
(0,0,0)
(0,0,0)
(0,0,0)
(0,0,0)
(0,0,0)
(0,0,0)
(0,0,0)
(0,0,0)
(0,0,0)
(0,0,0)
(0,0,0)
(0,0,0)
(0,0,0)
(0,0,0)
(0,0,0)
(0,0,0)
(0,0,0)
(0,0,0)
(0,0,0)
(0,0,0)
(0,0,0)
(0,0,0)
(0,0,0)
(0,0,0)
(0,0,0)
(0,0,0)
(0,0,0)
(0,0,0)
(0,0,0)
(0,0,0)
(0,0,0)
(0,0,0)
(0,0,0)
(0,0,0)
(0,0,0)
(0,0,0)
(0,0,0)
(0,0,0)
(0,0,0)
(0,0,0)
(0,0,0)
(0,0,0)
(0,0,0)
(0,0,0)
(0,0,0)
(0,0,0)
(0,0,0)
(0,0,0)
(0,0,0)
(0,0,0)
(0,0,0)
(0,0,0)
(0,0,0)
(0,0,0)
(0,0,0)
(0,0,0)
(0,0,0)
(0,0,0)
(0,0,0)
(0,0,0)
(0,0,0)
(0,0,0)
(0,0,0)
(0,0,0)
(0,0,0)
(0,0,0)
(0,0,0)
(0,0,0)
(0,0,0)
(0,0,0)
(0,0,0)
(0,0,0)
(0,0,0)
(0,0,0)
(0,0,0)
(0,0,0)
(0,0,0)
(0,0,0)
(0,0,0)
(0,0,0)
(0,0,0)
(0,0,0)
(0,0,0)
(0,0,0)
(0,0,0)
(0,0,0)
(0,0,0)
(0,0,0)
(0,0,0)
(0,0,0)
(0,0,0)
(0,0,0)
(0,0,0)
(0,0,0)
(0,0,0)
(0,0,0)
(0,0,0)
(0,0,0)
(0,0,0)
(0,0,0)
(0,0,0)
(0,0,0)
(0,0,0)
(0,0,0)
(0,0,0)
(0,0,0)
(0,0,0)
(0,0,0)
(0,0,0)
(0,0,0)
(0,0,0)
(0,0,0)
(0,0,0)
(0,0,0)
(0,0,0)
(0,0,0)
(0,0,0)
(0,0,0)
(0,0,0)
(0,0,0)
(0,0,0)
(0,0,0)
(0,0,0)
(0,0,0)
(0,0,0)
(0,0,0)
(0,0,0)
(0,0,0)
(0,0,0)
(0,0,0)
(0,0,0)
(0,0,0)
(0,0,0)
(0,0,0)
(0,0,0)
(0,0,0)
(0,0,0)
(0,0,0)
(0,0,0)
(0,0,0)
(0,0,0)
(0,0,0)
(0,0,0)
(0,0,0)
(0,0,0)
(0,0,0)
(0,0,0)
(0,0,0)
(0,0,0)
(0,0,0)
(0,0,0)
(0,0,0)
(0,0,0)
(0,0,0)
(0,0,0)
(0,0,0)
(0,0,0)
(0,0,0)
(0,0,0)
(0,0,0)
(0,0,0)
(0,0,0)
(0,0,0)
(0,0,0)
(0,0,0)
(0,0,0)
(0,0,0)
(0,0,0)
(0,0,0)
(0,0,0)
(0,0,0)
(0,0,0)
(0,0,0)
(0,0,0)
(0,0,0)
(0,0,0)
(0,0,0)
(0,0,0)
(0,0,0)
(0,0,0)
(0,0,0)
(0,0,0)
(0,0,0)
(0,0,0)
(0,0,0)
(0,0,0)
(0,0,0)
(0,0,0)
(0,0,0)
(0,0,0)
(0,0,0)
(0,0,0)
(0,0,0)
(0,0,0)
(0,0,0)
(0,0,0)
(0,0,0)
(0,0,0)
(0,0,0)
(0,0,0)
(0,0,0)
(0,0,0)
(0,0,0)
(0,0,0)
(0,0,0)
(0,0,0)
(0,0,0)
(0,0,0)
(0,0,0)
(0,0,0)
(0,0,0)
(0,0,0)
(0,0,0)
(0,0,0)
(0,0,0)
(0,0,0)
(0,0,0)
(0,0,0)
(0,0,0)
(0,0,0)
(0,0,0)
(0,0,0)
(0,0,0)
(0,0,0)
(0,0,0)
(0,0,0)
(0,0,0)
(0,0,0)
(0,0,0)
(0,0,0)
(0,0,0)
(0,0,0)
(0,0,0)
(0,0,0)
(0,0,0)
(0,0,0)
(0,0,0)
(0,0,0)
(0,0,0)
(0,0,0)
(0,0,0)
(0,0,0)
(0,0,0)
(-12499.5087238463,6560.97927060402,5938.52945324141)
(-13343.2820303924,6326.87322495626,12954.9382586769)
(-15131.284866539,5792.39101662973,22293.8321085827)
(-18412.2175831999,4927.24461407903,35778.8050777142)
(-24319.9241926111,3758.19189968436,56340.5373706403)
(-34911.815705324,2397.44773510598,88854.9053408629)
(-54076.7274309541,1110.38250642319,141821.250265417)
(-88770.3569704784,319.639134242021,230271.968101664)
(-146588.160206472,49.6310382430721,376810.497269858)
(-204400.185935616,28.429107507847,581182.254098044)
(0,0,0)
(0,0,0)
(0,0,0)
(0,0,0)
(0,0,0)
(0,0,0)
(-13256.5419539786,14139.3511450012,5678.17007957969)
(-14068.5440384749,13670.8009522772,12402.786390736)
(-15863.6039327793,12655.4326320607,21403.3487080814)
(-19219.6845787239,11005.8798910658,34544.3980098191)
(-25291.4657835831,8690.9877535974,54903.0679394862)
(-36145.7094350641,5878.88926313358,87567.3358465112)
(-55511.3051380811,3134.8454453974,141054.17804561)
(-90067.6807945409,1407.91958142066,230033.578392931)
(-147462.938229341,718.962009425267,376827.185651137)
(-204819.509321869,391.208898633517,581283.915181782)
(0,0,0)
(0,0,0)
(0,0,0)
(0,0,0)
(0,0,0)
(0,0,0)
(-14953.7881656936,23933.4074103892,5159.73190030571)
(-15762.1767334675,23280.8003115161,11311.909274538)
(-17618.2928606642,21898.9309301578,19686.7038371104)
(-21121.1698112327,19656.0631174615,32157.6904219483)
(-27556.6686325185,16363.204116525,52042.1426915262)
(-39070.2867419037,12135.9939126422,84855.3247839238)
(-59101.62120607,7755.67181637766,139336.119619027)
(-93369.6155984488,4754.23467946669,229359.42011937)
(-149581.99329541,3125.18184613307,376535.193578147)
(-205782.838722521,1685.46595832202,581023.775240973)
(0,0,0)
(0,0,0)
(0,0,0)
(0,0,0)
(0,0,0)
(0,0,0)
(-18140.2765918481,37598.2831126031,4475.4008896354)
(-18942.5870786658,36851.4217151765,9847.36656464275)
(-20851.4126691582,35301.912359925,17295.797804026)
(-24581.0165976701,32806.4435513341,28726.4339678156)
(-31633.8843299534,28981.0887654925,47742.4336488129)
(-44402.4848714774,23791.1856564394,80489.726776484)
(-66003.5723037338,17896.7098672479,136352.261029344)
(-99761.5837870602,13053.2001548607,227814.879340987)
(-153465.32437935,9233.76560976884,375171.619956636)
(-207483.249593088,4947.96884319571,579392.366665026)
(0,0,0)
(0,0,0)
(0,0,0)
(0,0,0)
(0,0,0)
(0,0,0)
(-23931.093188651,57824.9286432282,3704.44765801933)
(-24708.8347088162,57088.6169430497,8176.08713896096)
(-26627.8625061366,55598.4241666713,14507.4378383494)
(-30528.1798203901,53168.8691981871,24673.1920118876)
(-38180.0150655551,49392.3077309251,42441.9881120099)
(-52477.4411057581,44099.538599411,74611.0762747773)
(-76523.9720400325,37464.8732583069,131566.884923748)
(-109522.049906809,30065.4854187342,224076.649566725)
(-159151.53486201,21561.9456393693,370900.004399244)
(-209965.855298429,11421.5896765007,574392.238864359)
(0,0,0)
(0,0,0)
(0,0,0)
(0,0,0)
(0,0,0)
(0,0,0)
(-34323.848111417,89196.9474489408,2951.82930571067)
(-35065.6292786084,88555.5898102532,6550.48571710778)
(-36902.5418539028,87257.1562991359,11794.2954385495)
(-40737.2440097957,85034.2980549264,20666.1105915966)
(-48427.4078619418,81483.3679263461,37002.4582581259)
(-62951.1776828289,76111.973916437,67941.2006239375)
(-87029.5956783794,68283.0852702093,124152.584290409)
(-118541.282872404,57264.0384040545,215495.314177506)
(-165383.75413899,41905.5536662944,360535.460289626)
(-213114.004330703,22380.2027242044,562690.851572563)
(0,0,0)
(0,0,0)
(0,0,0)
(0,0,0)
(0,0,0)
(0,0,0)
(-53358.8578350312,140273.410875533,2282.3944084309)
(-53995.984950872,139745.231392634,5088.73777692896)
(-55616.1259980191,138611.579975767,9350.44009831752)
(-59118.2004045271,136582.433365737,16920.5051920328)
(-66257.8710969286,133185.6702091,31476.0740062072)
(-79875.1034827861,127471.901877425,59991.2495280158)
(-102427.211534156,117712.435668897,112989.110663499)
(-131106.900295499,101419.761680657,199940.287682392)
(-174773.856256781,75919.335745683,340700.361859725)
(-218284.899441609,41383.5299142236,539981.934111415)
(0,0,0)
(0,0,0)
(0,0,0)
(0,0,0)
(0,0,0)
(0,0,0)
(-88077.2168950325,226697.422657882,1653.20511268037)
(-88596.8543624926,226218.377798329,3776.91306949071)
(-89892.7696353288,225134.22299877,7147.03968183963)
(-92734.0389125567,223110.538660254,13352.9732998628)
(-98586.0298831979,219505.878350067,25618.795042094)
(-109876.384143168,212831.912577861,50135.1684848125)
(-128738.190063798,200013.232367342,96572.561850122)
(-152020.680066459,175798.500660854,174214.502936406)
(-191876.424513925,136112.291670209,305897.971525799)
(-228208.229652004,77199.503266163,498290.22782582)
(0,0,0)
(0,0,0)
(0,0,0)
(0,0,0)
(0,0,0)
(0,0,0)
(-146149.380168042,371726.513331623,1120.28949429718)
(-146507.832225957,371234.151196656,2612.34832192009)
(-147377.067965499,370071.822056593,5051.81722953656)
(-149290.690520128,367801.611759727,9651.43465017584)
(-153159.657802981,363438.380292644,18878.5905105834)
(-160471.534108759,354869.690348146,37312.346849067)
(-172849.276626051,337861.355229668,72313.5006128003)
(-191439.425228238,305167.038185344,134384.388316578)
(-223377.32812113,247052.274873025,246821.733234779)
(-245488.788574113,148647.164213801,420862.860861266)
(0,0,0)
(0,0,0)
(0,0,0)
(0,0,0)
(0,0,0)
(0,0,0)
(-204239.8642969,575375.019360125,591.358268389967)
(-204419.175805746,574872.945864126,1371.73940666291)
(-204838.893293684,573599.907410896,2682.54734606767)
(-205775.360082818,571078.6280203,5180.89116835733)
(-207646.717890314,566051.750343131,10214.2390081944)
(-211167.068467929,555994.815901614,20256.1819226145)
(-217369.812602934,535911.081591132,39576.2681640593)
(-227926.021623721,496466.996602941,76202.3313701652)
(-245445.916491406,420378.759109225,148321.763625309)
(-247269.499357005,272145.246317187,272093.180878982)
(0,0,0)
(0,0,0)
(0,0,0)
(0,0,0)
(0,0,0)
(0,0,0)
(0,0,0)
(0,0,0)
(0,0,0)
(0,0,0)
(0,0,0)
(0,0,0)
(0,0,0)
(0,0,0)
(0,0,0)
(0,0,0)
(0,0,0)
(0,0,0)
(0,0,0)
(0,0,0)
(0,0,0)
(0,0,0)
(0,0,0)
(0,0,0)
(0,0,0)
(0,0,0)
(0,0,0)
(0,0,0)
(0,0,0)
(0,0,0)
(0,0,0)
(0,0,0)
(0,0,0)
(0,0,0)
(0,0,0)
(0,0,0)
(0,0,0)
(0,0,0)
(0,0,0)
(0,0,0)
(0,0,0)
(0,0,0)
(0,0,0)
(0,0,0)
(0,0,0)
(0,0,0)
(0,0,0)
(0,0,0)
(0,0,0)
(0,0,0)
(0,0,0)
(0,0,0)
(0,0,0)
(0,0,0)
(0,0,0)
(0,0,0)
(0,0,0)
(0,0,0)
(0,0,0)
(0,0,0)
(0,0,0)
(0,0,0)
(0,0,0)
(0,0,0)
(0,0,0)
(0,0,0)
(0,0,0)
(0,0,0)
(0,0,0)
(0,0,0)
(0,0,0)
(0,0,0)
(0,0,0)
(0,0,0)
(0,0,0)
(0,0,0)
(0,0,0)
(0,0,0)
(0,0,0)
(0,0,0)
(0,0,0)
(0,0,0)
(0,0,0)
(0,0,0)
(0,0,0)
(0,0,0)
(0,0,0)
(0,0,0)
(0,0,0)
(0,0,0)
(0,0,0)
(0,0,0)
(0,0,0)
(0,0,0)
(0,0,0)
(0,0,0)
(0,0,0)
(0,0,0)
(0,0,0)
(0,0,0)
(0,0,0)
(0,0,0)
(1920106.39391445,5814.953922513,5234.58799746457)
(1918714.74113358,5543.77717714807,11288.2322147569)
(1915744.41159229,4971.46604343591,19096.5142706976)
(1910326.77078286,4042.58863641963,29970.3818264716)
(1900716.36761532,2715.60182792812,45873.9327488482)
(1883631.91107394,1122.00198621272,69863.6485416084)
(1852380.100688,-351.579778083678,107413.844758888)
(1790613.29465175,-1006.43859175508,172692.076286707)
(1651286.62146169,-839.771705500194,319312.510882372)
(1272861.82943472,-402.172165585975,786108.112235962)
(0,0,0)
(0,0,0)
(0,0,0)
(0,0,0)
(0,0,0)
(0,0,0)
(1918831.13001756,12418.7664510964,4963.96005820165)
(1917468.99347935,11927.5739193732,10698.0703564993)
(1914499.00382057,10854.5081847357,18107.8650201688)
(1908983.10799164,9046.60234657285,28556.5032979893)
(1899112.64381017,6356.38075269011,44167.0593378117)
(1881568.06094489,2905.69700733963,68325.0384950507)
(1849853.05525522,-465.507766626693,106730.050648695)
(1788326.83309702,-1891.29410492542,172875.836828552)
(1649854.9370633,-1408.63045507618,319782.264843713)
(1272214.15654873,-580.683258253927,786582.554623923)
(0,0,0)
(0,0,0)
(0,0,0)
(0,0,0)
(0,0,0)
(0,0,0)
(1915969.44879293,20724.4778457713,4426.49620487451)
(1914625.45848322,20074.2520071544,9547.62745866416)
(1911596.99346891,18630.9130345975,16211.3808375707)
(1905878.33849773,16143.213549846,25770.7058837719)
(1895365.87780463,12223.6696610191,40636.3150966208)
(1876442.61749081,6742.43260138862,64942.1198282292)
(1842938.46388389,822.409098853064,105269.562431126)
(1781967.68516412,-1673.4052348507,173369.817356882)
(1646163.96047841,-786.595326232141,320657.27301234)
(1270673.62570967,-12.0204722651508,787287.590352557)
(0,0,0)
(0,0,0)
(0,0,0)
(0,0,0)
(0,0,0)
(0,0,0)
(1910637.59321369,31898.0428315848,3704.00976690731)
(1909326.41557447,31171.2640249144,7993.43965433054)
(1906260.51468444,29590.5327186391,13577.3371750023)
(1900200.70038298,26874.9362604635,21719.3420420915)
(1888488.73981441,22395.3383502998,35080.4937668148)
(1866409.88002298,15633.7707750801,59032.23525696)
(1827434.37138851,7308.28616071251,102763.859061224)
(1767438.45601553,3245.35524177076,174300.503340425)
(1638684.75974917,3541.84508363895,321477.423360203)
(1267793.75603572,2487.13025089803,787356.711566747)
(0,0,0)
(0,0,0)
(0,0,0)
(0,0,0)
(0,0,0)
(0,0,0)
(1901131.73658734,47575.8854234574,2914.77219043269)
(1899885.70994642,46876.9052579894,6270.03086039364)
(1896850.00178451,45444.9431594186,10593.2006874029)
(1890529.03866894,43045.2096691066,17021.1533476721)
(1877484.64715911,39196.5792498085,28210.6947819316)
(1850686.47955126,33638.0030836612,50697.9863747512)
(1799465.13087116,26964.305410437,98708.3087721836)
(1740397.93130615,21069.3524829175,174619.774876441)
(1626892.64189389,15366.5996344109,320406.288127951)
(1263486.87995611,8288.77479166841,784807.352890837)
(0,0,0)
(0,0,0)
(0,0,0)
(0,0,0)
(0,0,0)
(0,0,0)
(1884309.65962665,70386.3934187621,2211.42882484032)
(1883168.24157279,69798.7553455242,4711.15244418629)
(1880304.08244601,68676.2906004324,7928.62526159074)
(1874145.86094445,66805.3700951172,12940.804439793)
(1861029.6590166,63828.3812488212,22507.3801205469)
(1833555.92226085,59331.8173397931,43961.9104789834)
(1781792.45138151,52985.9751437537,92773.6382441542)
(1725324.68133109,44788.9781145863,168843.492967283)
(1616754.01987646,32579.346973842,313148.416170745)
(1258487.58627307,17218.4606630232,776272.584253812)
(0,0,0)
(0,0,0)
(0,0,0)
(0,0,0)
(0,0,0)
(0,0,0)
(1853241.13847949,105817.514336264,1624.32732628336)
(1852279.56418047,105372.716067914,3430.26203084195)
(1849775.10964538,104542.380574495,5828.38097175484)
(1844199.63283799,103196.819008023,9774.54337458543)
(1832000.77717279,101103.390982594,17896.3299294077)
(1805800.81525563,97675.796560603,37531.8765283899)
(1755706.70416713,91572.1106977419,84467.2698313482)
(1704670.69936708,80652.9796322639,156481.113209421)
(1601529.63246276,58894.6783223202,297517.737699586)
(1249877.89794084,31497.9486130579,758730.896925468)
(0,0,0)
(0,0,0)
(0,0,0)
(0,0,0)
(0,0,0)
(0,0,0)
(1791343.74229148,168911.886657438,1140.11305064997)
(1790576.15977744,168547.55061919,2447.70891770834)
(1788597.2713034,167865.514589708,4289.97852210314)
(1784110.42606929,166799.504096029,7498.27301052162)
(1774097.36883118,165201.077536359,14372.6323005735)
(1751951.59616517,162499.183162796,31376.7099484797)
(1708214.89066554,156176.563812922,73474.6206622933)
(1674565.52595052,136620.089085903,134576.749749827)
(1570646.60657866,104741.907666708,269861.933871159)
(1229913.41219239,59975.4168789941,726918.268319089)
(0,0,0)
(0,0,0)
(0,0,0)
(0,0,0)
(0,0,0)
(0,0,0)
(1651651.65623639,314004.496126805,761.798684574973)
(1651111.25325278,313658.665960692,1687.04242269011)
(1649794.29196848,312942.010382713,3094.63125397732)
(1646860.64343579,311650.743258264,5747.50269407669)
(1640601.29872541,309267.623415747,11575.4448445352)
(1627789.7606678,304462.362122123,25006.4156670848)
(1604497.35245171,293621.897286367,53869.8976742859)
(1571193.037097,268930.385703845,102582.583289479)
(1477494.52030289,225186.937783008,224921.149307497)
(1169340.72785439,146994.356443205,666728.137873103)
(0,0,0)
(0,0,0)
(0,0,0)
(0,0,0)
(0,0,0)
(0,0,0)
(1272958.51645251,780045.437134493,416.122801148339)
(1272670.20512601,779731.080906436,909.771481847189)
(1272025.68521381,778932.811252657,1709.83666276503)
(1270610.51164712,777349.146067886,3281.00668165034)
(1267698.90563448,774170.571626965,6687.87950402965)
(1261942.01796383,767622.016777552,14074.5829752206)
(1251152.23966291,753735.669767505,29094.2027865893)
(1230231.97981965,724781.164988167,58740.8666173666)
(1169376.06788743,666150.611787159,146610.65279275)
(950782.943088566,519604.431099252,519603.580249429)
(0,0,0)
(0,0,0)
(0,0,0)
(0,0,0)
(0,0,0)
(0,0,0)
(0,0,0)
(0,0,0)
(0,0,0)
(0,0,0)
(0,0,0)
(0,0,0)
(0,0,0)
(0,0,0)
(0,0,0)
(0,0,0)
(0,0,0)
(0,0,0)
(0,0,0)
(0,0,0)
(0,0,0)
(0,0,0)
(0,0,0)
(0,0,0)
(0,0,0)
(0,0,0)
(0,0,0)
(0,0,0)
(0,0,0)
(0,0,0)
(0,0,0)
(0,0,0)
(0,0,0)
(0,0,0)
(0,0,0)
(0,0,0)
(0,0,0)
(0,0,0)
(0,0,0)
(0,0,0)
(0,0,0)
(0,0,0)
(0,0,0)
(0,0,0)
(0,0,0)
(0,0,0)
(0,0,0)
(0,0,0)
(0,0,0)
(0,0,0)
(0,0,0)
(0,0,0)
(0,0,0)
(0,0,0)
(0,0,0)
(0,0,0)
(0,0,0)
(0,0,0)
(0,0,0)
(0,0,0)
(0,0,0)
(0,0,0)
(0,0,0)
(0,0,0)
(0,0,0)
(0,0,0)
(0,0,0)
(0,0,0)
(0,0,0)
(0,0,0)
(0,0,0)
(0,0,0)
(0,0,0)
(0,0,0)
(0,0,0)
(0,0,0)
(0,0,0)
(0,0,0)
(0,0,0)
(0,0,0)
(0,0,0)
(0,0,0)
(0,0,0)
(0,0,0)
(0,0,0)
(0,0,0)
(0,0,0)
(0,0,0)
(0,0,0)
(0,0,0)
(0,0,0)
(0,0,0)
(0,0,0)
(0,0,0)
(0,0,0)
(0,0,0)
(0,0,0)
(0,0,0)
(0,0,0)
(0,0,0)
(0,0,0)
(0,0,0)
(-32164.9622479678,4531.34952862441,4084.56207552042)
(-33692.113208198,4260.16033122462,8575.81152765757)
(-36926.2314270748,3670.17359270626,13920.8363961132)
(-42682.6111384607,2648.90168939152,20625.8720697854)
(-52485.7730535567,1058.60248533541,29113.9656951008)
(-68817.7166197427,-997.933212345043,38906.0820428804)
(-95431.2815926672,-2928.34259272513,45990.362358087)
(-137496.422534957,-3319.50845808775,33764.1434445763)
(-197815.977386586,-2261.19714810346,-58527.5051173504)
(-242760.100707699,-1026.92278215598,-485534.096751032)
(0,0,0)
(0,0,0)
(0,0,0)
(0,0,0)
(0,0,0)
(0,0,0)
(-33594.3304865829,9511.79328145943,3789.57219298079)
(-35080.8701453705,9021.94944831498,7922.2021422622)
(-38264.671655895,7901.37136073406,12799.2352923795)
(-44017.4031867839,5861.07938860157,18932.1242132587)
(-53960.2669709391,2490.42608046084,26917.7668409204)
(-70709.1795178861,-2342.60075959964,36884.2302926284)
(-97930.806371516,-7462.03130774396,45546.3360759983)
(-139621.490521859,-8289.91056938247,34809.6172478852)
(-198873.29273844,-5102.80453059519,-57275.9901260881)
(-243154.431414411,-2105.13267126911,-484484.636831987)
(0,0,0)
(0,0,0)
(0,0,0)
(0,0,0)
(0,0,0)
(0,0,0)
(-36815.6334910569,15422.3060693655,3219.12493790855)
(-38237.9846077313,14785.1286211764,6663.94429773651)
(-41377.924566792,13276.7389843662,10608.05015146)
(-47157.1823607746,10422.1704825378,15427.0353576013)
(-57560.7646113297,5257.27139543131,21931.3879002541)
(-75939.0909075617,-3381.96904925442,31697.0200299097)
(-106412.291551983,-14731.5745080863,44661.8741077844)
(-147048.076478963,-16255.6693737363,37987.9499968379)
(-202115.630618598,-8274.98654344896,-54215.721451416)
(-244215.666593551,-2860.36932906777,-482226.637048792)
(0,0,0)
(0,0,0)
(0,0,0)
(0,0,0)
(0,0,0)
(0,0,0)
(-42680.3758250608,22620.1860588745,2464.64449097713)
(-44003.3240447735,21933.6606468591,4990.40752622041)
(-47023.057970603,20339.96505223,7555.30955508338)
(-52885.813757141,17300.4589789392,10108.0906404443)
(-64373.5725933635,11404.5555528716,13167.6743324204)
(-87654.194042163,-107.303006953321,20301.6377969918)
(-133078.942353503,-20667.2571715137,43095.1896440546)
(-171544.982236207,-23803.9232064393,45971.4371700937)
(-210298.197536976,-8222.58826378986,-48753.4483816024)
(-246463.003331307,-1772.85655949882,-479239.646342581)
(0,0,0)
(0,0,0)
(0,0,0)
(0,0,0)
(0,0,0)
(0,0,0)
(-52628.7494910119,31036.3529289621,1688.87464996439)
(-53821.3670923149,30437.621452852,3236.54632442948)
(-56633.4165626644,29162.2386828546,4242.24648253848)
(-62437.4099263665,26874.6091924398,3979.10030610377)
(-75179.4450096769,22884.3873993513,1507.91606998178)
(-107840.059410473,16608.1824181362,-336.474951783372)
(-214454.080153296,9361.52958944502,39898.5047533309)
(-254735.665118423,6045.91843904258,61526.8149741002)
(-226411.74108469,5291.07510296962,-42337.9099722722)
(-250134.739591316,3345.78984663693,-477490.381389234)
(0,0,0)
(0,0,0)
(0,0,0)
(0,0,0)
(0,0,0)
(0,0,0)
(-69022.7597859672,39644.7300546298,1068.59772874163)
(-70030.5556306317,39226.1251612972,1823.44666544995)
(-72510.8698814744,38441.7216541619,1703.47146329099)
(-77844.852904565,37154.3814581239,-241.031511832589)
(-90145.1983361802,35093.1991726943,-4930.43049069598)
(-122607.835923232,31853.6560527905,-7667.59049951093)
(-223876.014572248,27140.5529383938,36566.4075468998)
(-260785.836812814,24320.874139797,60746.5254316936)
(-233977.309567812,17501.5767176447,-44388.0912971241)
(-253888.356491667,8684.45253837553,-481006.255782292)
(0,0,0)
(0,0,0)
(0,0,0)
(0,0,0)
(0,0,0)
(0,0,0)
(-95662.8929594208,44273.3350731905,619.981862027574)
(-96454.1675084679,44057.9301539814,866.463999991061)
(-98508.9439001873,43750.6367749506,186.157866375159)
(-103123.90127518,43494.4268006669,-2485.79792124509)
(-114360.134559038,43598.1089585139,-8285.24053354493)
(-146030.83407014,44199.7170900713,-12455.0968032535)
(-251419.501984427,44422.128067235,33734.0896612423)
(-285592.755719128,50830.9167127107,53832.0576162526)
(-245583.780714575,28208.6727373484,-53417.0697842332)
(-260167.990944639,11633.1239007785,-489975.296819531)
(0,0,0)
(0,0,0)
(0,0,0)
(0,0,0)
(0,0,0)
(0,0,0)
(-137986.393188454,29580.6156972285,367.410297563133)
(-138571.735007174,29490.0692260915,427.721451803076)
(-140117.523781345,29480.0058701525,-242.297116995507)
(-143699.071047531,29974.4369932217,-2568.2547510118)
(-152929.923220018,32178.9399406048,-7777.23824009571)
(-181840.848072236,38823.7544364147,-12264.2759074507)
(-296340.388696982,52945.6089533884,40112.0780105884)
(-242900.5503534,33670.5266418451,31083.099827138)
(-255338.809125829,11881.214463057,-70259.4707523062)
(-269987.466106004,-458.912467165486,-501922.000644147)
(0,0,0)
(0,0,0)
(0,0,0)
(0,0,0)
(0,0,0)
(0,0,0)
(-198485.758491852,-64178.2664469406,240.852314037252)
(-198887.865950357,-64251.955433738,326.551618653481)
(-199884.842756591,-64284.0750694407,114.322725050177)
(-202085.45562225,-64051.780725304,-568.80505664568)
(-207133.129778787,-63044.2118992208,-1266.66927086295)
(-219297.968395323,-60795.1134300604,1784.48310028905)
(-246068.587339611,-59145.4836000011,20786.0708866373)
(-255672.219985092,-71503.6476908548,9170.05774305463)
(-279799.766704543,-82512.024677974,-82797.8606667774)
(-284588.368253549,-71303.9323308325,-501679.18925352)
(0,0,0)
(0,0,0)
(0,0,0)
(0,0,0)
(0,0,0)
(0,0,0)
(-243224.590725846,-491796.480195323,145.876368437488)
(-243445.804736744,-491869.625592257,224.111831362975)
(-243932.924738575,-492022.667737308,265.869893326492)
(-244961.161662881,-492210.115270996,340.433190587859)
(-247135.81586342,-492427.608110888,903.106341835128)
(-251721.087343634,-493195.572368504,3311.22602935083)
(-260310.304387842,-496318.343363248,8291.18528501764)
(-270209.604083552,-504449.454712216,-1976.86834890319)
(-284668.500620734,-502367.270569645,-71732.498507432)
(-274860.579974076,-430552.430021611,-430495.92231241)
(0,0,0)
(0,0,0)
(0,0,0)
(0,0,0)
(0,0,0)
(0,0,0)
(0,0,0)
(0,0,0)
(0,0,0)
(0,0,0)
(0,0,0)
(0,0,0)
(0,0,0)
(0,0,0)
(0,0,0)
(0,0,0)
(0,0,0)
(0,0,0)
(0,0,0)
(0,0,0)
(0,0,0)
(0,0,0)
(0,0,0)
(0,0,0)
(0,0,0)
(0,0,0)
(0,0,0)
(0,0,0)
(0,0,0)
(0,0,0)
(0,0,0)
(0,0,0)
(0,0,0)
(0,0,0)
(0,0,0)
(0,0,0)
(0,0,0)
(0,0,0)
(0,0,0)
(0,0,0)
(0,0,0)
(0,0,0)
(0,0,0)
(0,0,0)
(0,0,0)
(0,0,0)
(0,0,0)
(0,0,0)
(0,0,0)
(0,0,0)
(0,0,0)
(0,0,0)
(0,0,0)
(0,0,0)
(0,0,0)
(0,0,0)
(0,0,0)
(0,0,0)
(0,0,0)
(0,0,0)
(0,0,0)
(0,0,0)
(0,0,0)
(0,0,0)
(0,0,0)
(0,0,0)
(0,0,0)
(0,0,0)
(0,0,0)
(0,0,0)
(0,0,0)
(0,0,0)
(0,0,0)
(0,0,0)
(0,0,0)
(0,0,0)
(0,0,0)
(0,0,0)
(0,0,0)
(0,0,0)
(0,0,0)
(0,0,0)
(0,0,0)
(0,0,0)
(0,0,0)
(0,0,0)
(0,0,0)
(0,0,0)
(0,0,0)
(0,0,0)
(0,0,0)
(0,0,0)
(0,0,0)
(0,0,0)
(0,0,0)
(0,0,0)
(0,0,0)
(0,0,0)
(0,0,0)
(0,0,0)
(0,0,0)
(0,0,0)
(-38035.4054259405,3069.33542962763,2801.10774834465)
(-39322.4885271285,2819.38284024602,5612.10022703334)
(-42027.4843750144,2265.79669166361,8447.55648331123)
(-46630.39290211,1244.32069121774,11151.0175557395)
(-54014.3182187275,-498.733468121631,13178.2961890308)
(-65311.929240908,-3005.93797373394,12678.44678393)
(-81508.8940078149,-5553.36751583597,4309.42671491399)
(-101572.353934077,-5517.3104082817,-26097.3314776819)
(-117659.046965386,-3344.96998273001,-102909.291916116)
(-102354.609361366,-1398.17202601569,-241916.611236409)
(0,0,0)
(0,0,0)
(0,0,0)
(0,0,0)
(0,0,0)
(0,0,0)
(-39310.9316009267,6277.35060448853,2508.58593948102)
(-40532.1988547167,5819.74090047009,4959.55658860486)
(-43084.575328153,4747.1690506884,7298.08790184216)
(-47436.6572956807,2658.59208252442,9303.07061942596)
(-54491.1183037953,-1221.3386412179,10556.5271253727)
(-65474.4008012075,-7757.28685410306,10073.0972890682)
(-81567.7263969522,-16134.4751078228,4291.12490649229)
(-101048.627417643,-15836.6098969272,-23962.4387090762)
(-116856.03155728,-8385.09108666136,-100939.578786287)
(-101889.175511394,-3139.82906194889,-240463.177653453)
(0,0,0)
(0,0,0)
(0,0,0)
(0,0,0)
(0,0,0)
(0,0,0)
(-42171.0846183067,9670.70731893387,1962.09441281003)
(-43273.0404726874,9092.49798761617,3724.3931906187)
(-45579.1988439325,7658.90316587733,5013.93335256825)
(-49427.7569577684,4690.31217446993,5252.78785761684)
(-55739.7081462614,-1622.6901185125,3833.08286984167)
(-66239.9707869545,-15220.6776513587,1597.35354647401)
(-83915.6510375622,-41538.6505115263,4504.88843575698)
(-100976.461201336,-40860.9775480067,-16542.359190808)
(-114929.590967371,-16493.6583996567,-95619.8315290361)
(-100740.000600489,-5100.30494091259,-237135.021643154)
(0,0,0)
(0,0,0)
(0,0,0)
(0,0,0)
(0,0,0)
(0,0,0)
(-47227.1916518722,12954.5615804585,1262.96156529551)
(-48133.0139084339,12376.2192166928,2108.93019988423)
(-50004.0030988778,10949.0724428033,1799.70605123774)
(-53040.8532084991,7899.2437757605,-1254.1860986941)
(-57971.0090950054,656.857820868756,-9936.29753643114)
(-67687.9513763913,-20308.4425330224,-24814.7753205458)
(-102411.524945037,-102121.838062711,5100.99482217079)
(-108080.731166423,-107042.186509055,7817.95271342625)
(-110468.374176111,-24337.0609277217,-84168.4681193874)
(-98384.7208816424,-5453.38269327484,-231893.672816753)
(0,0,0)
(0,0,0)
(0,0,0)
(0,0,0)
(0,0,0)
(0,0,0)
(-55333.211332704,15092.7473570988,566.276065051615)
(-56008.7172046251,14647.7726397449,482.072754311712)
(-57319.3741093576,13662.5940455673,-1545.49130175173)
(-59101.9897430911,11770.7095594143,-8752.37726867956)
(-60353.0852956014,8151.12247858776,-31073.0016404804)
(-54470.5899000884,1989.2938273441,-106740.207511238)
(-4.10567894895589e-05,-1.08867319942921e-05,2.70968208001231e-05)