/*--------------------------------*- C++ -*----------------------------------*\
| =========                 |                                                 |
| \\      /  F ield         | foam-extend: Open Source CFD                    |
|  \\    /   O peration     | Version:     4.0                                |
|   \\  /    A nd           | Web:         http://www.foam-extend.org         |
|    \\/     M anipulation  |                                                 |
\*---------------------------------------------------------------------------*/
FoamFile
{
    version 2.0;
    format ascii;
    class volVectorField;
    location "Data/1143";
    object      E;
}
// * * * * * * * * * * * * * * * * * * * * * * * * * * * * * * * * * * * * * //

dimensions      [0 1 -1 0 0 0 0];

internalField   nonuniform List<vector>
4096
(
(0,0,0)
(0,0,0)
(0,0,0)
(0,0,0)
(0,0,0)
(0,0,0)
(0,0,0)
(0,0,0)
(0,0,0)
(0,0,0)
(0,0,0)
(0,0,0)
(0,0,0)
(0,0,0)
(0,0,0)
(0,0,0)
(0,0,0)
(0,0,0)
(0,0,0)
(0,0,0)
(0,0,0)
(0,0,0)
(0,0,0)
(0,0,0)
(0,0,0)
(0,0,0)
(0,0,0)
(0,0,0)
(0,0,0)
(0,0,0)
(0,0,0)
(0,0,0)
(0,0,0)
(0,0,0)
(0,0,0)
(0,0,0)
(0,0,0)
(0,0,0)
(0,0,0)
(0,0,0)
(0,0,0)
(0,0,0)
(0,0,0)
(0,0,0)
(0,0,0)
(0,0,0)
(0,0,0)
(0,0,0)
(0,0,0)
(0,0,0)
(0,0,0)
(0,0,0)
(0,0,0)
(0,0,0)
(0,0,0)
(0,0,0)
(0,0,0)
(0,0,0)
(0,0,0)
(0,0,0)
(0,0,0)
(0,0,0)
(0,0,0)
(0,0,0)
(0,0,0)
(0,0,0)
(0,0,0)
(0,0,0)
(0,0,0)
(0,0,0)
(0,0,0)
(0,0,0)
(0,0,0)
(0,0,0)
(0,0,0)
(0,0,0)
(0,0,0)
(0,0,0)
(0,0,0)
(0,0,0)
(0,0,0)
(0,0,0)
(0,0,0)
(0,0,0)
(0,0,0)
(0,0,0)
(0,0,0)
(0,0,0)
(0,0,0)
(0,0,0)
(0,0,0)
(0,0,0)
(0,0,0)
(0,0,0)
(0,0,0)
(0,0,0)
(0,0,0)
(0,0,0)
(0,0,0)
(0,0,0)
(0,0,0)
(0,0,0)
(0,0,0)
(0,0,0)
(0,0,0)
(0,0,0)
(0,0,0)
(0,0,0)
(0,0,0)
(0,0,0)
(0,0,0)
(0,0,0)
(0,0,0)
(0,0,0)
(0,0,0)
(0,0,0)
(0,0,0)
(0,0,0)
(0,0,0)
(0,0,0)
(0,0,0)
(0,0,0)
(0,0,0)
(0,0,0)
(0,0,0)
(0,0,0)
(0,0,0)
(0,0,0)
(0,0,0)
(0,0,0)
(0,0,0)
(0,0,0)
(0,0,0)
(0,0,0)
(0,0,0)
(0,0,0)
(0,0,0)
(0,0,0)
(0,0,0)
(0,0,0)
(0,0,0)
(0,0,0)
(0,0,0)
(0,0,0)
(0,0,0)
(0,0,0)
(0,0,0)
(0,0,0)
(0,0,0)
(0,0,0)
(0,0,0)
(0,0,0)
(0,0,0)
(0,0,0)
(0,0,0)
(0,0,0)
(0,0,0)
(0,0,0)
(0,0,0)
(0,0,0)
(0,0,0)
(0,0,0)
(0,0,0)
(0,0,0)
(0,0,0)
(0,0,0)
(0,0,0)
(0,0,0)
(0,0,0)
(0,0,0)
(0,0,0)
(0,0,0)
(0,0,0)
(0,0,0)
(0,0,0)
(0,0,0)
(0,0,0)
(0,0,0)
(0,0,0)
(0,0,0)
(0,0,0)
(0,0,0)
(0,0,0)
(0,0,0)
(0,0,0)
(0,0,0)
(0,0,0)
(0,0,0)
(0,0,0)
(0,0,0)
(0,0,0)
(0,0,0)
(0,0,0)
(0,0,0)
(0,0,0)
(0,0,0)
(0,0,0)
(0,0,0)
(0,0,0)
(0,0,0)
(0,0,0)
(0,0,0)
(0,0,0)
(0,0,0)
(0,0,0)
(0,0,0)
(0,0,0)
(0,0,0)
(0,0,0)
(0,0,0)
(0,0,0)
(0,0,0)
(0,0,0)
(0,0,0)
(0,0,0)
(0,0,0)
(0,0,0)
(0,0,0)
(0,0,0)
(0,0,0)
(0,0,0)
(0,0,0)
(0,0,0)
(0,0,0)
(0,0,0)
(0,0,0)
(0,0,0)
(0,0,0)
(0,0,0)
(0,0,0)
(0,0,0)
(0,0,0)
(0,0,0)
(0,0,0)
(0,0,0)
(0,0,0)
(0,0,0)
(0,0,0)
(0,0,0)
(0,0,0)
(0,0,0)
(0,0,0)
(0,0,0)
(0,0,0)
(0,0,0)
(0,0,0)
(0,0,0)
(0,0,0)
(0,0,0)
(0,0,0)
(0,0,0)
(0,0,0)
(0,0,0)
(0,0,0)
(0,0,0)
(0,0,0)
(0,0,0)
(0,0,0)
(0,0,0)
(0,0,0)
(0,0,0)
(0,0,0)
(0,0,0)
(0,0,0)
(0,0,0)
(0,0,0)
(0,0,0)
(0,0,0)
(0,0,0)
(0,0,0)
(0,0,0)
(0,0,0)
(0,0,0)
(0,0,0)
(0,0,0)
(0,0,0)
(0,0,0)
(0,0,0)
(0,0,0)
(0,0,0)
(0,0,0)
(0,0,0)
(0,0,0)
(0,0,0)
(0,0,0)
(0,0,0)
(0,0,0)
(0,0,0)
(0,0,0)
(0,0,0)
(0,0,0)
(0,0,0)
(0,0,0)
(0,0,0)
(0,0,0)
(0,0,0)
(0,0,0)
(0,0,0)
(0,0,0)
(0,0,0)
(0,0,0)
(0,0,0)
(0,0,0)
(0,0,0)
(0,0,0)
(0,0,0)
(0,0,0)
(0,0,0)
(0,0,0)
(0,0,0)
(0,0,0)
(0,0,0)
(0,0,0)
(0,0,0)
(0,0,0)
(0,0,0)
(0,0,0)
(0,0,0)
(0,0,0)
(0,0,0)
(0,0,0)
(0,0,0)
(0,0,0)
(0,0,0)
(0,0,0)
(0,0,0)
(0,0,0)
(0,0,0)
(0,0,0)
(0,0,0)
(0,0,0)
(0,0,0)
(0,0,0)
(0,0,0)
(0,0,0)
(0,0,0)
(0,0,0)
(0,0,0)
(0,0,0)
(0,0,0)
(0,0,0)
(0,0,0)
(0,0,0)
(0,0,0)
(0,0,0)
(0,0,0)
(0,0,0)
(0,0,0)
(0,0,0)
(0,0,0)
(0,0,0)
(0,0,0)
(0,0,0)
(0,0,0)
(0,0,0)
(0,0,0)
(0,0,0)
(0,0,0)
(0,0,0)
(0,0,0)
(0,0,0)
(0,0,0)
(0,0,0)
(0,0,0)
(0,0,0)
(0,0,0)
(0,0,0)
(0,0,0)
(0,0,0)
(0,0,0)
(0,0,0)
(0,0,0)
(0,0,0)
(0,0,0)
(0,0,0)
(0,0,0)
(0,0,0)
(0,0,0)
(0,0,0)
(0,0,0)
(0,0,0)
(0,0,0)
(0,0,0)
(0,0,0)
(0,0,0)
(0,0,0)
(0,0,0)
(0,0,0)
(0,0,0)
(0,0,0)
(0,0,0)
(0,0,0)
(0,0,0)
(0,0,0)
(0,0,0)
(0,0,0)
(0,0,0)
(0,0,0)
(0,0,0)
(0,0,0)
(0,0,0)
(0,0,0)
(0,0,0)
(0,0,0)
(0,0,0)
(0,0,0)
(0,0,0)
(0,0,0)
(0,0,0)
(0,0,0)
(0,0,0)
(0,0,0)
(0,0,0)
(0,0,0)
(0,0,0)
(0,0,0)
(0,0,0)
(0,0,0)
(0,0,0)
(0,0,0)
(0,0,0)
(0,0,0)
(0,0,0)
(0,0,0)
(0,0,0)
(0,0,0)
(0,0,0)
(0,0,0)
(0,0,0)
(0,0,0)
(0,0,0)
(0,0,0)
(0,0,0)
(0,0,0)
(0,0,0)
(0,0,0)
(0,0,0)
(0,0,0)
(0,0,0)
(0,0,0)
(0,0,0)
(0,0,0)
(0,0,0)
(0,0,0)
(0,0,0)
(0,0,0)
(0,0,0)
(0,0,0)
(0,0,0)
(0,0,0)
(0,0,0)
(0,0,0)
(0,0,0)
(0,0,0)
(0,0,0)
(0,0,0)
(0,0,0)
(0,0,0)
(0,0,0)
(0,0,0)
(0,0,0)
(0,0,0)
(0,0,0)
(0,0,0)
(0,0,0)
(0,0,0)
(0,0,0)
(0,0,0)
(0,0,0)
(0,0,0)
(0,0,0)
(0,0,0)
(0,0,0)
(0,0,0)
(0,0,0)
(0,0,0)
(0,0,0)
(0,0,0)
(0,0,0)
(0,0,0)
(0,0,0)
(0,0,0)
(0,0,0)
(0,0,0)
(0,0,0)
(0,0,0)
(0,0,0)
(0,0,0)
(0,0,0)
(0,0,0)
(0,0,0)
(0,0,0)
(0,0,0)
(0,0,0)
(0,0,0)
(0,0,0)
(0,0,0)
(0,0,0)
(0,0,0)
(0,0,0)
(0,0,0)
(0,0,0)
(0,0,0)
(0,0,0)
(0,0,0)
(0,0,0)
(0,0,0)
(0,0,0)
(0,0,0)
(0,0,0)
(0,0,0)
(0,0,0)
(0,0,0)
(0,0,0)
(0,0,0)
(0,0,0)
(0,0,0)
(0,0,0)
(0,0,0)
(0,0,0)
(0,0,0)
(0,0,0)
(0,0,0)
(0,0,0)
(0,0,0)
(0,0,0)
(0,0,0)
(0,0,0)
(0,0,0)
(0,0,0)
(0,0,0)
(0,0,0)
(0,0,0)
(0,0,0)
(0,0,0)
(0,0,0)
(0,0,0)
(0,0,0)
(0,0,0)
(0,0,0)
(0,0,0)
(0,0,0)
(0,0,0)
(0,0,0)
(0,0,0)
(0,0,0)
(0,0,0)
(0,0,0)
(0,0,0)
(0,0,0)
(0,0,0)
(0,0,0)
(0,0,0)
(0,0,0)
(0,0,0)
(0,0,0)
(0,0,0)
(0,0,0)
(0,0,0)
(0,0,0)
(0,0,0)
(0,0,0)
(0,0,0)
(0,0,0)
(0,0,0)
(0,0,0)
(0,0,0)
(0,0,0)
(0,0,0)
(0,0,0)
(0,0,0)
(0,0,0)
(0,0,0)
(0,0,0)
(0,0,0)
(0,0,0)
(0,0,0)
(0,0,0)
(0,0,0)
(0,0,0)
(0,0,0)
(0,0,0)
(0,0,0)
(0,0,0)
(0,0,0)
(0,0,0)
(0,0,0)
(0,0,0)
(0,0,0)
(0,0,0)
(0,0,0)
(0,0,0)
(0,0,0)
(0,0,0)
(0,0,0)
(0,0,0)
(0,0,0)
(0,0,0)
(0,0,0)
(0,0,0)
(0,0,0)
(0,0,0)
(0,0,0)
(0,0,0)
(0,0,0)
(0,0,0)
(0,0,0)
(0,0,0)
(0,0,0)
(0,0,0)
(0,0,0)
(0,0,0)
(0,0,0)
(0,0,0)
(0,0,0)
(0,0,0)
(0,0,0)
(0,0,0)
(0,0,0)
(0,0,0)
(0,0,0)
(0,0,0)
(0,0,0)
(0,0,0)
(0,0,0)
(0,0,0)
(0,0,0)
(0,0,0)
(0,0,0)
(0,0,0)
(0,0,0)
(0,0,0)
(0,0,0)
(0,0,0)
(0,0,0)
(0,0,0)
(0,0,0)
(0,0,0)
(0,0,0)
(0,0,0)
(0,0,0)
(0,0,0)
(0,0,0)
(0,0,0)
(0,0,0)
(0,0,0)
(0,0,0)
(0,0,0)
(0,0,0)
(0,0,0)
(0,0,0)
(0,0,0)
(0,0,0)
(0,0,0)
(0,0,0)
(0,0,0)
(0,0,0)
(0,0,0)
(0,0,0)
(0,0,0)
(0,0,0)
(0,0,0)
(0,0,0)
(0,0,0)
(0,0,0)
(0,0,0)
(0,0,0)
(0,0,0)
(0,0,0)
(0,0,0)
(0,0,0)
(0,0,0)
(0,0,0)
(0,0,0)
(0,0,0)
(0,0,0)
(0,0,0)
(0,0,0)
(0,0,0)
(0,0,0)
(0,0,0)
(0,0,0)
(0,0,0)
(0,0,0)
(0,0,0)
(0,0,0)
(0,0,0)
(0,0,0)
(0,0,0)
(0,0,0)
(0,0,0)
(0,0,0)
(0,0,0)
(0,0,0)
(0,0,0)
(0,0,0)
(0,0,0)
(0,0,0)
(0,0,0)
(0,0,0)
(0,0,0)
(0,0,0)
(0,0,0)
(0,0,0)
(0,0,0)
(0,0,0)
(0,0,0)
(0,0,0)
(0,0,0)
(0,0,0)
(0,0,0)
(0,0,0)
(0,0,0)
(0,0,0)
(0,0,0)
(0,0,0)
(0,0,0)
(0,0,0)
(0,0,0)
(0,0,0)
(0,0,0)
(0,0,0)
(0,0,0)
(0,0,0)
(0,0,0)
(0,0,0)
(0,0,0)
(0,0,0)
(0,0,0)
(0,0,0)
(0,0,0)
(0,0,0)
(0,0,0)
(0,0,0)
(0,0,0)
(0,0,0)
(0,0,0)
(0,0,0)
(0,0,0)
(0,0,0)
(0,0,0)
(0,0,0)
(0,0,0)
(0,0,0)
(0,0,0)
(0,0,0)
(0,0,0)
(0,0,0)
(0,0,0)
(0,0,0)
(0,0,0)
(0,0,0)
(0,0,0)
(0,0,0)
(0,0,0)
(0,0,0)
(0,0,0)
(0,0,0)
(0,0,0)
(0,0,0)
(0,0,0)
(0,0,0)
(0,0,0)
(0,0,0)
(0,0,0)
(0,0,0)
(0,0,0)
(0,0,0)
(0,0,0)
(0,0,0)
(0,0,0)
(0,0,0)
(0,0,0)
(0,0,0)
(0,0,0)
(0,0,0)
(0,0,0)
(0,0,0)
(0,0,0)
(0,0,0)
(0,0,0)
(0,0,0)
(0,0,0)
(0,0,0)
(0,0,0)
(0,0,0)
(0,0,0)
(0,0,0)
(0,0,0)
(0,0,0)
(0,0,0)
(0,0,0)
(0,0,0)
(0,0,0)
(0,0,0)
(0,0,0)
(0,0,0)
(0,0,0)
(0,0,0)
(0,0,0)
(0,0,0)
(0,0,0)
(0,0,0)
(0,0,0)
(0,0,0)
(0,0,0)
(0,0,0)
(0,0,0)
(0,0,0)
(0,0,0)
(0,0,0)
(0,0,0)
(0,0,0)
(0,0,0)
(0,0,0)
(0,0,0)
(0,0,0)
(0,0,0)
(0,0,0)
(-21116.45706067,11136.3828940336,9980.07416663627)
(-22405.1749374006,10706.2125433672,21679.0365606698)
(-25274.0323559531,9728.07965616923,37224.9892604539)
(-30690.2002843573,8195.40415141869,59719.7853933949)
(-40507.638297932,6185.32315317042,94042.100538162)
(-58105.9174476496,3843.18210234911,148304.835883449)
(-89927.8820068303,1667.09890885395,236565.618981459)
(-147445.337628276,347.307363266458,383663.649246462)
(-243353.453334215,-82.9398579623809,627100.042438694)
(-339214.071904023,-85.1208431917086,966399.235185915)
(0,0,0)
(0,0,0)
(0,0,0)
(0,0,0)
(0,0,0)
(0,0,0)
(-22382.7396624063,24031.3883609758,9487.73419546357)
(-23665.7646711374,23162.1674194583,20697.5439905129)
(-26590.8390502767,21320.4819209416,35695.9807760138)
(-32133.380694585,18386.4931299532,57638.272492068)
(-42212.4142935103,14383.4606446267,91652.5492941199)
(-60219.0978605453,9576.83359218114,146137.995664839)
(-92373.0469629628,4980.38131018347,235197.76022644)
(-149678.877307424,2078.47423374965,383145.470663354)
(-244845.090097545,931.321352347434,626976.299550649)
(-339906.733077805,447.491412180041,966350.420372992)
(0,0,0)
(0,0,0)
(0,0,0)
(0,0,0)
(0,0,0)
(0,0,0)
(-25254.5152711517,40677.6504961212,8608.25313600572)
(-26552.0974626538,39483.4189101806,18839.0991079377)
(-29565.2559486639,36996.9935415755,32727.8434359722)
(-35386.6882264317,32976.0302351974,53524.9945571616)
(-46080.6068235421,27234.6051972951,86754.456828035)
(-65187.2343217896,19999.7741627202,141518.750579286)
(-98439.4691421056,12672.3105011871,232266.29053039)
(-155261.755091204,7657.92736650746,381948.59248881)
(-248462.843334255,4996.33396154918,626346.423213932)
(-341544.758386755,2671.08634247779,965667.586670373)
(0,0,0)
(0,0,0)
(0,0,0)
(0,0,0)
(0,0,0)
(0,0,0)
(-30564.8306657312,63803.5377536609,7438.94340819201)
(-31864.3062304063,62470.7516987286,16315.916850052)
(-34985.7444297767,59658.8493798101,28639.8054415878)
(-41202.4370677876,55095.8674022872,47722.405342281)
(-52929.6215171097,48380.9438217386,79505.6882349502)
(-74150.8272883923,39507.9952282159,134148.294457841)
(-110044.420315236,29676.3979836458,227188.62729063)
(-166047.072106614,21648.9421519825,379244.684611737)
(-255051.371188402,15380.4657233029,623911.924038345)
(-344416.973395073,8265.61072117411,962734.37305482)
(0,0,0)
(0,0,0)
(0,0,0)
(0,0,0)
(0,0,0)
(0,0,0)
(-39998.0933136575,97687.7412200118,6113.88984730553)
(-41292.8104431749,96395.692296346,13481.7596928619)
(-44474.7844482754,93641.2302318634,23974.1632890829)
(-51026.2890275111,89177.3427745841,40918.9769443018)
(-63836.7413512256,82571.4171562879,70565.2449609837)
(-87674.0415561058,73558.4691937495,124188.812551541)
(-127708.567323815,62552.6981873311,219021.079671674)
(-182467.937461612,50318.1014775072,372819.857807787)
(-264602.975972186,36202.2880456986,616601.011457624)
(-348565.983813672,19203.0595401488,954229.546452341)
(0,0,0)
(0,0,0)
(0,0,0)
(0,0,0)
(0,0,0)
(0,0,0)
(-57102.7259891931,149978.293571635,4812.1736375702)
(-58323.7751084484,148806.109231483,10725.5318108807)
(-61371.7748964896,146320.016786932,19418.5201523017)
(-67844.8112163644,142263.676733167,34176.9974100806)
(-80791.6423386701,136118.466027304,61421.5908777341)
(-105068.859891737,127062.528477612,112986.391485616)
(-145214.478386775,114112.239732239,206641.328327508)
(-197504.09623806,95869.097163435,358594.428879621)
(-274961.745498004,70281.1047892395,599477.357634121)
(-353785.534984586,37547.5781965852,934918.373962187)
(0,0,0)
(0,0,0)
(0,0,0)
(0,0,0)
(0,0,0)
(0,0,0)
(-88564.6565973399,234839.007317934,3703.94285104385)
(-89620.011819331,233796.818743241,8333.2451586145)
(-92320.4617896589,231576.832128571,15396.8916066382)
(-98211.5795547539,227915.196970792,27956.9509237702)
(-110240.009278626,222085.682089092,52229.7441406101)
(-133046.008684711,212531.576162399,99806.7051405272)
(-170692.995297122,196437.210637995,188174.729531896)
(-218261.950445374,169448.765989602,332857.011151098)
(-290456.674661882,126902.32195065,566692.468651508)
(-362345.230040381,69198.7104304018,897386.56645812)
(0,0,0)
(0,0,0)
(0,0,0)
(0,0,0)
(0,0,0)
(0,0,0)
(-146088.605108602,378153.182416405,2774.4300101214)
(-146906.390532231,377196.118147667,6281.52113792954)
(-149088.906388624,375103.314588005,11843.9450671285)
(-153859.42282333,371514.884989978,22103.6798712593)
(-163726.337822478,365385.043408192,42530.656374632)
(-182675.811788494,354297.632184291,83440.4121412309)
(-214188.679359936,333169.05166874,160897.250470407)
(-252754.501822358,292984.57566321,290115.942619173)
(-318686.962435401,226814.699444137,508890.527561085)
(-378748.443458723,128634.724376937,828202.957073209)
(0,0,0)
(0,0,0)
(0,0,0)
(0,0,0)
(0,0,0)
(0,0,0)
(-242397.167289986,618645.949474459,1904.40023192201)
(-242942.81484243,617716.342536237,4326.99068579381)
(-244434.397130062,615541.627586142,8323.0748176848)
(-247628.896812952,611544.387656688,15922.4689639331)
(-254142.469449208,604165.088504279,31284.8933170668)
(-266408.157261154,589948.357712718,62042.3250497825)
(-287045.291154855,561812.304401667,120444.363471708)
(-317845.452498312,507485.609448962,223788.782184262)
(-370787.839180759,410785.46966109,410605.851148041)
(-407371.397883653,247110.628269225,699501.345139409)
(0,0,0)
(0,0,0)
(0,0,0)
(0,0,0)
(0,0,0)
(0,0,0)
(-338797.992588564,956468.79816055,975.143902459501)
(-339057.428825361,955526.446496463,2222.46876759432)
(-339794.430040229,953193.661247808,4364.86514618566)
(-341352.153914145,948756.786901413,8504.61981561748)
(-344500.273177095,940281.256150355,16888.7253466539)
(-350407.745426092,923618.999791694,33625.8286937678)
(-360745.748737719,890321.961639232,65861.9201939142)
(-378217.298180619,824715.145540374,126849.682283083)
(-407264.637899583,698195.206271117,246704.583572632)
(-410231.193138028,451852.9679596,452193.437020292)
(0,0,0)
(0,0,0)
(0,0,0)
(0,0,0)
(0,0,0)
(0,0,0)
(0,0,0)
(0,0,0)
(0,0,0)
(0,0,0)
(0,0,0)
(0,0,0)
(0,0,0)
(0,0,0)
(0,0,0)
(0,0,0)
(0,0,0)
(0,0,0)
(0,0,0)
(0,0,0)
(0,0,0)
(0,0,0)
(0,0,0)
(0,0,0)
(0,0,0)
(0,0,0)
(0,0,0)
(0,0,0)
(0,0,0)
(0,0,0)
(0,0,0)
(0,0,0)
(0,0,0)
(0,0,0)
(0,0,0)
(0,0,0)
(0,0,0)
(0,0,0)
(0,0,0)
(0,0,0)
(0,0,0)
(0,0,0)
(0,0,0)
(0,0,0)
(0,0,0)
(0,0,0)
(0,0,0)
(0,0,0)
(0,0,0)
(0,0,0)
(0,0,0)
(0,0,0)
(0,0,0)
(0,0,0)
(0,0,0)
(0,0,0)
(0,0,0)
(0,0,0)
(0,0,0)
(0,0,0)
(0,0,0)
(0,0,0)
(0,0,0)
(0,0,0)
(0,0,0)
(0,0,0)
(0,0,0)
(0,0,0)
(0,0,0)
(0,0,0)
(0,0,0)
(0,0,0)
(0,0,0)
(0,0,0)
(0,0,0)
(0,0,0)
(0,0,0)
(0,0,0)
(0,0,0)
(0,0,0)
(0,0,0)
(0,0,0)
(0,0,0)
(0,0,0)
(0,0,0)
(0,0,0)
(0,0,0)
(0,0,0)
(0,0,0)
(0,0,0)
(0,0,0)
(0,0,0)
(0,0,0)
(0,0,0)
(0,0,0)
(0,0,0)
(0,0,0)
(0,0,0)
(0,0,0)
(0,0,0)
(0,0,0)
(0,0,0)
(3183964.64131432,9917.16794328735,8744.53705136887)
(3181832.56158574,9459.24098414503,18790.3629136895)
(3177058.07556857,8430.50761192715,31770.5507468212)
(3168123.78360012,6783.8167711749,49915.5534607466)
(3152168.9570999,4497.450420641,76484.3110118967)
(3123817.36934219,1723.62166686223,116580.205924724)
(3071943.93721734,-810.452159328386,179261.642229469)
(2969483.45659253,-1904.03397868941,287979.685356897)
(2738424.23080926,-1586.35206902566,531531.156652033)
(2110798.96259287,-799.290801159136,1306060.2163259)
(0,0,0)
(0,0,0)
(0,0,0)
(0,0,0)
(0,0,0)
(0,0,0)
(3181787.39846208,21228.022998312,8261.810190141)
(3179672.3775769,20335.5678988172,17790.1443970858)
(3174841.88088281,18398.9077312812,30131.8277142618)
(3165754.58985856,15195.2471394927,47575.2301623806)
(3149388.38322149,10525.1250126839,73689.5614249731)
(3120275.76656019,4586.77517107635,114074.346869605)
(3067636.4699637,-1133.61977460759,178130.800927939)
(2965588.04938993,-3544.19552565809,288246.839147182)
(2735996.25830457,-2678.54308247567,532240.485128058)
(2109727.24825553,-1189.66294125305,1306739.67930435)
(0,0,0)
(0,0,0)
(0,0,0)
(0,0,0)
(0,0,0)
(0,0,0)
(3176929.09137117,35432.117586759,7355.10213883071)
(3174830.5688904,34205.2996043185,15845.5074499225)
(3169922.39963654,31594.1088193689,26905.454146289)
(3160451.31897429,27169.8871024572,42835.6103522621)
(3142978.72332945,20342.8673667405,67701.3412147556)
(3111506.60795554,10970.150114253,108366.927363863)
(3055862.68095935,999.366333923417,175674.594523501)
(2954787.08518939,-3205.60380125905,289029.965888242)
(2729695.78505202,-1629.7994333802,533565.397222438)
(2107118.24590583,-216.380877080128,1307671.91423535)
(0,0,0)
(0,0,0)
(0,0,0)
(0,0,0)
(0,0,0)
(0,0,0)
(3168109.89526832,54339.1531589827,6161.04186332043)
(3166011.1666774,53012.2698469255,13221.402082586)
(3160994.04211389,50150.6283739831,22427.8993539369)
(3150919.63030714,45239.2936030957,35979.2288480424)
(3131396.05902283,37403.7401333943,58335.4789110332)
(3094590.73446492,25904.6242650015,98402.2463765942)
(3029719.95101778,11955.305727541,171424.739019609)
(2930210.38883106,5178.32397745814,290526.15367284)
(2716985.31340177,5776.32195724815,534826.151061597)
(2102237.2006414,4088.33582761369,1307610.06369012)
(0,0,0)
(0,0,0)
(0,0,0)
(0,0,0)
(0,0,0)
(0,0,0)
(3152660.30111561,80575.7307671428,4847.83133218998)
(3150609.27965225,79366.2828799896,10334.5315732974)
(3145570.95280241,76732.8089581883,17449.4171080669)
(3134970.21724982,72323.1718533331,28111.8359501089)
(3113089.30753834,65555.9091467092,46776.421416859)
(3068298.07535464,56123.5284399182,84328.2037008472)
(2982797.47465626,45022.5053843389,164497.765433598)
(2884731.38522055,35256.5952274622,290962.974871096)
(2697140.54975328,25799.4643943015,532939.11007808)
(2094997.5125345,13940.352792466,1303266.40013473)
(0,0,0)
(0,0,0)
(0,0,0)
(0,0,0)
(0,0,0)
(0,0,0)
(3125029.14375098,118569.685064105,3616.97933245603)
(3123155.10018317,117569.624893198,7677.56539722584)
(3118393.75692315,115415.779959853,12971.8659455646)
(3107998.04798918,111921.928523482,21273.0534395702)
(3085883.27273639,106682.933016026,37213.9178647934)
(3039862.59106595,99121.1238289784,73027.6748876919)
(2953341.18291712,88649.0729691021,154588.249368669)
(2859562.890067,75109.223945496,281411.437715155)
(2680244.71102978,54771.6916982982,520975.55725299)
(2086699.26401083,28973.8987583425,1289200.0156614)
(0,0,0)
(0,0,0)
(0,0,0)
(0,0,0)
(0,0,0)
(0,0,0)
(3073697.36862283,177419.587595282,2630.8756182996)
(3072103.58051745,176632.197036562,5587.5145077613)
(3067931.27120498,174975.654888745,9518.70995388115)
(3058530.99830011,172421.934292754,16018.9296993569)
(3037933.62451762,168720.895007229,29550.1372815182)
(2993981.11190849,163013.522747791,62373.4211391197)
(2910180.96384953,153016.862508391,140874.475822775)
(2825506.90760963,135012.820480489,260944.824602445)
(2655141.82670207,98717.4375901709,495143.380716229)
(2072490.00134397,52811.8269801683,1260213.02447975)
(0,0,0)
(0,0,0)
(0,0,0)
(0,0,0)
(0,0,0)
(0,0,0)
(2971159.48760846,282023.907166725,1890.39108117683)
(2969933.2150834,281373.980966891,4051.80490484578)
(2966620.30027398,280017.414954012,7043.64154655249)
(2959061.39745513,277994.602487881,12292.9564426647)
(2942126.96130577,275193.143702156,23710.2119890407)
(2904891.8281881,270774.080935315,52124.8171945885)
(2831642.88536895,260461.580128259,122591.338215381)
(2776138.70741421,228012.466381185,224441.286447692)
(2604233.34723619,174831.543835604,449149.673900202)
(2039483.32593115,100078.994774515,1207393.54008559)
(0,0,0)
(0,0,0)
(0,0,0)
(0,0,0)
(0,0,0)
(0,0,0)
(2739441.16410083,522640.745509757,1287.63363575794)
(2738626.8951798,522028.946391049,2805.76155902949)
(2736415.7875379,520634.407356957,5081.38785774148)
(2731488.62182578,518265.179452303,9436.09562415068)
(2720892.25010557,514224.601657221,19112.7214839071)
(2699341.6341624,506328.44762817,41551.3667371132)
(2660410.35709386,488436.105827158,89863.9961591453)
(2605297.20749984,447393.883115512,171082.72279632)
(2450045.65522297,374538.14962386,374285.425973967)
(1939101.02904812,244387.571320816,1107247.22586544)
(0,0,0)
(0,0,0)
(0,0,0)
(0,0,0)
(0,0,0)
(0,0,0)
(2111165.57264174,1295755.08556875,664.898080265888)
(2110768.41240508,1295136.89622833,1473.91038215445)
(2109684.85904964,1293593.20437549,2778.62764333253)
(2107326.88940244,1290732.59069456,5374.97645417701)
(2102406.69895197,1285396.50507551,11038.9042764906)
(2092724.78391079,1274600.87119737,23376.7547401027)
(2074724.36693339,1251567.71975413,48517.828511624)
(2040091.6102446,1203401.36799537,97944.2385761689)
(1939212.86253956,1105862.7196722,243884.971458298)
(1576724.69184119,862372.046179202,862687.414990279)
(0,0,0)
(0,0,0)
(0,0,0)
(0,0,0)
(0,0,0)
(0,0,0)
(0,0,0)
(0,0,0)
(0,0,0)
(0,0,0)
(0,0,0)
(0,0,0)
(0,0,0)
(0,0,0)
(0,0,0)
(0,0,0)
(0,0,0)
(0,0,0)
(0,0,0)
(0,0,0)
(0,0,0)
(0,0,0)
(0,0,0)
(0,0,0)
(0,0,0)
(0,0,0)
(0,0,0)
(0,0,0)
(0,0,0)
(0,0,0)
(0,0,0)
(0,0,0)
(0,0,0)
(0,0,0)
(0,0,0)
(0,0,0)
(0,0,0)
(0,0,0)
(0,0,0)
(0,0,0)
(0,0,0)
(0,0,0)
(0,0,0)
(0,0,0)
(0,0,0)
(0,0,0)
(0,0,0)
(0,0,0)
(0,0,0)
(0,0,0)
(0,0,0)
(0,0,0)
(0,0,0)
(0,0,0)
(0,0,0)
(0,0,0)
(0,0,0)
(0,0,0)
(0,0,0)
(0,0,0)
(0,0,0)
(0,0,0)
(0,0,0)
(0,0,0)
(0,0,0)
(0,0,0)
(0,0,0)
(0,0,0)
(0,0,0)
(0,0,0)
(0,0,0)
(0,0,0)
(0,0,0)
(0,0,0)
(0,0,0)
(0,0,0)
(0,0,0)
(0,0,0)
(0,0,0)
(0,0,0)
(0,0,0)
(0,0,0)
(0,0,0)
(0,0,0)
(0,0,0)
(0,0,0)
(0,0,0)
(0,0,0)
(0,0,0)
(0,0,0)
(0,0,0)
(0,0,0)
(0,0,0)
(0,0,0)
(0,0,0)
(0,0,0)
(0,0,0)
(0,0,0)
(0,0,0)
(0,0,0)
(0,0,0)
(0,0,0)
(-54289.2364274518,7866.33131245681,6644.74305967003)
(-56592.3770404838,7354.30003572729,13972.5782805579)
(-61809.8394005783,6278.00166507329,22819.6882150488)
(-71331.3287705422,4469.11398617261,34062.883229964)
(-87591.271307938,1735.32403931489,48344.9842288669)
(-114657.78569629,-1856.75443928892,64934.0903370927)
(-158782.554399528,-5199.66198593716,77117.4405702984)
(-228536.714447774,-5869.010249922,57263.8184909746)
(-328488.353889313,-4069.31515230705,-95497.0850277856)
(-402946.701471663,-1893.8994016426,-803600.324931181)
(0,0,0)
(0,0,0)
(0,0,0)
(0,0,0)
(0,0,0)
(0,0,0)
(-56786.8247121958,16507.2705240467,6190.48059303413)
(-59062.9362397033,15579.8899020328,12957.4011736782)
(-64226.7117252392,13535.2844790773,21025.9075981056)
(-73723.3111251556,9931.13376125752,31298.9854371535)
(-90202.7474123631,4114.30477994438,44768.3319607495)
(-117967.271582795,-4230.26968446937,61642.0819793259)
(-163105.736633861,-12987.7873704677,76429.6105917152)
(-232209.597699238,-14433.4952123129,59048.9392736431)
(-330342.542877691,-9033.47107941048,-93390.9069865152)
(-403629.834222039,-3837.53924710519,-801832.988033138)
(0,0,0)
(0,0,0)
(0,0,0)
(0,0,0)
(0,0,0)
(0,0,0)
(-62257.8398250269,26673.1280901273,5278.27026051584)
(-64448.6569578804,25459.3597688128,10935.2228723684)
(-69494.1826242186,22722.0201438743,17422.2660986682)
(-79052.0418692989,17668.1703954401,25445.7869384141)
(-96370.9756919803,8754.88315211005,36412.1042181289)
(-126987.24087838,-5997.16387460166,52930.0438725626)
(-177657.037975729,-25226.4359102077,74945.6079777618)
(-244951.676379165,-27873.7189345318,64381.7898988104)
(-335954.971175135,-14384.8382677657,-88358.8900552293)
(-405434.778673118,-5121.60455350375,-798264.603539524)
(0,0,0)
(0,0,0)
(0,0,0)
(0,0,0)
(0,0,0)
(0,0,0)
(-71934.0936078892,38894.3832737144,4079.93032302697)
(-74019.310913673,37623.976287129,8202.98802610705)
(-78902.8754243039,34746.9759834856,12332.1463550589)
(-88645.1939626438,29317.8947068946,16504.4429437152)
(-107869.114761911,19113.6878487348,21668.0086622448)
(-146803.36357397,-429.472768488717,33751.6122254106)
(-222723.972640155,-35042.5378671735,72268.8344706777)
(-286513.071333227,-40383.9383149639,77759.7106457796)
(-349959.979166754,-14121.4508798402,-79301.1875431949)
(-409290.602099822,-3173.03516833322,-793464.757556809)
(0,0,0)
(0,0,0)
(0,0,0)
(0,0,0)
(0,0,0)
(0,0,0)
(-88111.8399312517,53110.802019115,2812.91893184029)
(-90019.8137251961,52030.9362591374,5292.24896767649)
(-94619.2111343434,49639.5030903663,6847.08242788765)
(-104353.229620214,45441.0562486072,6304.56438659835)
(-125805.357075735,38430.1988911939,2139.91458858424)
(-180566.742230507,27720.2280591927,-887.772023594858)
(-359263.737265955,15565.2168244873,66822.8818373231)
(-426478.145633078,10059.1634718366,103846.507534494)
(-377217.623099324,8901.22609965981,-68560.799961939)
(-415543.727565773,5641.13455599892,-790576.532955538)
(0,0,0)
(0,0,0)
(0,0,0)
(0,0,0)
(0,0,0)
(0,0,0)
(-114870.420646566,67538.0509001906,1729.51214688089)
(-116498.306461446,66787.1017980107,2883.94988302959)
(-120602.4941886,65182.3080029412,2594.5927125639)
(-129639.668590557,62668.7808096079,-738.218638396104)
(-150460.751097052,58925.1167784169,-8631.91606177429)
(-205003.709802735,53376.0328673313,-13164.2233708669)
(-374794.512477068,45559.5493604365,61234.3361177111)
(-436527.042621173,41066.2440389353,102574.384869203)
(-389771.970419482,29676.6805856268,-71927.1915371619)
(-421755.216332895,14770.171617673,-796344.551624695)
(0,0,0)
(0,0,0)
(0,0,0)
(0,0,0)
(0,0,0)
(0,0,0)
(-158711.613060104,75212.2314698148,991.997743652903)
(-160010.800288244,74788.4437215724,1362.23325617841)
(-163425.093076073,74017.186879596,140.915290920562)
(-171258.110588031,73300.9303767803,-4444.92875772543)
(-190336.560015716,73218.7214691885,-14211.1522847646)
(-243638.813122338,74163.718848386,-21121.716604594)
(-420393.681453535,74670.4552996948,56599.2193896267)
(-477385.434179958,85767.3742570753,91047.6275914166)
(-408884.157286443,47899.3882601621,-86891.8994642077)
(-432070.610591504,19861.2338422488,-811165.153122979)
(0,0,0)
(0,0,0)
(0,0,0)
(0,0,0)
(0,0,0)
(0,0,0)
(-228674.830957365,50714.2331049824,589.513560982197)
(-229629.233763444,50507.3884516326,690.21430814129)
(-232207.105614845,50302.5696961818,-510.565989194941)
(-238305.797678815,50932.2467994484,-4517.49064762199)
(-254040.618476851,54448.4237951089,-13322.4165604842)
(-302806.83065823,65628.6543811056,-20831.4966165096)
(-495269.899209746,89547.3554503986,67461.5844419368)
(-404770.970473496,57419.1989193767,52976.6342977416)
(-424458.886613565,20860.0157046715,-115034.562666541)
(-448182.463997683,-168.178482623231,-831082.163782371)
(0,0,0)
(0,0,0)
(0,0,0)
(0,0,0)
(0,0,0)
(0,0,0)
(-329050.162563655,-104939.2752767,402.031676562596)
(-329656.59310152,-105100.427891761,550.532931608013)
(-331297.628900981,-105322.530382719,146.246079760402)
(-335027.63892544,-105094.051445448,-1053.9982936991)
(-343674.006786524,-103490.434500336,-2291.68647576387)
(-364294.534078157,-99602.2625645343,2832.59534079145)
(-409360.055091259,-96629.3552924127,35036.9148990747)
(-424898.403005599,-117270.169076209,16179.0900304511)
(-464570.3913719,-135868.716675608,-136218.934364053)
(-472278.863892622,-117745.33410653,-831004.689168949)
(0,0,0)
(0,0,0)
(0,0,0)
(0,0,0)
(0,0,0)
(0,0,0)
(-403481.210869123,-814264.286117854,228.990982438487)
(-403770.741174636,-814445.482425648,370.395726383257)
(-404564.539080537,-814855.51485433,409.974958621013)
(-406286.453778666,-815317.694445197,504.157769815339)
(-409989.512741649,-815753.671554511,1420.80314799683)
(-417760.685986192,-816932.04629122,5493.25340202925)
(-432170.515748843,-822023.109533951,14039.0869562377)
(-448496.018093809,-835628.480158502,-2757.77699271008)
(-472364.609265517,-832429.786803717,-118362.038429127)
(-456018.913984868,-713692.883866037,-713413.686213127)
(0,0,0)
(0,0,0)
(0,0,0)
(0,0,0)
(0,0,0)
(0,0,0)
(0,0,0)
(0,0,0)
(0,0,0)
(0,0,0)
(0,0,0)
(0,0,0)
(0,0,0)
(0,0,0)
(0,0,0)
(0,0,0)
(0,0,0)
(0,0,0)
(0,0,0)
(0,0,0)
(0,0,0)
(0,0,0)
(0,0,0)
(0,0,0)
(0,0,0)
(0,0,0)
(0,0,0)
(0,0,0)
(0,0,0)
(0,0,0)
(0,0,0)
(0,0,0)
(0,0,0)
(0,0,0)
(0,0,0)
(0,0,0)
(0,0,0)
(0,0,0)
(0,0,0)
(0,0,0)
(0,0,0)
(0,0,0)
(0,0,0)
(0,0,0)
(0,0,0)
(0,0,0)
(0,0,0)
(0,0,0)
(0,0,0)
(0,0,0)
(0,0,0)
(0,0,0)
(0,0,0)
(0,0,0)
(0,0,0)
(0,0,0)
(0,0,0)
(0,0,0)
(0,0,0)
(0,0,0)
(0,0,0)
(0,0,0)
(0,0,0)
(0,0,0)
(0,0,0)
(0,0,0)
(0,0,0)
(0,0,0)
(0,0,0)
(0,0,0)
(0,0,0)
(0,0,0)
(0,0,0)
(0,0,0)
(0,0,0)
(0,0,0)
(0,0,0)
(0,0,0)
(0,0,0)
(0,0,0)
(0,0,0)
(0,0,0)
(0,0,0)
(0,0,0)
(0,0,0)
(0,0,0)
(0,0,0)
(0,0,0)
(0,0,0)
(0,0,0)
(0,0,0)
(0,0,0)
(0,0,0)
(0,0,0)
(0,0,0)
(0,0,0)
(0,0,0)
(0,0,0)
(0,0,0)
(0,0,0)
(0,0,0)
(0,0,0)
(-64130.2772542044,5509.03054719371,4332.01027955973)
(-66077.8718011326,5023.99048750261,8793.51455270573)
(-70434.840027217,3996.43208172823,13422.0830976184)
(-78028.8545044284,2161.73820061475,17957.8706308874)
(-90262.9404546101,-859.563585943288,21489.1033635056)
(-109003.235869785,-5205.87323339285,21040.4267703962)
(-135819.898054743,-9582.91307813958,7660.68350375352)
(-168962.926407571,-9594.37610089845,-42318.7284355509)
(-195497.852557738,-5948.05776840998,-169361.171998708)
(-170014.245785458,-2551.64419078644,-399741.98349414)
(0,0,0)
(0,0,0)
(0,0,0)
(0,0,0)
(0,0,0)
(0,0,0)
(-66395.7160845371,11174.4021952463,3943.51972428931)
(-68262.832180482,10314.0707524644,7853.33540010201)
(-72361.6843839018,8349.9097252812,11634.8304152119)
(-79533.7548680002,4632.56108712082,14974.4512715483)
(-91206.9688349087,-2071.87233456212,17190.9814427129)
(-109400.188922477,-13292.2549297662,16710.2804787751)
(-136050.79700518,-27571.9329554748,7644.36072743606)
(-168221.278600251,-27228.5537784663,-38709.7806939766)
(-194252.818979983,-14689.5788326592,-166057.983527438)
(-169258.148354006,-5669.86980122257,-397311.443785063)
(0,0,0)
(0,0,0)
(0,0,0)
(0,0,0)
(0,0,0)
(0,0,0)
(-71272.3928009294,17071.2361382293,3117.7190329223)
(-72922.382853277,15974.7988160891,5930.71686469058)
(-76532.5234407039,13373.1074974872,7945.85990896724)
(-82878.481987772,8112.71069585532,8292.15041870805)
(-93404.6959953106,-2741.65993522948,5995.65832270329)
(-110908.85288654,-25862.1827877966,2487.19818888425)
(-140361.667945336,-70361.9145335359,7981.80973655889)
(-168488.465577209,-69489.338440872,-26220.6164029968)
(-191241.389677545,-28419.5945356043,-157204.182197648)
(-167374.621446354,-9004.97540337954,-391929.233822277)
(0,0,0)
(0,0,0)
(0,0,0)
(0,0,0)
(0,0,0)
(0,0,0)
(-79621.0426714828,22735.0703710898,2023.11483073708)
(-80965.7660550428,21620.2866084994,3324.08217969956)
(-83869.5854136705,19010.6424394658,2653.25722708977)
(-88898.4098189212,13587.8139348112,-2568.63015558976)
(-97195.7382878147,1120.94914633558,-17104.6157112463)
(-113526.174827024,-34295.3343005354,-41948.6529454602)
(-172133.000886433,-171745.888419129,8844.34918640415)
(-181432.718162764,-180477.656007717,14752.3135827905)
(-184151.907118959,-41458.6284735325,-138016.724527077)
(-163524.024802933,-9479.60917612853,-383308.668051206)
(0,0,0)
(0,0,0)
(0,0,0)
(0,0,0)
(0,0,0)
(0,0,0)
(-92761.7811308581,26446.1455786625,938.865992034546)
(-93757.1221178665,25590.9517176658,705.509275538159)
(-95778.8323543137,23688.2376004943,-2812.46466551872)
(-98763.6567670967,20188.6125959514,-15002.8361797749)
(-100995.286529902,13781.2011009318,-52473.1586802059)
(-91223.8577040718,3261.13068077867,-179372.508187956)
(-5.01049028903461e-05,-1.41691913097272e-05,3.36062292138769e-05)