/*--------------------------------*- C++ -*----------------------------------*\
| =========                 |                                                 |
| \\      /  F ield         | foam-extend: Open Source CFD                    |
|  \\    /   O peration     | Version:     4.0                                |
|   \\  /    A nd           | Web:         http://www.foam-extend.org         |
|    \\/     M anipulation  |                                                 |
\*---------------------------------------------------------------------------*/
FoamFile
{
    version 2.0;
    format ascii;
    class volVectorField;
    location "2639";
    object      E;
}
// * * * * * * * * * * * * * * * * * * * * * * * * * * * * * * * * * * * * * //

dimensions      [0 1 -1 0 0 0 0];

internalField   nonuniform List<vector>
4096
(
(0,0,0)
(0,0,0)
(0,0,0)
(0,0,0)
(0,0,0)
(0,0,0)
(0,0,0)
(0,0,0)
(0,0,0)
(0,0,0)
(0,0,0)
(0,0,0)
(0,0,0)
(0,0,0)
(0,0,0)
(0,0,0)
(0,0,0)
(0,0,0)
(0,0,0)
(0,0,0)
(0,0,0)
(0,0,0)
(0,0,0)
(0,0,0)
(0,0,0)
(0,0,0)
(0,0,0)
(0,0,0)
(0,0,0)
(0,0,0)
(0,0,0)
(0,0,0)
(0,0,0)
(0,0,0)
(0,0,0)
(0,0,0)
(0,0,0)
(0,0,0)
(0,0,0)
(0,0,0)
(0,0,0)
(0,0,0)
(0,0,0)
(0,0,0)
(0,0,0)
(0,0,0)
(0,0,0)
(0,0,0)
(0,0,0)
(0,0,0)
(0,0,0)
(0,0,0)
(0,0,0)
(0,0,0)
(0,0,0)
(0,0,0)
(0,0,0)
(0,0,0)
(0,0,0)
(0,0,0)
(0,0,0)
(0,0,0)
(0,0,0)
(0,0,0)
(0,0,0)
(0,0,0)
(0,0,0)
(0,0,0)
(0,0,0)
(0,0,0)
(0,0,0)
(0,0,0)
(0,0,0)
(0,0,0)
(0,0,0)
(0,0,0)
(0,0,0)
(0,0,0)
(0,0,0)
(0,0,0)
(0,0,0)
(0,0,0)
(0,0,0)
(0,0,0)
(0,0,0)
(0,0,0)
(0,0,0)
(0,0,0)
(0,0,0)
(0,0,0)
(0,0,0)
(0,0,0)
(0,0,0)
(0,0,0)
(0,0,0)
(0,0,0)
(0,0,0)
(0,0,0)
(0,0,0)
(0,0,0)
(0,0,0)
(0,0,0)
(0,0,0)
(0,0,0)
(0,0,0)
(0,0,0)
(0,0,0)
(0,0,0)
(0,0,0)
(0,0,0)
(0,0,0)
(0,0,0)
(0,0,0)
(0,0,0)
(0,0,0)
(0,0,0)
(0,0,0)
(0,0,0)
(0,0,0)
(0,0,0)
(0,0,0)
(0,0,0)
(0,0,0)
(0,0,0)
(0,0,0)
(0,0,0)
(0,0,0)
(0,0,0)
(0,0,0)
(0,0,0)
(0,0,0)
(0,0,0)
(0,0,0)
(0,0,0)
(0,0,0)
(0,0,0)
(0,0,0)
(0,0,0)
(0,0,0)
(0,0,0)
(0,0,0)
(0,0,0)
(0,0,0)
(0,0,0)
(0,0,0)
(0,0,0)
(0,0,0)
(0,0,0)
(0,0,0)
(0,0,0)
(0,0,0)
(0,0,0)
(0,0,0)
(0,0,0)
(0,0,0)
(0,0,0)
(0,0,0)
(0,0,0)
(0,0,0)
(0,0,0)
(0,0,0)
(0,0,0)
(0,0,0)
(0,0,0)
(0,0,0)
(0,0,0)
(0,0,0)
(0,0,0)
(0,0,0)
(0,0,0)
(0,0,0)
(0,0,0)
(0,0,0)
(0,0,0)
(0,0,0)
(0,0,0)
(0,0,0)
(0,0,0)
(0,0,0)
(0,0,0)
(0,0,0)
(0,0,0)
(0,0,0)
(0,0,0)
(0,0,0)
(0,0,0)
(0,0,0)
(0,0,0)
(0,0,0)
(0,0,0)
(0,0,0)
(0,0,0)
(0,0,0)
(0,0,0)
(0,0,0)
(0,0,0)
(0,0,0)
(0,0,0)
(0,0,0)
(0,0,0)
(0,0,0)
(0,0,0)
(0,0,0)
(0,0,0)
(0,0,0)
(0,0,0)
(0,0,0)
(0,0,0)
(0,0,0)
(0,0,0)
(0,0,0)
(0,0,0)
(0,0,0)
(0,0,0)
(0,0,0)
(0,0,0)
(0,0,0)
(0,0,0)
(0,0,0)
(0,0,0)
(0,0,0)
(0,0,0)
(0,0,0)
(0,0,0)
(0,0,0)
(0,0,0)
(0,0,0)
(0,0,0)
(0,0,0)
(0,0,0)
(0,0,0)
(0,0,0)
(0,0,0)
(0,0,0)
(0,0,0)
(0,0,0)
(0,0,0)
(0,0,0)
(0,0,0)
(0,0,0)
(0,0,0)
(0,0,0)
(0,0,0)
(0,0,0)
(0,0,0)
(0,0,0)
(0,0,0)
(0,0,0)
(0,0,0)
(0,0,0)
(0,0,0)
(0,0,0)
(0,0,0)
(0,0,0)
(0,0,0)
(0,0,0)
(0,0,0)
(0,0,0)
(0,0,0)
(0,0,0)
(0,0,0)
(0,0,0)
(0,0,0)
(0,0,0)
(0,0,0)
(0,0,0)
(0,0,0)
(0,0,0)
(0,0,0)
(0,0,0)
(0,0,0)
(0,0,0)
(0,0,0)
(0,0,0)
(0,0,0)
(0,0,0)
(0,0,0)
(0,0,0)
(0,0,0)
(0,0,0)
(0,0,0)
(0,0,0)
(0,0,0)
(0,0,0)
(0,0,0)
(0,0,0)
(0,0,0)
(0,0,0)
(0,0,0)
(0,0,0)
(0,0,0)
(0,0,0)
(0,0,0)
(0,0,0)
(0,0,0)
(0,0,0)
(0,0,0)
(0,0,0)
(0,0,0)
(0,0,0)
(0,0,0)
(0,0,0)
(0,0,0)
(0,0,0)
(0,0,0)
(0,0,0)
(0,0,0)
(0,0,0)
(0,0,0)
(0,0,0)
(0,0,0)
(0,0,0)
(0,0,0)
(0,0,0)
(0,0,0)
(0,0,0)
(0,0,0)
(0,0,0)
(0,0,0)
(0,0,0)
(0,0,0)
(0,0,0)
(0,0,0)
(0,0,0)
(0,0,0)
(0,0,0)
(0,0,0)
(0,0,0)
(0,0,0)
(0,0,0)
(0,0,0)
(0,0,0)
(0,0,0)
(0,0,0)
(0,0,0)
(0,0,0)
(0,0,0)
(0,0,0)
(0,0,0)
(0,0,0)
(0,0,0)
(0,0,0)
(0,0,0)
(0,0,0)
(0,0,0)
(0,0,0)
(0,0,0)
(0,0,0)
(0,0,0)
(0,0,0)
(0,0,0)
(0,0,0)
(0,0,0)
(0,0,0)
(0,0,0)
(0,0,0)
(0,0,0)
(0,0,0)
(0,0,0)
(0,0,0)
(0,0,0)
(0,0,0)
(0,0,0)
(0,0,0)
(0,0,0)
(0,0,0)
(0,0,0)
(0,0,0)
(0,0,0)
(0,0,0)
(0,0,0)
(0,0,0)
(0,0,0)
(0,0,0)
(0,0,0)
(0,0,0)
(0,0,0)
(0,0,0)
(0,0,0)
(0,0,0)
(0,0,0)
(0,0,0)
(0,0,0)
(0,0,0)
(0,0,0)
(0,0,0)
(0,0,0)
(0,0,0)
(0,0,0)
(0,0,0)
(0,0,0)
(0,0,0)
(0,0,0)
(0,0,0)
(0,0,0)
(0,0,0)
(0,0,0)
(0,0,0)
(0,0,0)
(0,0,0)
(0,0,0)
(0,0,0)
(0,0,0)
(0,0,0)
(0,0,0)
(0,0,0)
(0,0,0)
(0,0,0)
(0,0,0)
(0,0,0)
(0,0,0)
(0,0,0)
(0,0,0)
(0,0,0)
(0,0,0)
(0,0,0)
(0,0,0)
(0,0,0)
(0,0,0)
(0,0,0)
(0,0,0)
(0,0,0)
(0,0,0)
(0,0,0)
(0,0,0)
(0,0,0)
(0,0,0)
(0,0,0)
(0,0,0)
(0,0,0)
(0,0,0)
(0,0,0)
(0,0,0)
(0,0,0)
(0,0,0)
(0,0,0)
(0,0,0)
(0,0,0)
(0,0,0)
(0,0,0)
(0,0,0)
(0,0,0)
(0,0,0)
(0,0,0)
(0,0,0)
(0,0,0)
(0,0,0)
(0,0,0)
(0,0,0)
(0,0,0)
(0,0,0)
(0,0,0)
(0,0,0)
(0,0,0)
(0,0,0)
(0,0,0)
(0,0,0)
(0,0,0)
(0,0,0)
(0,0,0)
(0,0,0)
(0,0,0)
(0,0,0)
(0,0,0)
(0,0,0)
(0,0,0)
(0,0,0)
(0,0,0)
(0,0,0)
(0,0,0)
(0,0,0)
(0,0,0)
(0,0,0)
(0,0,0)
(0,0,0)
(0,0,0)
(0,0,0)
(0,0,0)
(0,0,0)
(0,0,0)
(0,0,0)
(0,0,0)
(0,0,0)
(0,0,0)
(0,0,0)
(0,0,0)
(0,0,0)
(0,0,0)
(0,0,0)
(0,0,0)
(0,0,0)
(0,0,0)
(0,0,0)
(0,0,0)
(0,0,0)
(0,0,0)
(0,0,0)
(0,0,0)
(0,0,0)
(0,0,0)
(0,0,0)
(0,0,0)
(0,0,0)
(0,0,0)
(0,0,0)
(0,0,0)
(0,0,0)
(0,0,0)
(0,0,0)
(0,0,0)
(0,0,0)
(0,0,0)
(0,0,0)
(0,0,0)
(0,0,0)
(0,0,0)
(0,0,0)
(0,0,0)
(0,0,0)
(0,0,0)
(0,0,0)
(0,0,0)
(0,0,0)
(0,0,0)
(0,0,0)
(0,0,0)
(0,0,0)
(0,0,0)
(0,0,0)
(0,0,0)
(0,0,0)
(0,0,0)
(0,0,0)
(0,0,0)
(0,0,0)
(0,0,0)
(0,0,0)
(0,0,0)
(0,0,0)
(0,0,0)
(0,0,0)
(0,0,0)
(0,0,0)
(0,0,0)
(0,0,0)
(0,0,0)
(0,0,0)
(0,0,0)
(0,0,0)
(0,0,0)
(0,0,0)
(0,0,0)
(0,0,0)
(0,0,0)
(0,0,0)
(0,0,0)
(0,0,0)
(0,0,0)
(0,0,0)
(0,0,0)
(0,0,0)
(0,0,0)
(0,0,0)
(0,0,0)
(0,0,0)
(0,0,0)
(0,0,0)
(0,0,0)
(0,0,0)
(0,0,0)
(0,0,0)
(0,0,0)
(0,0,0)
(0,0,0)
(0,0,0)
(0,0,0)
(0,0,0)
(0,0,0)
(0,0,0)
(0,0,0)
(0,0,0)
(0,0,0)
(0,0,0)
(0,0,0)
(0,0,0)
(0,0,0)
(0,0,0)
(0,0,0)
(0,0,0)
(0,0,0)
(0,0,0)
(0,0,0)
(0,0,0)
(0,0,0)
(0,0,0)
(0,0,0)
(0,0,0)
(0,0,0)
(0,0,0)
(0,0,0)
(0,0,0)
(0,0,0)
(0,0,0)
(0,0,0)
(0,0,0)
(0,0,0)
(0,0,0)
(0,0,0)
(0,0,0)
(0,0,0)
(0,0,0)
(0,0,0)
(0,0,0)
(0,0,0)
(0,0,0)
(0,0,0)
(0,0,0)
(0,0,0)
(0,0,0)
(0,0,0)
(0,0,0)
(0,0,0)
(0,0,0)
(0,0,0)
(0,0,0)
(0,0,0)
(0,0,0)
(0,0,0)
(0,0,0)
(0,0,0)
(0,0,0)
(0,0,0)
(0,0,0)
(0,0,0)
(0,0,0)
(0,0,0)
(0,0,0)
(0,0,0)
(0,0,0)
(0,0,0)
(0,0,0)
(0,0,0)
(0,0,0)
(0,0,0)
(0,0,0)
(0,0,0)
(0,0,0)
(0,0,0)
(0,0,0)
(0,0,0)
(0,0,0)
(0,0,0)
(0,0,0)
(0,0,0)
(0,0,0)
(0,0,0)
(0,0,0)
(0,0,0)
(0,0,0)
(0,0,0)
(0,0,0)
(0,0,0)
(0,0,0)
(0,0,0)
(0,0,0)
(0,0,0)
(0,0,0)
(0,0,0)
(0,0,0)
(0,0,0)
(0,0,0)
(0,0,0)
(0,0,0)
(0,0,0)
(0,0,0)
(0,0,0)
(0,0,0)
(0,0,0)
(0,0,0)
(0,0,0)
(0,0,0)
(0,0,0)
(0,0,0)
(0,0,0)
(0,0,0)
(0,0,0)
(0,0,0)
(0,0,0)
(0,0,0)
(0,0,0)
(0,0,0)
(0,0,0)
(0,0,0)
(0,0,0)
(0,0,0)
(0,0,0)
(0,0,0)
(0,0,0)
(0,0,0)
(0,0,0)
(0,0,0)
(0,0,0)
(0,0,0)
(0,0,0)
(0,0,0)
(0,0,0)
(0,0,0)
(0,0,0)
(0,0,0)
(0,0,0)
(0,0,0)
(0,0,0)
(0,0,0)
(0,0,0)
(0,0,0)
(0,0,0)
(0,0,0)
(0,0,0)
(0,0,0)
(0,0,0)
(0,0,0)
(0,0,0)
(0,0,0)
(0,0,0)
(0,0,0)
(0,0,0)
(0,0,0)
(0,0,0)
(0,0,0)
(0,0,0)
(0,0,0)
(0,0,0)
(0,0,0)
(0,0,0)
(0,0,0)
(0,0,0)
(0,0,0)
(0,0,0)
(0,0,0)
(0,0,0)
(0,0,0)
(0,0,0)
(0,0,0)
(0,0,0)
(0,0,0)
(0,0,0)
(0,0,0)
(0,0,0)
(0,0,0)
(0,0,0)
(0,0,0)
(0,0,0)
(0,0,0)
(0,0,0)
(0,0,0)
(0,0,0)
(0,0,0)
(0,0,0)
(0,0,0)
(0,0,0)
(0,0,0)
(0,0,0)
(0,0,0)
(0,0,0)
(0,0,0)
(0,0,0)
(0,0,0)
(0,0,0)
(0,0,0)
(0,0,0)
(0,0,0)
(0,0,0)
(0,0,0)
(0,0,0)
(0,0,0)
(0,0,0)
(0,0,0)
(0,0,0)
(0,0,0)
(0,0,0)
(0,0,0)
(0,0,0)
(0,0,0)
(0,0,0)
(0,0,0)
(0,0,0)
(0,0,0)
(0,0,0)
(0,0,0)
(0,0,0)
(0,0,0)
(0,0,0)
(0,0,0)
(0,0,0)
(0,0,0)
(0,0,0)
(0,0,0)
(0,0,0)
(0,0,0)
(0,0,0)
(0,0,0)
(0,0,0)
(0,0,0)
(0,0,0)
(0,0,0)
(0,0,0)
(0,0,0)
(0,0,0)
(0,0,0)
(0,0,0)
(0,0,0)
(0,0,0)
(0,0,0)
(0,0,0)
(0,0,0)
(0,0,0)
(0,0,0)
(0,0,0)
(0,0,0)
(-217373.904600352,115589.769878026,101784.134722325)
(-229879.450017376,110848.188899895,220815.395839807)
(-258775.681679237,100931.442558081,378659.634960962)
(-313416.187145881,85313.693522722,606762.128584131)
(-412024.242244728,64294.3103876629,954492.060441199)
(-589071.582434407,40125.0277751101,1503438.61510049)
(-909600.14137783,18137.3364364334,2394901.42004192)
(-1488871.94586337,4613.42883142416,3879159.93707389)
(-2455552.43250985,58.3689081261155,6334654.00067559)
(-3421334.4498372,-332.187459552786,9756320.6379724)
(0,0,0)
(0,0,0)
(0,0,0)
(0,0,0)
(0,0,0)
(0,0,0)
(-229878.936682399,248444.292454386,97024.4141060375)
(-242478.862628261,239479.102183943,210872.363450254)
(-271834.612837887,220592.896454248,363045.522391971)
(-327769.70773477,190438.020874705,585690.902774762)
(-429122.294494739,148832.575665309,930274.931991847)
(-610423.359836769,99393.5859561327,1481429.73364759)
(-934501.14096192,52626.6547606448,2381441.55628529)
(-1511591.85130933,22931.935241429,3874714.90118455)
(-2470697.15647604,11203.7973215745,6334266.62924719)
(-3428398.46239046,5716.74122726588,9756616.16295076)
(0,0,0)
(0,0,0)
(0,0,0)
(0,0,0)
(0,0,0)
(0,0,0)
(-258499.288780437,418899.40694828,88044.1742865428)
(-271321.5895543,406830.198789658,192014.66723513)
(-301604.025122156,381217.566220939,332994.022590601)
(-360324.200413993,339629.745038797,544126.498840504)
(-468162.077967379,280369.678425315,880751.474047867)
(-660706.394953871,206330.252021763,1434521.20293611)
(-995949.624835996,131378.347876896,2351719.13465586)
(-1568199.16036624,79842.6798648658,3863007.55039862)
(-2507168.53299451,52612.7513542722,6328767.12936049)
(-3444914.79949019,28531.0883587503,9750867.58171921)
(0,0,0)
(0,0,0)
(0,0,0)
(0,0,0)
(0,0,0)
(0,0,0)
(-311838.981601438,654756.127878014,75982.2606717047)
(-324900.671964381,641276.773154087,166436.358271658)
(-356361.785324952,612557.481626168,291458.228191372)
(-419120.413446942,565324.686864685,484883.699812418)
(-537636.843177439,496195.12717599,806695.09423919)
(-751771.926478536,405272.390982432,1359524.88175706)
(-1113643.53707731,304340.029966415,2300206.73674484)
(-1677682.71707507,221927.169342162,3835804.96434258)
(-2573967.73554461,157692.11926397,6304693.33197744)
(-3474065.64169894,84865.3334711107,9722424.72856418)
(0,0,0)
(0,0,0)
(0,0,0)
(0,0,0)
(0,0,0)
(0,0,0)
(-407477.407901891,999669.487720673,62564.0480592271)
(-420500.026160614,986575.154997222,137765.692376704)
(-452582.471156431,958615.150357457,244290.494801847)
(-518737.696826197,912550.384317852,415802.494174877)
(-648291.664212213,844392.29542228,715896.990140798)
(-889182.121836634,751664.754591396,1258686.74836845)
(-1292927.84177877,638077.908611904,2217876.71150172)
(-1844371.21272356,512518.243013845,3771656.85055363)
(-2671028.20563156,368432.542057194,6231944.63339207)
(-3516196.54056443,195311.693388883,9637694.8140387)
(0,0,0)
(0,0,0)
(0,0,0)
(0,0,0)
(0,0,0)
(0,0,0)
(-580140.427987002,1530334.59710774,49475.3185999395)
(-592508.85786346,1518664.77807264,109894.553387973)
(-623547.604784111,1493735.05468864,198322.253840902)
(-689059.149340577,1452257.34029501,347674.447204309)
(-819988.373124764,1388740.14581823,623314.969933129)
(-1065466.41846246,1295210.81736731,1145235.32561969)
(-1470462.05512754,1161351.50074502,2092423.78861411)
(-1996886.10915007,974171.683456645,3627656.45732139)
(-2776187.01672703,713341.091137551,6058934.92496812)
(-3569205.17843754,380836.160154216,9442615.63664023)
(0,0,0)
(0,0,0)
(0,0,0)
(0,0,0)
(0,0,0)
(0,0,0)
(-897102.341257257,2389631.97066644,37804.9676985555)
(-908068.121386111,2379528.92577532,85008.9413819951)
(-935944.443891249,2357784.77296168,156903.667000212)
(-995781.825964518,2320710.26977799,284232.563481759)
(-1117395.48275483,2260503.37715067,529864.814904149)
(-1348062.11487097,2161706.10182801,1011431.64531442)
(-1728170.47866776,1995626.5801331,1905327.04459411)
(-2206842.76328182,1719408.47288204,3366933.01845053)
(-2932852.25699363,1286526.48720622,5726599.87937544)
(-3655607.08640829,700972.652907533,9062070.47303052)
(0,0,0)
(0,0,0)
(0,0,0)
(0,0,0)
(0,0,0)
(0,0,0)
(-1476719.39492263,3838666.17578607,27685.1898030015)
(-1485498.49292823,3829447.07596804,63265.5325385165)
(-1507977.56254707,3809193.68994604,119834.178101236)
(-1556644.09719541,3773077.54406814,224111.001006477)
(-1656596.24197477,3710056.18212129,431154.438010621)
(-1848360.50543646,3595755.68488117,845465.360393911)
(-2166691.83074221,3378594.88949434,1629188.88177485)
(-2554194.37682832,2968566.91407486,2934224.81741038)
(-3217227.07587694,2296632.12662106,5141346.25387248)
(-3820830.42933351,1301746.67946929,8361402.65664418)
(0,0,0)
(0,0,0)
(0,0,0)
(0,0,0)
(0,0,0)
(0,0,0)
(-2447324.84333502,6267484.6739533,18506.3451677614)
(-2453297.62719995,6258172.27625569,43078.7720800708)
(-2468568.675641,6237031.22181395,83809.9158531081)
(-2501321.49096046,6197004.5414439,161204.409437793)
(-2567351.14602156,6121708.79008661,316902.947494038)
(-2691441.99070796,5975647.05767284,628453.565410329)
(-2899811.38271072,5687563.92053646,1219295.91707895)
(-3209338.13793034,5134735.25229049,2262465.71679369)
(-3741700.93175976,4154063.18084013,4146735.59433428)
(-4109007.18169986,2497592.51257136,7059896.94293208)
(0,0,0)
(0,0,0)
(0,0,0)
(0,0,0)
(0,0,0)
(0,0,0)
(-3417600.46173538,9675679.08237415,9406.05331454181)
(-3420582.06259525,9665958.0795144,22202.3126510869)
(-3428163.44531124,9643412.627418,43984.3523583295)
(-3444258.70614032,9599215.06130186,86032.5386407293)
(-3476221.52182594,9513056.4285767,170906.421976609)
(-3535976.27702818,9342104.61781585,340425.138861751)
(-3640251.21096765,9001763.03801876,666477.232347073)
(-3815934.75628649,8335319.20958457,1281828.03133944)
(-4108062.84440104,7053473.57453647,2490480.48204408)
(-4137191.9258504,4562757.45216933,4562507.46829655)
(0,0,0)
(0,0,0)
(0,0,0)
(0,0,0)
(0,0,0)
(0,0,0)
(0,0,0)
(0,0,0)
(0,0,0)
(0,0,0)
(0,0,0)
(0,0,0)
(0,0,0)
(0,0,0)
(0,0,0)
(0,0,0)
(0,0,0)
(0,0,0)
(0,0,0)
(0,0,0)
(0,0,0)
(0,0,0)
(0,0,0)
(0,0,0)
(0,0,0)
(0,0,0)
(0,0,0)
(0,0,0)
(0,0,0)
(0,0,0)
(0,0,0)
(0,0,0)
(0,0,0)
(0,0,0)
(0,0,0)
(0,0,0)
(0,0,0)
(0,0,0)
(0,0,0)
(0,0,0)
(0,0,0)
(0,0,0)
(0,0,0)
(0,0,0)
(0,0,0)
(0,0,0)
(0,0,0)
(0,0,0)
(0,0,0)
(0,0,0)
(0,0,0)
(0,0,0)
(0,0,0)
(0,0,0)
(0,0,0)
(0,0,0)
(0,0,0)
(0,0,0)
(0,0,0)
(0,0,0)
(0,0,0)
(0,0,0)
(0,0,0)
(0,0,0)
(0,0,0)
(0,0,0)
(0,0,0)
(0,0,0)
(0,0,0)
(0,0,0)
(0,0,0)
(0,0,0)
(0,0,0)
(0,0,0)
(0,0,0)
(0,0,0)
(0,0,0)
(0,0,0)
(0,0,0)
(0,0,0)
(0,0,0)
(0,0,0)
(0,0,0)
(0,0,0)
(0,0,0)
(0,0,0)
(0,0,0)
(0,0,0)
(0,0,0)
(0,0,0)
(0,0,0)
(0,0,0)
(0,0,0)
(0,0,0)
(0,0,0)
(0,0,0)
(0,0,0)
(0,0,0)
(0,0,0)
(0,0,0)
(0,0,0)
(0,0,0)
(32085235.6611593,103072.402634969,89245.9788881485)
(32064295.922852,98195.0931970704,191803.46010456)
(32016261.9931369,87822.0096180572,323871.722953013)
(31926435.9873499,70946.2835861759,508001.21215376)
(31766432.085987,47185.2251132039,777287.606091574)
(31481741.1867305,18748.0062838867,1182654.77792544)
(30959461.1827422,-6774.15592182411,1815295.55700986)
(29927291.9369234,-18078.1339115161,2912137.75541733)
(27598102.9011842,-15058.6488281763,5368469.01783423)
(21272367.7801494,-7407.69091982164,13177102.4260502)
(0,0,0)
(0,0,0)
(0,0,0)
(0,0,0)
(0,0,0)
(0,0,0)
(32063928.560497,219804.784482038,84388.0682562565)
(32042994.7417551,210610.519437364,181426.984915438)
(31994546.8898758,190793.420882087,307002.018220458)
(31903012.3707634,157871.35161326,484222.818978009)
(31738598.4298156,109791.975954715,748823.291108947)
(31445887.7306141,49098.9596548499,1157089.19456989)
(30915563.0196909,-8829.82644055086,1804008.65171867)
(29887664.1197658,-33637.3131186579,2915239.80713343)
(27573482.1067649,-25215.3544110071,5376145.19675801)
(21261605.5283077,-10793.5246188397,13184454.9870415)
(0,0,0)
(0,0,0)
(0,0,0)
(0,0,0)
(0,0,0)
(0,0,0)
(32015553.8791087,365481.044665726,75198.5192098014)
(31994561.2067299,353215.118572917,161639.071072747)
(31945171.6149976,326433.45534433,274151.343773585)
(31849636.5685964,280801.402123865,436188.471535402)
(31673803.8904633,210848.139165944,688094.287176246)
(31357095.6020069,115231.012593142,1099088.18456)
(30796376.0845787,13665.4630442933,1779195.1329432)
(29778219.8406166,-29621.8420239587,2923688.60814855)
(27509802.9426065,-14157.7221291577,5390587.44754839)
(21235189.5737878,-602.78791018429,13195220.2848446)
(0,0,0)
(0,0,0)
(0,0,0)
(0,0,0)
(0,0,0)
(0,0,0)
(31926643.5461337,559011.403265124,62915.0609481703)
(31905652.7388533,545615.301748791,134889.414237407)
(31855051.0506665,516270.98385149,228566.997021597)
(31753267.3933085,465648.550065121,366259.989607767)
(31556440.1193813,385479.257359443,592479.856138388)
(31185482.573634,267835.69674231,997548.619159425)
(30531465.7366571,125047.6065819,1735985.14917018)
(29529150.5802804,55241.0116064409,2939216.94546708)
(27381186.7370735,60647.277603764,5404185.42039862)
(21185781.354204,42750.7755061936,13195912.8083622)
(0,0,0)
(0,0,0)
(0,0,0)
(0,0,0)
(0,0,0)
(0,0,0)
(31770042.8342086,826884.796654665,49534.311782746)
(31749506.9020981,814467.529838566,105603.102717011)
(31698649.0162884,787558.889411031,178011.656995438)
(31591551.6132391,742157.756910429,286141.087367512)
(31370695.4830488,672636.273711554,474924.871037264)
(30918334.5696319,575338.886503658,854832.937090181)
(30055107.6513002,460519.211555249,1666253.78632061)
(29067341.6441102,359991.332540999,2944718.55583508)
(27179620.3025771,263272.885064976,5386372.38744787)
(21112297.0225456,142301.667187504,13153255.8799392)
(0,0,0)
(0,0,0)
(0,0,0)
(0,0,0)
(0,0,0)
(0,0,0)
(31491364.9993215,1213193.61382487,37113.7028039662)
(31472235.9124522,1202966.92051408,78797.4890955486)
(31423794.9384866,1181227.93693786,132713.845580733)
(31318638.5303405,1145443.7028166,216658.167276375)
(31095215.3886557,1091276.84762741,377741.7788628)
(30629866.7971298,1012569.9043635,740105.492693424)
(29755665.0807181,903622.303873656,1565803.21181219)
(28811518.2085932,764204.847159671,2848113.32673287)
(27007943.0419774,556626.866882946,5265557.23349323)
(21028054.9924642,294361.747482184,13011164.9295795)
(0,0,0)
(0,0,0)
(0,0,0)
(0,0,0)
(0,0,0)
(0,0,0)
(30974410.5198333,1809729.21609261,26879.4839244696)
(30957770.2301108,1801829.53228261,57106.4679417458)
(30914837.2541668,1785509.7262933,96970.9278110836)
(30819369.7700411,1759648.08470244,162542.897202399)
(30611044.7802796,1721171.16782123,299136.26125694)
(30166036.9915979,1661286.96150705,631248.044927147)
(29318114.7180553,1557001.77590748,1426511.32345289)
(28466079.2289485,1371981.15194897,2640740.9737161)
(26753793.8129316,1002095.08776809,5003554.63018831)
(20884411.2660354,535706.785636988,12717119.1868726)
(0,0,0)
(0,0,0)
(0,0,0)
(0,0,0)
(0,0,0)
(0,0,0)
(29941249.8098267,2867727.63804469,18960.3205814373)
(29928127.7408519,2861291.02036148,40800.546005152)
(29893917.0035936,2848244.5049291,71099.1485114198)
(29816793.8964178,2828130.49560063,124106.691282775)
(29645136.6520805,2799109.45107572,239363.461255682)
(29267628.5451874,2752488.37347213,527100.94594963)
(28525423.650087,2645312.56475643,1241602.62355426)
(27969964.934779,2313291.85512473,2271060.55605374)
(26241304.7095695,1772065.11453386,4537486.69112425)
(20551997.4298259,1013536.29998934,12181757.2648951)
(0,0,0)
(0,0,0)
(0,0,0)
(0,0,0)
(0,0,0)
(0,0,0)
(27606048.513563,5296743.19414333,12539.0342860964)
(27597218.8039842,5290445.73821854,27795.8325276867)
(27574370.3470531,5277021.89011569,51007.3719297923)
(27523912.0681858,5253715.98248405,95116.2731828337)
(27416486.0461246,5212539.51491062,192776.964484425)
(27197892.6722291,5130827.96584051,420030.656461794)
(26803886.2694479,4946872.23941257,909701.276929842)
(26250654.2760172,4527927.08614153,1730001.57924832)
(24688548.3142186,3787525.83856163,3779219.55652495)
(19540823.5252502,2469329.59726341,11168523.4995835)
(0,0,0)
(0,0,0)
(0,0,0)
(0,0,0)
(0,0,0)
(0,0,0)
(21275164.2874662,13092494.5116703,6411.88055411519)
(21270791.7523852,13085824.3358221,14587.415252796)
(21259587.2995698,13070935.4654314,27851.0423388523)
(21235346.0309726,13042869.5356753,54020.6993175747)
(21185416.3014561,12988726.4214059,111123.916823082)
(21087195.2434355,12877586.444408,236121.865074743)
(20905351.7629363,12641547.1179961,490771.959870006)
(20557193.1803078,12150840.9106948,989658.146005239)
(19541612.2379185,11161187.1278971,2461249.72163307)
(15889110.4367019,8699730.26854401,8699474.63508287)
(0,0,0)
(0,0,0)
(0,0,0)
(0,0,0)
(0,0,0)
(0,0,0)
(0,0,0)
(0,0,0)
(0,0,0)
(0,0,0)
(0,0,0)
(0,0,0)
(0,0,0)
(0,0,0)
(0,0,0)
(0,0,0)
(0,0,0)
(0,0,0)
(0,0,0)
(0,0,0)
(0,0,0)
(0,0,0)
(0,0,0)
(0,0,0)
(0,0,0)
(0,0,0)
(0,0,0)
(0,0,0)
(0,0,0)
(0,0,0)
(0,0,0)
(0,0,0)
(0,0,0)
(0,0,0)
(0,0,0)
(0,0,0)
(0,0,0)
(0,0,0)
(0,0,0)
(0,0,0)
(0,0,0)
(0,0,0)
(0,0,0)
(0,0,0)
(0,0,0)
(0,0,0)
(0,0,0)
(0,0,0)
(0,0,0)
(0,0,0)
(0,0,0)
(0,0,0)
(0,0,0)
(0,0,0)
(0,0,0)
(0,0,0)
(0,0,0)
(0,0,0)
(0,0,0)
(0,0,0)
(0,0,0)
(0,0,0)
(0,0,0)
(0,0,0)
(0,0,0)
(0,0,0)
(0,0,0)
(0,0,0)
(0,0,0)
(0,0,0)
(0,0,0)
(0,0,0)
(0,0,0)
(0,0,0)
(0,0,0)
(0,0,0)
(0,0,0)
(0,0,0)
(0,0,0)
(0,0,0)
(0,0,0)
(0,0,0)
(0,0,0)
(0,0,0)
(0,0,0)
(0,0,0)
(0,0,0)
(0,0,0)
(0,0,0)
(0,0,0)
(0,0,0)
(0,0,0)
(0,0,0)
(0,0,0)
(0,0,0)
(0,0,0)
(0,0,0)
(0,0,0)
(0,0,0)
(0,0,0)
(0,0,0)
(0,0,0)
(-559632.382268649,81691.3031042077,68248.7930409707)
(-582695.390903748,76752.1625751998,143559.996938657)
(-634823.886909978,65931.732331849,233786.19737104)
(-729788.099004101,47370.1992047515,347712.137237584)
(-892334.484071369,19234.6666277758,492316.093385443)
(-1163664.97282196,-17187.9623542337,659982.268009464)
(-1607393.85325887,-50705.4838324706,782614.840560339)
(-2309703.788997,-57692.4942606778,582375.113458682)
(-3316784.17544944,-39647.0052900813,-958018.751900375)
(-4065815.37142554,-18161.5641971787,-8096601.98341087)
(0,0,0)
(0,0,0)
(0,0,0)
(0,0,0)
(0,0,0)
(0,0,0)
(-583996.743993257,171324.525029067,63364.1352826711)
(-606629.190677422,162043.142009075,132769.140998481)
(-658192.213291066,141272.701431502,215239.327782955)
(-753248.891015305,104375.806842854,319567.034640753)
(-918302.723493708,44930.469424837,455844.437870225)
(-1197035.67807597,-39737.9340847122,626389.871008)
(-1651218.54916656,-128045.219936029,775583.228686167)
(-2346752.90616859,-143039.476084502,600419.28916159)
(-3335357.18306545,-88804.9809233381,-936511.392657495)
(-4072359.67167483,-37158.9687337278,-8078476.73542107)
(0,0,0)
(0,0,0)
(0,0,0)
(0,0,0)
(0,0,0)
(0,0,0)
(-638506.196815046,276345.271063004,54111.3826071837)
(-660381.062132752,264116.561904531,112052.28429168)
(-710998.681746964,236157.069614369,178410.265570538)
(-806954.995157204,184300.182485121,260149.506399069)
(-980573.693266531,93381.6842891663,371147.927981808)
(-1288030.91556192,-56469.5804494972,538078.144632603)
(-1797820.95891568,-251317.516814849,760619.537723058)
(-2475112.81872896,-278692.100878374,654676.874579603)
(-3391712.66001142,-142714.623499683,-884825.827508812)
(-4090441.29297656,-49965.4716202949,-8041316.40514074)
(0,0,0)
(0,0,0)
(0,0,0)
(0,0,0)
(0,0,0)
(0,0,0)
(-735942.587520255,402152.122865202,41851.334569048)
(-756687.895422492,389273.950954004,84106.6325125769)
(-805880.016021215,359697.324473823,126569.497058034)
(-903783.384567815,303768.918557313,169223.591579287)
(-1096757.61956012,199588.254116598,221286.813410426)
(-1488525.95781135,607.471490047313,343290.345633512)
(-2253464.00647473,-351363.257259279,733337.881926989)
(-2895257.21208257,-406588.276294861,790713.902423697)
(-3532828.93160409,-140886.230487352,-792026.769193649)
(-4129186.7235517,-30700.915734322,-7991251.19460674)
(0,0,0)
(0,0,0)
(0,0,0)
(0,0,0)
(0,0,0)
(0,0,0)
(-899648.448092437,547953.347770379,28962.1101130773)
(-918713.022565459,536954.713086908,54573.3253609714)
(-965168.532531325,512491.401040808,70668.8503309063)
(-1063074.72233826,469074.976035192,65061.1811477045)
(-1278949.94151293,397007.375061929,22359.5374812374)
(-1831778.60338755,286775.635959519,-8623.40125157476)
(-3638966.40270233,161014.894837209,678144.553371695)
(-4316651.81623386,104147.680712368,1056474.10942579)
(-3809576.081511,91612.7921513007,-681756.476407452)
(-4192693.86395095,58079.2996616774,-7960473.75258955)
(0,0,0)
(0,0,0)
(0,0,0)
(0,0,0)
(0,0,0)
(0,0,0)
(-1169584.99808352,696029.972014699,17945.4258780267)
(-1186260.52680454,688271.05007217,30197.580866756)
(-1227882.33043009,672085.240792067,27353.0627494545)
(-1318950.12015905,646035.473503075,-6946.7315017647)
(-1528875.27309764,606993.262056774,-87769.9040260012)
(-2080432.34787673,548663.516994793,-134286.587337464)
(-3799893.3295108,466027.715580211,621331.054865611)
(-4420737.49410481,418716.394731557,1044090.09626175)
(-3938626.25195512,302415.935856752,-715071.700794006)
(-4256200.04306212,150660.225554425,-8018325.5384431)
(0,0,0)
(0,0,0)
(0,0,0)
(0,0,0)
(0,0,0)
(0,0,0)
(-1610893.571003,776234.426363535,10171.6892046891)
(-1624594.34454084,771838.809451905,14040.5571938771)
(-1659618.37612365,764289.658476703,1363.82251684226)
(-1739042.79452924,756798.902468806,-45914.9891613089)
(-1931829.48295982,755034.375625326,-146009.786773229)
(-2472084.33416635,762679.611735534,-216832.50303234)
(-4265931.61514502,764137.879179102,574175.719286477)
(-4839708.27054253,875693.822707976,928057.843518302)
(-4133627.2268641,489473.26085851,-866506.388970296)
(-4360923.79721147,203225.832683129,-8168664.88013497)
(0,0,0)
(0,0,0)
(0,0,0)
(0,0,0)
(0,0,0)
(0,0,0)
(-2315261.87896594,532017.621668509,5800.54620481663)
(-2325576.47733795,529882.482682561,6533.14388131261)
(-2352330.99886358,528236.643018957,-6093.78548650331)
(-2414648.35531157,534846.24664131,-47626.8252123982)
(-2574227.82546466,570092.443743439,-138248.363068018)
(-3070031.6228229,682396.931695195,-215233.462300239)
(-5029953.73861721,923452.29608349,685901.562216802)
(-4099131.60407417,593688.214775879,542075.761719423)
(-4288737.066571,219074.673639753,-1152411.82220397)
(-4522857.37427315,2242.25458500321,-8371501.38728942)
(0,0,0)
(0,0,0)
(0,0,0)
(0,0,0)
(0,0,0)
(0,0,0)
(-3325620.51882416,-1034942.21243275,3700.91920564643)
(-3332325.00486444,-1036728.66074812,4927.9242021446)
(-3349464.5192495,-1038436.21103209,507.697272991365)
(-3387799.02254382,-1035469.96515624,-12392.9474825588)
(-3475710.68562761,-1019115.68877373,-25916.0304958336)
(-3686018.9750597,-980434.707871304,25899.3090766305)
(-4145750.85192678,-952204.051950546,356264.831202551)
(-4295912.88846421,-1166042.81067977,167635.073856798)
(-4690826.40677502,-1359868.55745713,-1368974.92133543)
(-4764810.81229745,-1182659.29994086,-8373366.97654466)
(0,0,0)
(0,0,0)
(0,0,0)
(0,0,0)
(0,0,0)
(0,0,0)
(-4072531.47250785,-8184219.12677017,2044.72702879157)
(-4075781.46060988,-8186412.86603461,3374.19802760511)
(-4083991.09525073,-8189997.43307179,3585.86760512532)
(-4101724.24037312,-8193771.57249072,4029.79900246607)
(-4139493.93712354,-8197935.69365187,12832.0951774492)
(-4218705.2008046,-8210824.64036585,54194.5246293358)
(-4365054.17202821,-8265014.27006089,142482.730421474)
(-4527701.56118049,-8407499.16838579,-26094.1176670681)
(-4766255.87776515,-8381472.56428111,-1191549.9424423)
(-4599517.82560206,-7190120.5599775,-7190388.3673845)
(0,0,0)
(0,0,0)
(0,0,0)
(0,0,0)
(0,0,0)
(0,0,0)
(0,0,0)
(0,0,0)
(0,0,0)
(0,0,0)
(0,0,0)
(0,0,0)
(0,0,0)
(0,0,0)
(0,0,0)
(0,0,0)
(0,0,0)
(0,0,0)
(0,0,0)
(0,0,0)
(0,0,0)
(0,0,0)
(0,0,0)
(0,0,0)
(0,0,0)
(0,0,0)
(0,0,0)
(0,0,0)
(0,0,0)
(0,0,0)
(0,0,0)
(0,0,0)
(0,0,0)
(0,0,0)
(0,0,0)
(0,0,0)
(0,0,0)
(0,0,0)
(0,0,0)
(0,0,0)
(0,0,0)
(0,0,0)
(0,0,0)
(0,0,0)
(0,0,0)
(0,0,0)
(0,0,0)
(0,0,0)
(0,0,0)
(0,0,0)
(0,0,0)
(0,0,0)
(0,0,0)
(0,0,0)
(0,0,0)
(0,0,0)
(0,0,0)
(0,0,0)
(0,0,0)
(0,0,0)
(0,0,0)
(0,0,0)
(0,0,0)
(0,0,0)
(0,0,0)
(0,0,0)
(0,0,0)
(0,0,0)
(0,0,0)
(0,0,0)
(0,0,0)
(0,0,0)
(0,0,0)
(0,0,0)
(0,0,0)
(0,0,0)
(0,0,0)
(0,0,0)
(0,0,0)
(0,0,0)
(0,0,0)
(0,0,0)
(0,0,0)
(0,0,0)
(0,0,0)
(0,0,0)
(0,0,0)
(0,0,0)
(0,0,0)
(0,0,0)
(0,0,0)
(0,0,0)
(0,0,0)
(0,0,0)
(0,0,0)
(0,0,0)
(0,0,0)
(0,0,0)
(0,0,0)
(0,0,0)
(0,0,0)
(0,0,0)
(-661930.761599831,57177.7848766059,45120.5944545786)
(-681462.451270076,52653.5171227353,91234.1376981763)
(-724535.946075126,42375.6907386853,138570.506124641)
(-799773.896520229,23737.3352893272,184818.968351439)
(-921264.1563392,-6851.90155108219,220600.542170348)
(-1108169.71706698,-50625.8246881272,215731.111103494)
(-1376785.84337677,-94544.4233222544,79667.524543657)
(-1709879.62780281,-94723.6874762956,-425432.949174241)
(-1976239.14991728,-58193.2350221706,-1707784.73968421)
(-1717242.98475062,-24702.8004515992,-4031654.3259075)
(0,0,0)
(0,0,0)
(0,0,0)
(0,0,0)
(0,0,0)
(0,0,0)
(-684055.420253176,116638.555670574,40597.9054659497)
(-702470.462881233,108147.122345067,80945.5724474294)
(-743129.758855696,88334.7056179713,119924.103132776)
(-814366.845333588,50560.7929493543,154218.599791027)
(-930333.870706399,-17383.1616376934,176781.007090327)
(-1111877.89855283,-130767.079228378,171764.48210745)
(-1378778.01842064,-274668.674990841,79448.2030301166)
(-1701770.79063035,-271343.947236855,-388913.65274756)
(-1963136.91169642,-145059.930540551,-1674267.22859819)
(-1709175.67409244,-55173.3298574302,-4006980.69677482)
(0,0,0)
(0,0,0)
(0,0,0)
(0,0,0)
(0,0,0)
(0,0,0)
(-732646.119793753,178676.142917452,32102.3357318325)
(-748945.134090517,167636.831611893,61176.6984227684)
(-784838.68729634,141144.527668257,82206.8819218562)
(-847836.217726052,87368.6722511685,86280.2251888909)
(-952222.899841538,-22841.7770667284,63388.0471929316)
(-1126324.43163678,-257002.756333407,27917.240372805)
(-1420425.48071358,-706977.604587698,82830.691767561)
(-1702246.38924232,-698777.846824467,-262601.838131485)
(-1931333.32809661,-283709.802994147,-1584331.29759269)
(-1689529.4212956,-88625.7752600729,-3951790.72387102)
(0,0,0)
(0,0,0)
(0,0,0)
(0,0,0)
(0,0,0)
(0,0,0)
(-816467.378932405,238185.97996274,21014.9543668695)
(-829790.861103706,227051.644747395,34703.1069125867)
(-858704.00927509,200236.955739658,28434.6720950628)
(-908325.435498502,144318.441741821,-23973.0464649017)
(-990111.833284133,17312.0997045826,-170772.709512198)
(-1151692.42491717,-342640.50615952,-421968.492580273)
(-1736702.65271341,-1736839.58659571,91132.1356664144)
(-1827467.53177475,-1827935.11343846,152499.721972586)
(-1857302.35581101,-417547.00246486,-1389189.65434979)
(-1649830.36588193,-94132.4054601687,-3863039.38181951)
(0,0,0)
(0,0,0)
(0,0,0)
(0,0,0)
(0,0,0)
(0,0,0)
(-949056.513746425,277740.543219572,9853.50239715323)
(-958881.28418034,269137.158560502,7936.25019892916)
(-979059.604993866,249537.685694143,-27473.4072930083)
(-1008219.52871861,213004.559106274,-151014.71827711)
(-1028898.15402299,146944.265082891,-530698.671145368)
(-927066.95130499,38049.4572774851,-1816100.28666494)
(2.43072834856753e-05,7.07987809167193e-06,-1.65269431551148e-05)