/*--------------------------------*- C++ -*----------------------------------*\
| =========                 |                                                 |
| \\      /  F ield         | foam-extend: Open Source Cstd::filesystem::create_directory();FD                    |
|  \\    /   O peration     | Version:     4.0                                |
|   \\  /    A nd           | Web:         http://www.foam-extend.org         |
|    \\/     M anipulation  |                                                 |
\*---------------------------------------------------------------------------*/
FoamFile
{
    version 2.0;
    format ascii;
    class volVectorField;
    location "Data/174";
    object      H;
}
// * * * * * * * * * * * * * * * * * * * * * * * * * * * * * * * * * * * * * //

dimensions      [0 1 -1 0 0 0 0];

internalField   nonuniform List<vector>
4096
(
(0,0,0)
(0,0,0)
(0,0,0)
(0,0,0)
(0,0,0)
(0,0,0)
(0,0,0)
(0,0,0)
(0,0,0)
(0,0,0)
(0,0,0)
(0,0,0)
(0,0,0)
(0,0,0)
(0,0,0)
(0,0,0)
(0,0,0)
(0,0,0)
(0,0,0)
(0,0,0)
(0,0,0)
(0,0,0)
(0,0,0)
(0,0,0)
(0,0,0)
(0,0,0)
(0,0,0)
(0,0,0)
(0,0,0)
(0,0,0)
(0,0,0)
(0,0,0)
(0,0,0)
(0,0,0)
(0,0,0)
(0,0,0)
(0,0,0)
(0,0,0)
(0,0,0)
(0,0,0)
(0,0,0)
(0,0,0)
(0,0,0)
(0,0,0)
(0,0,0)
(0,0,0)
(0,0,0)
(0,0,0)
(0,0,0)
(0,0,0)
(0,0,0)
(0,0,0)
(0,0,0)
(0,0,0)
(0,0,0)
(0,0,0)
(0,0,0)
(0,0,0)
(0,0,0)
(0,0,0)
(0,0,0)
(0,0,0)
(0,0,0)
(0,0,0)
(0,0,0)
(0,0,0)
(0,0,0)
(0,0,0)
(0,0,0)
(0,0,0)
(0,0,0)
(0,0,0)
(0,0,0)
(0,0,0)
(0,0,0)
(0,0,0)
(0,0,0)
(0,0,0)
(0,0,0)
(0,0,0)
(0,0,0)
(0,0,0)
(0,0,0)
(0,0,0)
(0,0,0)
(0,0,0)
(0,0,0)
(0,0,0)
(0,0,0)
(0,0,0)
(0,0,0)
(0,0,0)
(0,0,0)
(0,0,0)
(0,0,0)
(0,0,0)
(0,0,0)
(0,0,0)
(0,0,0)
(0,0,0)
(0,0,0)
(0,0,0)
(0,0,0)
(0,0,0)
(0,0,0)
(0,0,0)
(0,0,0)
(0,0,0)
(0,0,0)
(0,0,0)
(0,0,0)
(0,0,0)
(0,0,0)
(0,0,0)
(0,0,0)
(0,0,0)
(0,0,0)
(0,0,0)
(0,0,0)
(0,0,0)
(0,0,0)
(0,0,0)
(0,0,0)
(0,0,0)
(0,0,0)
(0,0,0)
(0,0,0)
(0,0,0)
(0,0,0)
(0,0,0)
(0,0,0)
(0,0,0)
(0,0,0)
(0,0,0)
(0,0,0)
(0,0,0)
(0,0,0)
(0,0,0)
(0,0,0)
(0,0,0)
(0,0,0)
(0,0,0)
(0,0,0)
(0,0,0)
(0,0,0)
(0,0,0)
(0,0,0)
(0,0,0)
(0,0,0)
(0,0,0)
(0,0,0)
(0,0,0)
(0,0,0)
(0,0,0)
(0,0,0)
(0,0,0)
(0,0,0)
(0,0,0)
(0,0,0)
(0,0,0)
(0,0,0)
(0,0,0)
(0,0,0)
(0,0,0)
(0,0,0)
(0,0,0)
(0,0,0)
(0,0,0)
(0,0,0)
(0,0,0)
(0,0,0)
(0,0,0)
(0,0,0)
(0,0,0)
(0,0,0)
(0,0,0)
(0,0,0)
(0,0,0)
(0,0,0)
(0,0,0)
(0,0,0)
(0,0,0)
(0,0,0)
(0,0,0)
(0,0,0)
(0,0,0)
(0,0,0)
(0,0,0)
(0,0,0)
(0,0,0)
(0,0,0)
(0,0,0)
(0,0,0)
(0,0,0)
(0,0,0)
(0,0,0)
(0,0,0)
(0,0,0)
(0,0,0)
(0,0,0)
(0,0,0)
(0,0,0)
(0,0,0)
(0,0,0)
(0,0,0)
(0,0,0)
(0,0,0)
(0,0,0)
(0,0,0)
(0,0,0)
(0,0,0)
(0,0,0)
(0,0,0)
(0,0,0)
(0,0,0)
(0,0,0)
(0,0,0)
(0,0,0)
(0,0,0)
(0,0,0)
(0,0,0)
(0,0,0)
(0,0,0)
(0,0,0)
(0,0,0)
(0,0,0)
(0,0,0)
(0,0,0)
(0,0,0)
(0,0,0)
(0,0,0)
(0,0,0)
(0,0,0)
(0,0,0)
(0,0,0)
(0,0,0)
(0,0,0)
(0,0,0)
(0,0,0)
(0,0,0)
(0,0,0)
(0,0,0)
(0,0,0)
(0,0,0)
(0,0,0)
(0,0,0)
(0,0,0)
(0,0,0)
(0,0,0)
(0,0,0)
(0,0,0)
(0,0,0)
(0,0,0)
(0,0,0)
(0,0,0)
(0,0,0)
(0,0,0)
(0,0,0)
(0,0,0)
(0,0,0)
(0,0,0)
(0,0,0)
(0,0,0)
(0,0,0)
(0,0,0)
(0,0,0)
(0,0,0)
(0,0,0)
(0,0,0)
(0,0,0)
(0,0,0)
(0,0,0)
(0,0,0)
(0,0,0)
(0,0,0)
(0,0,0)
(0,0,0)
(0,0,0)
(0,0,0)
(0,0,0)
(0,0,0)
(0,0,0)
(0,0,0)
(0,0,0)
(0,0,0)
(0,0,0)
(0,0,0)
(0,0,0)
(0,0,0)
(0,0,0)
(0,0,0)
(0,0,0)
(0,0,0)
(0,0,0)
(0,0,0)
(0,0,0)
(0,0,0)
(0,0,0)
(0,0,0)
(0,0,0)
(0,0,0)
(0,0,0)
(0,0,0)
(0,0,0)
(0,0,0)
(0,0,0)
(0,0,0)
(0,0,0)
(0,0,0)
(0,0,0)
(0,0,0)
(0,0,0)
(0,0,0)
(0,0,0)
(0,0,0)
(0,0,0)
(0,0,0)
(0,0,0)
(0,0,0)
(0,0,0)
(0,0,0)
(0,0,0)
(0,0,0)
(0,0,0)
(0,0,0)
(0,0,0)
(0,0,0)
(0,0,0)
(0,0,0)
(0,0,0)
(0,0,0)
(0,0,0)
(0,0,0)
(0,0,0)
(0,0,0)
(0,0,0)
(0,0,0)
(0,0,0)
(0,0,0)
(0,0,0)
(0,0,0)
(0,0,0)
(0,0,0)
(0,0,0)
(0,0,0)
(0,0,0)
(0,0,0)
(0,0,0)
(0,0,0)
(0,0,0)
(0,0,0)
(0,0,0)
(0,0,0)
(0,0,0)
(0,0,0)
(0,0,0)
(0,0,0)
(0,0,0)
(0,0,0)
(0,0,0)
(0,0,0)
(0,0,0)
(0,0,0)
(0,0,0)
(0,0,0)
(0,0,0)
(0,0,0)
(0,0,0)
(0,0,0)
(0,0,0)
(0,0,0)
(0,0,0)
(0,0,0)
(0,0,0)
(0,0,0)
(0,0,0)
(0,0,0)
(0,0,0)
(0,0,0)
(0,0,0)
(0,0,0)
(0,0,0)
(0,0,0)
(0,0,0)
(0,0,0)
(0,0,0)
(0,0,0)
(0,0,0)
(0,0,0)
(0,0,0)
(0,0,0)
(0,0,0)
(0,0,0)
(0,0,0)
(0,0,0)
(0,0,0)
(0,0,0)
(0,0,0)
(0,0,0)
(0,0,0)
(0,0,0)
(0,0,0)
(0,0,0)
(0,0,0)
(0,0,0)
(0,0,0)
(0,0,0)
(0,0,0)
(0,0,0)
(0,0,0)
(0,0,0)
(0,0,0)
(0,0,0)
(0,0,0)
(0,0,0)
(0,0,0)
(0,0,0)
(0,0,0)
(0,0,0)
(0,0,0)
(0,0,0)
(0,0,0)
(0,0,0)
(0,0,0)
(0,0,0)
(0,0,0)
(0,0,0)
(0,0,0)
(0,0,0)
(0,0,0)
(0,0,0)
(0,0,0)
(0,0,0)
(0,0,0)
(0,0,0)
(0,0,0)
(0,0,0)
(0,0,0)
(0,0,0)
(0,0,0)
(0,0,0)
(0,0,0)
(0,0,0)
(0,0,0)
(0,0,0)
(0,0,0)
(0,0,0)
(0,0,0)
(0,0,0)
(0,0,0)
(0,0,0)
(0,0,0)
(0,0,0)
(0,0,0)
(0,0,0)
(0,0,0)
(0,0,0)
(0,0,0)
(0,0,0)
(0,0,0)
(0,0,0)
(0,0,0)
(0,0,0)
(0,0,0)
(0,0,0)
(0,0,0)
(0,0,0)
(0,0,0)
(0,0,0)
(0,0,0)
(0,0,0)
(0,0,0)
(0,0,0)
(0,0,0)
(0,0,0)
(0,0,0)
(0,0,0)
(0,0,0)
(0,0,0)
(0,0,0)
(0,0,0)
(0,0,0)
(0,0,0)
(0,0,0)
(0,0,0)
(0,0,0)
(0,0,0)
(0,0,0)
(0,0,0)
(0,0,0)
(0,0,0)
(0,0,0)
(0,0,0)
(0,0,0)
(0,0,0)
(0,0,0)
(0,0,0)
(0,0,0)
(0,0,0)
(0,0,0)
(0,0,0)
(0,0,0)
(0,0,0)
(0,0,0)
(0,0,0)
(0,0,0)
(0,0,0)
(0,0,0)
(0,0,0)
(0,0,0)
(0,0,0)
(0,0,0)
(0,0,0)
(0,0,0)
(0,0,0)
(0,0,0)
(0,0,0)
(0,0,0)
(0,0,0)
(0,0,0)
(0,0,0)
(0,0,0)
(0,0,0)
(0,0,0)
(0,0,0)
(0,0,0)
(0,0,0)
(0,0,0)
(0,0,0)
(0,0,0)
(0,0,0)
(0,0,0)
(0,0,0)
(0,0,0)
(0,0,0)
(0,0,0)
(0,0,0)
(0,0,0)
(0,0,0)
(0,0,0)
(0,0,0)
(0,0,0)
(0,0,0)
(0,0,0)
(0,0,0)
(0,0,0)
(0,0,0)
(0,0,0)
(0,0,0)
(0,0,0)
(0,0,0)
(0,0,0)
(0,0,0)
(0,0,0)
(0,0,0)
(0,0,0)
(0,0,0)
(0,0,0)
(0,0,0)
(0,0,0)
(0,0,0)
(0,0,0)
(0,0,0)
(0,0,0)
(0,0,0)
(0,0,0)
(0,0,0)
(0,0,0)
(0,0,0)
(0,0,0)
(0,0,0)
(0,0,0)
(0,0,0)
(0,0,0)
(0,0,0)
(0,0,0)
(0,0,0)
(0,0,0)
(0,0,0)
(0,0,0)
(0,0,0)
(0,0,0)
(0,0,0)
(0,0,0)
(0,0,0)
(0,0,0)
(0,0,0)
(0,0,0)
(0,0,0)
(0,0,0)
(0,0,0)
(0,0,0)
(0,0,0)
(0,0,0)
(0,0,0)
(0,0,0)
(0,0,0)
(0,0,0)
(0,0,0)
(0,0,0)
(0,0,0)
(0,0,0)
(0,0,0)
(0,0,0)
(0,0,0)
(0,0,0)
(0,0,0)
(0,0,0)
(0,0,0)
(0,0,0)
(0,0,0)
(0,0,0)
(0,0,0)
(0,0,0)
(0,0,0)
(0,0,0)
(0,0,0)
(0,0,0)
(0,0,0)
(0,0,0)
(0,0,0)
(0,0,0)
(0,0,0)
(0,0,0)
(0,0,0)
(0,0,0)
(0,0,0)
(0,0,0)
(0,0,0)
(0,0,0)
(0,0,0)
(0,0,0)
(0,0,0)
(0,0,0)
(0,0,0)
(0,0,0)
(0,0,0)
(0,0,0)
(0,0,0)
(0,0,0)
(0,0,0)
(0,0,0)
(0,0,0)
(0,0,0)
(0,0,0)
(0,0,0)
(0,0,0)
(0,0,0)
(0,0,0)
(0,0,0)
(0,0,0)
(0,0,0)
(0,0,0)
(0,0,0)
(0,0,0)
(0,0,0)
(0,0,0)
(0,0,0)
(0,0,0)
(0,0,0)
(0,0,0)
(0,0,0)
(0,0,0)
(0,0,0)
(0,0,0)
(0,0,0)
(0,0,0)
(0,0,0)
(0,0,0)
(0,0,0)
(0,0,0)
(0,0,0)
(0,0,0)
(0,0,0)
(0,0,0)
(0,0,0)
(0,0,0)
(0,0,0)
(0,0,0)
(0,0,0)
(0,0,0)
(0,0,0)
(0,0,0)
(0,0,0)
(0,0,0)
(0,0,0)
(0,0,0)
(0,0,0)
(0,0,0)
(0,0,0)
(0,0,0)
(0,0,0)
(0,0,0)
(0,0,0)
(0,0,0)
(0,0,0)
(0,0,0)
(0,0,0)
(0,0,0)
(0,0,0)
(0,0,0)
(0,0,0)
(0,0,0)
(0,0,0)
(0,0,0)
(0,0,0)
(0,0,0)
(0,0,0)
(0,0,0)
(0,0,0)
(0,0,0)
(0,0,0)
(0,0,0)
(0,0,0)
(0,0,0)
(0,0,0)
(0,0,0)
(0,0,0)
(0,0,0)
(0,0,0)
(0,0,0)
(0,0,0)
(0,0,0)
(0,0,0)
(0,0,0)
(0,0,0)
(0,0,0)
(0,0,0)
(0,0,0)
(0,0,0)
(0,0,0)
(0,0,0)
(0,0,0)
(0,0,0)
(0,0,0)
(0,0,0)
(0,0,0)
(0,0,0)
(0,0,0)
(0,0,0)
(0,0,0)
(0,0,0)
(0,0,0)
(0,0,0)
(0,0,0)
(0,0,0)
(0,0,0)
(0,0,0)
(0,0,0)
(0,0,0)
(0,0,0)
(0,0,0)
(0,0,0)
(0,0,0)
(0,0,0)
(0,0,0)
(0,0,0)
(0,0,0)
(0,0,0)
(0,0,0)
(0,0,0)
(0,0,0)
(0,0,0)
(0,0,0)
(0,0,0)
(0,0,0)
(0,0,0)
(0,0,0)
(0,0,0)
(0,0,0)
(0,0,0)
(0,0,0)
(0,0,0)
(0,0,0)
(0,0,0)
(0,0,0)
(0,0,0)
(0,0,0)
(0,0,0)
(0,0,0)
(0,0,0)
(0,0,0)
(0,0,0)
(0,0,0)
(0,0,0)
(0,0,0)
(0,0,0)
(0,0,0)
(0,0,0)
(0,0,0)
(0,0,0)
(0,0,0)
(0,0,0)
(0,0,0)
(0,0,0)
(0,0,0)
(0,0,0)
(0,0,0)
(0,0,0)
(0,0,0)
(0,0,0)
(0,0,0)
(0,0,0)
(0,0,0)
(0,0,0)
(0,0,0)
(0,0,0)
(0,0,0)
(0,0,0)
(0,0,0)
(0,0,0)
(0,0,0)
(0,0,0)
(0,0,0)
(0,0,0)
(0,0,0)
(0,0,0)
(0,0,0)
(0,0,0)
(1.33128606093742e-12,1.26015928024952e-11,-1.43134175024404e-11)
(2.18924960720712e-12,2.60505809018219e-11,-1.36008856104935e-11)
(3.49900801177357e-12,4.34634276585562e-11,-1.25093165821319e-11)
(4.82576393640797e-12,6.92188818533829e-11,-1.06270971430402e-11)
(5.80432595819435e-12,1.0816106899398e-10,-8.20277007341185e-12)
(5.44797879214514e-12,1.68110789956041e-10,-5.2577086135096e-12)
(4.33791643719806e-12,2.63597468527532e-10,-2.67046914503718e-12)
(2.51987150471972e-12,4.23175978007592e-10,-1.27124894362795e-12)
(4.30911046728565e-13,6.88956547956433e-10,-6.63100378015427e-13)
(-2.86193673323183e-13,1.06080598086441e-09,-5.43755542697201e-13)
(0,0,0)
(0,0,0)
(0,0,0)
(0,0,0)
(0,0,0)
(0,0,0)
(1.93852866988482e-12,1.20271652454531e-11,-2.97860849609252e-11)
(4.32184292782172e-12,2.51071759810696e-11,-2.88876627495523e-11)
(6.30770192797685e-12,4.20749731318229e-11,-2.67307697637417e-11)
(8.23083577833371e-12,6.77389885365204e-11,-2.31694814292454e-11)
(9.68733353640786e-12,1.06197891841338e-10,-1.82130271600564e-11)
(9.25685167070094e-12,1.66094370212233e-10,-1.23893380947095e-11)
(7.41808441112948e-12,2.62579761480759e-10,-7.33984283074214e-12)
(4.28397615314685e-12,4.22835229809142e-10,-4.12015841265353e-12)
(9.7309587266798e-13,6.89169934322117e-10,-2.24389390221662e-12)
(-8.09337682382614e-13,1.06097777786948e-09,-9.9713602497227e-13)
(0,0,0)
(0,0,0)
(0,0,0)
(0,0,0)
(0,0,0)
(0,0,0)
(2.77549643473874e-12,1.10456086839215e-11,-4.93516501327381e-11)
(6.18346644535698e-12,2.30360108420075e-11,-4.84501366878221e-11)
(8.31560936505087e-12,3.90586614321515e-11,-4.54504733459768e-11)
(1.03158969181104e-11,6.39606695352707e-11,-4.08043935891229e-11)
(1.23794785468405e-11,1.01568523470744e-10,-3.3776880174447e-11)
(1.19022817679024e-11,1.61549775260043e-10,-2.48666630347109e-11)
(9.46309598015206e-12,2.59733254955255e-10,-1.66761740697719e-11)
(4.5931155101126e-12,4.21718263677889e-10,-1.11005991729378e-11)
(2.57927645627412e-13,6.8903363432316e-10,-7.17679172016627e-12)
(-1.91358482977589e-12,1.06135534508998e-09,-3.38321506400189e-12)
(0,0,0)
(0,0,0)
(0,0,0)
(0,0,0)
(0,0,0)
(0,0,0)
(3.33970660634039e-12,9.86061299503605e-12,-7.68345933191622e-11)
(7.49781325636068e-12,2.00138953550864e-11,-7.54479594824128e-11)
(1.05374601714367e-11,3.46889858234186e-11,-7.20508911624961e-11)
(1.24196510080975e-11,5.77355218193302e-11,-6.65535788136377e-11)
(1.39904831276057e-11,9.3550868607706e-11,-5.82251825588388e-11)
(1.21835083598682e-11,1.53365401697637e-10,-4.74679437809038e-11)
(9.03162926535165e-12,2.54030851290914e-10,-3.68017599572259e-11)
(4.32480150036191e-12,4.18770536310123e-10,-2.7784072294192e-11)
(2.88246108998709e-13,6.86790170559571e-10,-1.93164817337465e-11)
(-1.74383793859678e-12,1.05949322369259e-09,-1.01397357694931e-11)
(0,0,0)
(0,0,0)
(0,0,0)
(0,0,0)
(0,0,0)
(0,0,0)
(3.1813749296163e-12,8.3344130116155e-12,-1.15158900974678e-10)
(7.36449050937068e-12,1.66547427995228e-11,-1.13353279884128e-10)
(1.0915837105796e-11,2.93153229084838e-11,-1.10000498383879e-10)
(1.28539864803216e-11,4.94651924793991e-11,-1.04435447379803e-10)
(1.41120529337014e-11,8.23682889435143e-11,-9.64129978925239e-11)
(1.12518555152494e-11,1.40878163139401e-10,-8.59654856513464e-11)
(6.02643366628897e-12,2.43606571931016e-10,-7.43998403215289e-11)
(1.73650247608422e-12,4.11563785798334e-10,-5.92138507870567e-11)
(-1.16327884308866e-12,6.79605030243142e-10,-4.18758209503862e-11)
(-2.62825063516811e-12,1.05124507518937e-09,-2.22086977365298e-11)
(0,0,0)
(0,0,0)
(0,0,0)
(0,0,0)
(0,0,0)
(0,0,0)
(2.45839869936727e-12,6.42934763859519e-12,-1.72973428713887e-10)
(5.95042011671114e-12,1.30191402648229e-11,-1.71682609933677e-10)
(9.2941454451918e-12,2.33396220939534e-11,-1.69036148023884e-10)
(1.15010195480969e-11,4.06480757438305e-11,-1.6420252889797e-10)
(1.24497010712937e-11,7.03506780773337e-11,-1.566912794433e-10)
(9.10065014616792e-12,1.26616066623622e-10,-1.46093585998578e-10)
(3.5713719768614e-12,2.29861348861573e-10,-1.31660505457853e-10)
(-2.79055849647751e-13,3.96787595504086e-10,-1.09869664854898e-10)
(-2.34321392529898e-12,6.62242221079003e-10,-8.00919657774383e-11)
(-2.93200038848678e-12,1.03119539303653e-09,-4.27335238332458e-11)
(0,0,0)
(0,0,0)
(0,0,0)
(0,0,0)
(0,0,0)
(0,0,0)
(1.47770978121949e-12,4.59099150040716e-12,-2.65951201991752e-10)
(3.85960045199955e-12,9.59858241220315e-12,-2.65181771389521e-10)
(6.71984149385728e-12,1.76963264891081e-11,-2.63188845708113e-10)
(8.91865976600948e-12,3.21132362022295e-11,-2.59133931083428e-10)
(9.15340374268243e-12,5.84177878842541e-11,-2.52400539601934e-10)
(6.06440753120637e-12,1.10333946958741e-10,-2.41389005900708e-10)
(2.46362593715971e-12,2.09361079063486e-10,-2.21923998007017e-10)
(-7.25913454308498e-13,3.69282973504048e-10,-1.91173021576104e-10)
(-2.41562006402001e-12,6.26782087360874e-10,-1.42993481419653e-10)
(-2.69495396784121e-12,9.90186895222275e-10,-7.77936948754223e-11)
(0,0,0)
(0,0,0)
(0,0,0)
(0,0,0)
(0,0,0)
(0,0,0)
(1.03722070666319e-12,3.06375949500432e-12,-4.21504814450781e-10)
(2.62509718247853e-12,6.5092630096295e-12,-4.21037775285146e-10)
(4.78308374648128e-12,1.26686154514005e-11,-4.19687681416717e-10)
(7.01199421672002e-12,2.46235884114135e-11,-4.16265546776256e-10)
(7.27386722836328e-12,4.78113487863268e-11,-4.09864369358086e-10)
(4.88510205622997e-12,9.38137075135389e-11,-3.97580280176926e-10)
(1.96413337272885e-12,1.79849880681616e-10,-3.72991080930709e-10)
(-6.42909229178305e-13,3.22456245222571e-10,-3.27424488404616e-10)
(-2.04087213883118e-12,5.62743362673685e-10,-2.52927211610277e-10)
(-2.27662963379249e-12,9.13382888233974e-10,-1.43223321746793e-10)
(0,0,0)
(0,0,0)
(0,0,0)
(0,0,0)
(0,0,0)
(0,0,0)
(6.2607814668895e-13,1.79272689175711e-12,-6.84292191315213e-10)
(1.98404450606281e-12,3.99593233936487e-12,-6.83905003950385e-10)
(3.89081598830323e-12,8.18383094315032e-12,-6.82842269817032e-10)
(6.47059370101455e-12,1.72088067194971e-11,-6.79854914135234e-10)
(7.01306199863077e-12,3.51910911248878e-11,-6.72806791371594e-10)
(5.44970590729476e-12,7.01177114534067e-11,-6.57295602712082e-10)
(2.96472234459809e-12,1.34793956847311e-10,-6.25131041284768e-10)
(7.98588265933251e-13,2.48495351835631e-10,-5.63672414379638e-10)
(-7.22833702356265e-13,4.53568554978914e-10,-4.55268871518791e-10)
(-1.27122718889196e-12,7.70616402515191e-10,-2.73329820775733e-10)
(0,0,0)
(0,0,0)
(0,0,0)
(0,0,0)
(0,0,0)
(0,0,0)
(4.42096282151758e-13,7.3359920916172e-13,-1.05452027019971e-09)
(1.56307034768323e-12,1.87915044237145e-12,-1.05442899952096e-09)
(3.40393995525575e-12,4.13571426900268e-12,-1.0534994055581e-09)
(5.998785211112e-12,9.18015580848378e-12,-1.05016146858881e-09)
(6.8246873145938e-12,1.89382416975184e-11,-1.04171897328534e-09)
(5.98613712115941e-12,3.77533650667055e-11,-1.02359969286306e-09)
(3.97065271830798e-12,7.3454542530295e-11,-9.86270981994324e-10)
(2.0578056607011e-12,1.4061410751828e-10,-9.12659202696176e-10)
(3.98257158044002e-13,2.72275538116078e-10,-7.71332707080897e-10)
(2.67993935271942e-13,4.97717517120538e-10,-4.98219472194645e-10)
(0,0,0)
(0,0,0)
(0,0,0)
(0,0,0)
(0,0,0)
(0,0,0)
(0,0,0)
(0,0,0)
(0,0,0)
(0,0,0)
(0,0,0)
(0,0,0)
(0,0,0)
(0,0,0)
(0,0,0)
(0,0,0)
(0,0,0)
(0,0,0)
(0,0,0)
(0,0,0)
(0,0,0)
(0,0,0)
(0,0,0)
(0,0,0)
(0,0,0)
(0,0,0)
(0,0,0)
(0,0,0)
(0,0,0)
(0,0,0)
(0,0,0)
(0,0,0)
(0,0,0)
(0,0,0)
(0,0,0)
(0,0,0)
(0,0,0)
(0,0,0)
(0,0,0)
(0,0,0)
(0,0,0)
(0,0,0)
(0,0,0)
(0,0,0)
(0,0,0)
(0,0,0)
(0,0,0)
(0,0,0)
(0,0,0)
(0,0,0)
(0,0,0)
(0,0,0)
(0,0,0)
(0,0,0)
(0,0,0)
(0,0,0)
(0,0,0)
(0,0,0)
(0,0,0)
(0,0,0)
(0,0,0)
(0,0,0)
(0,0,0)
(0,0,0)
(0,0,0)
(0,0,0)
(0,0,0)
(0,0,0)
(0,0,0)
(0,0,0)
(0,0,0)
(0,0,0)
(0,0,0)
(0,0,0)
(0,0,0)
(0,0,0)
(0,0,0)
(0,0,0)
(0,0,0)
(0,0,0)
(0,0,0)
(0,0,0)
(0,0,0)
(0,0,0)
(0,0,0)
(0,0,0)
(0,0,0)
(0,0,0)
(0,0,0)
(0,0,0)
(0,0,0)
(0,0,0)
(0,0,0)
(0,0,0)
(0,0,0)
(0,0,0)
(0,0,0)
(0,0,0)
(0,0,0)
(0,0,0)
(0,0,0)
(0,0,0)
(1.1931817260328e-12,2.18432374838669e-11,-2.60206312388728e-11)
(2.04108549959816e-12,4.79844644373622e-11,-2.48691124448657e-11)
(3.00524309941477e-12,8.18969005482733e-11,-2.25679082597562e-11)
(3.88133018364369e-12,1.28674454826636e-10,-1.86455573694611e-11)
(4.82244165093599e-12,1.97062309462213e-10,-1.35467245952125e-11)
(4.87715906748195e-12,2.99908602975499e-10,-7.38280490141063e-12)
(3.95640328255731e-12,4.62736055340046e-10,-2.13495237024039e-12)
(2.25247113756574e-12,7.40496213298513e-10,3.2421299982513e-13)
(9.81798457146998e-14,1.27282681348385e-09,9.0019752860868e-13)
(-1.00174622112604e-12,2.49497805376371e-09,4.84053581618827e-13)
(0,0,0)
(0,0,0)
(0,0,0)
(0,0,0)
(0,0,0)
(0,0,0)
(2.02166302004362e-12,2.10861785360505e-11,-5.54636026538846e-11)
(4.23611508107354e-12,4.62030529718853e-11,-5.34140621739061e-11)
(5.76272529315076e-12,7.87313793975186e-11,-4.89859360293921e-11)
(7.05270051039332e-12,1.24708185852256e-10,-4.16816412304391e-11)
(8.49301284165233e-12,1.92197705342459e-10,-3.11132626608923e-11)
(8.75195135891859e-12,2.95595684979105e-10,-1.84166117365267e-11)
(7.04490651854373e-12,4.61064924988538e-10,-7.1111688848916e-12)
(3.52467777395904e-12,7.40930435732045e-10,-1.67616006842169e-12)
(-1.37362005610961e-13,1.27411036212433e-09,-5.20879376896534e-14)
(-2.18404092785156e-12,2.49601169319467e-09,1.87632472148081e-13)
(0,0,0)
(0,0,0)
(0,0,0)
(0,0,0)
(0,0,0)
(0,0,0)
(3.05897867870815e-12,1.93786026975611e-11,-9.21934659750436e-11)
(6.2059185904325e-12,4.25510210022269e-11,-8.96024086178416e-11)
(8.03920521692989e-12,7.2705105818657e-11,-8.34160076362497e-11)
(9.5135312193739e-12,1.16023781038269e-10,-7.3288404095723e-11)
(1.14869162701439e-11,1.81375061808616e-10,-5.79088200114364e-11)
(1.18961663653642e-11,2.85559405658869e-10,-3.84568846192629e-11)
(9.58992474766247e-12,4.5653725526458e-10,-1.97247823337048e-11)
(3.61703542512745e-12,7.41243490968368e-10,-1.08911679144358e-11)
(-1.29218524695057e-12,1.27587737685988e-09,-7.05953032002775e-12)
(-3.43467849640596e-12,2.49777888326895e-09,-3.70533687754092e-12)
(0,0,0)
(0,0,0)
(0,0,0)
(0,0,0)
(0,0,0)
(0,0,0)
(3.47927275301153e-12,1.70569439685244e-11,-1.40895684568869e-10)
(7.45989749200756e-12,3.71600433642266e-11,-1.37940420897379e-10)
(1.04138107375133e-11,6.3596449776548e-11,-1.30835331031665e-10)
(1.23615840932301e-11,1.01963181401248e-10,-1.18823496886707e-10)
(1.44158240138647e-11,1.62929706183396e-10,-1.00721788974029e-10)
(1.40045630944269e-11,2.66644861141893e-10,-7.72801456727309e-11)
(1.04382209622105e-11,4.46179398185472e-10,-5.29544738076544e-11)
(3.06396145170785e-12,7.39600897983934e-10,-3.91589980370964e-11)
(-1.70335953882439e-12,1.27526775358693e-09,-2.80808048356944e-11)
(-3.6354252048596e-12,2.49648393612408e-09,-1.52995602768051e-11)
(0,0,0)
(0,0,0)
(0,0,0)
(0,0,0)
(0,0,0)
(0,0,0)
(3.28081921208687e-12,1.40694347956327e-11,-2.09386342145045e-10)
(7.64731154382115e-12,3.0447566693229e-11,-2.06187734549295e-10)
(1.13264869162508e-11,5.2115254000506e-11,-1.99255076333624e-10)
(1.36486537286106e-11,8.40109219570525e-11,-1.87919875827868e-10)
(1.56821515587066e-11,1.37967912543053e-10,-1.71736940060647e-10)
(1.39483067012083e-11,2.37023200387944e-10,-1.51777248675546e-10)
(4.58566720126738e-12,4.2298418102559e-10,-1.33548140450254e-10)
(-8.25337066338323e-13,7.31301181759344e-10,-1.02837517599824e-10)
(-3.46759289278681e-12,1.26674613766164e-09,-7.16564106146766e-11)
(-4.78726621891356e-12,2.48497249306961e-09,-3.7601969388066e-11)
(0,0,0)
(0,0,0)
(0,0,0)
(0,0,0)
(0,0,0)
(0,0,0)
(3.00593605734468e-12,1.05964924378482e-11,-3.10186630429135e-10)
(6.72451605953861e-12,2.33254799735616e-11,-3.07836986968466e-10)
(1.01038219241221e-11,4.03866871161631e-11,-3.02325573523524e-10)
(1.25246096350282e-11,6.61877617892353e-11,-2.93225435023194e-10)
(1.37848978196507e-11,1.12742670708535e-10,-2.80130038819984e-10)
(1.09496892703266e-11,2.07722348987047e-10,-2.62320260683795e-10)
(2.28080117198772e-12,4.02711777638126e-10,-2.39349571425865e-10)
(-2.55213292707006e-12,7.09612245058348e-10,-1.98084908499877e-10)
(-4.24152215137003e-12,1.23896717635907e-09,-1.42061487943235e-10)
(-4.65702640747359e-12,2.45175356506843e-09,-7.47579358355583e-11)
(0,0,0)
(0,0,0)
(0,0,0)
(0,0,0)
(0,0,0)
(0,0,0)
(2.23551118439147e-12,7.65257942863539e-12,-4.67838126000906e-10)
(4.95599417316507e-12,1.69710972313965e-11,-4.66348343266927e-10)
(7.69263790687969e-12,2.98329014108409e-11,-4.62692912670968e-10)
(9.67491607533079e-12,5.03534542595941e-11,-4.56537940099088e-10)
(8.74830913938423e-12,8.91394427228809e-11,-4.47505920891701e-10)
(3.11963908271828e-12,1.74178410019098e-10,-4.32456203496147e-10)
(1.2238478881158e-12,3.67691333690443e-10,-3.95674170045233e-10)
(-2.07872532927992e-12,6.6197322733434e-10,-3.45748225295691e-10)
(-3.57668192105772e-12,1.17726664449361e-09,-2.55004733740692e-10)
(-3.68464185493355e-12,2.38049058197597e-09,-1.37053982533049e-10)
(0,0,0)
(0,0,0)
(0,0,0)
(0,0,0)
(0,0,0)
(0,0,0)
(1.84121414427523e-12,5.07633710081122e-12,-7.37196040947698e-10)
(3.78833398431431e-12,1.17151271736026e-11,-7.36459777764889e-10)
(5.84573361427104e-12,2.15609667069882e-11,-7.34369561852594e-10)
(8.02559849046595e-12,3.93020960147367e-11,-7.29957667538974e-10)
(7.6100357086426e-12,7.54771988778441e-11,-7.22031611671484e-10)
(3.99189887014441e-12,1.55010254098058e-10,-7.06021130591083e-10)
(1.45346468094532e-12,3.19284803954899e-10,-6.67100227465695e-10)
(-1.17929263657842e-12,5.74868375191474e-10,-5.84873874405909e-10)
(-2.56995430754808e-12,1.06248215092104e-09,-4.49513090868604e-10)
(-2.73346566182193e-12,2.24529699069852e-09,-2.55123662507255e-10)
(0,0,0)
(0,0,0)
(0,0,0)
(0,0,0)
(0,0,0)
(0,0,0)
(1.29801846445721e-12,2.93993788850075e-12,-1.26218886076905e-09)
(3.03809226970284e-12,7.5294619540745e-12,-1.26230893974998e-09)
(4.95157698065248e-12,1.46110386144774e-11,-1.26114098009158e-09)
(7.45112184838879e-12,2.88613371314533e-11,-1.25701325381184e-09)
(7.75472276648742e-12,5.81456314963738e-11,-1.24658894463703e-09)
(5.64949086668263e-12,1.19218641769303e-10,-1.22279914398813e-09)
(2.84550975648207e-12,2.37484613379231e-10,-1.16987664601717e-09)
(2.76289722437169e-13,4.40707853609903e-10,-1.0619660064764e-09)
(-1.36886758258193e-12,8.69486822958905e-10,-8.71458863936251e-10)
(-1.70216256994526e-12,1.99099826934799e-09,-5.441089953344e-10)
(0,0,0)
(0,0,0)
(0,0,0)
(0,0,0)
(0,0,0)
(0,0,0)
(1.08442481256319e-12,1.25694464172335e-12,-2.48024782870952e-09)
(2.51262682718909e-12,3.70196567374221e-12,-2.48087995915167e-09)
(4.20171725496814e-12,7.66767016847687e-12,-2.48016736176091e-09)
(6.7364457161314e-12,1.58352757246404e-11,-2.47543843096847e-09)
(7.64364858983175e-12,3.20866961186082e-11,-2.46211149346433e-09)
(6.41079131912593e-12,6.51638941433253e-11,-2.4322639507798e-09)
(3.81341595045471e-12,1.28929721491343e-10,-2.3687752840035e-09)
(1.34541756370055e-12,2.5038357091441e-10,-2.24059710144157e-09)
(-4.39439612129147e-13,5.42576432162352e-10,-1.99009153596178e-09)
(-2.3396113882878e-13,1.44716100915754e-09,-1.44733357309459e-09)
(0,0,0)
(0,0,0)
(0,0,0)
(0,0,0)
(0,0,0)
(0,0,0)
(0,0,0)
(0,0,0)
(0,0,0)
(0,0,0)
(0,0,0)
(0,0,0)
(0,0,0)
(0,0,0)
(0,0,0)
(0,0,0)
(0,0,0)
(0,0,0)
(0,0,0)
(0,0,0)
(0,0,0)
(0,0,0)
(0,0,0)
(0,0,0)
(0,0,0)
(0,0,0)
(0,0,0)
(0,0,0)
(0,0,0)
(0,0,0)
(0,0,0)
(0,0,0)
(0,0,0)
(0,0,0)
(0,0,0)
(0,0,0)
(0,0,0)
(0,0,0)
(0,0,0)
(0,0,0)
(0,0,0)
(0,0,0)
(0,0,0)
(0,0,0)
(0,0,0)
(0,0,0)
(0,0,0)
(0,0,0)
(0,0,0)
(0,0,0)
(0,0,0)
(0,0,0)
(0,0,0)
(0,0,0)
(0,0,0)
(0,0,0)
(0,0,0)
(0,0,0)
(0,0,0)
(0,0,0)
(0,0,0)
(0,0,0)
(0,0,0)
(0,0,0)
(0,0,0)
(0,0,0)
(0,0,0)
(0,0,0)
(0,0,0)
(0,0,0)
(0,0,0)
(0,0,0)
(0,0,0)
(0,0,0)
(0,0,0)
(0,0,0)
(0,0,0)
(0,0,0)
(0,0,0)
(0,0,0)
(0,0,0)
(0,0,0)
(0,0,0)
(0,0,0)
(0,0,0)
(0,0,0)
(0,0,0)
(0,0,0)
(0,0,0)
(0,0,0)
(0,0,0)
(0,0,0)
(0,0,0)
(0,0,0)
(0,0,0)
(0,0,0)
(0,0,0)
(0,0,0)
(0,0,0)
(0,0,0)
(0,0,0)
(0,0,0)
(7.98721879852918e-13,3.11086632307629e-11,-3.60959528953623e-11)
(1.5212927799339e-12,6.62384410887037e-11,-3.42532444335322e-11)
(2.24841335987639e-12,1.10101763208907e-10,-3.0547709917893e-11)
(2.74876638382746e-12,1.69627372435503e-10,-2.47807756751314e-11)
(3.52312607685749e-12,2.52981765012069e-10,-1.65291098556509e-11)
(3.94222453259673e-12,3.73046937186533e-10,-6.14854748333862e-12)
(3.16836826408925e-12,5.47817317097916e-10,2.90075585153427e-12)
(1.24226417527279e-12,8.02593587465348e-10,5.70877452178967e-12)
(-7.69224847760678e-13,1.16727451704255e-09,4.37896313912306e-12)
(-1.55133207044513e-12,1.61235854500843e-09,2.01331039903416e-12)
(0,0,0)
(0,0,0)
(0,0,0)
(0,0,0)
(0,0,0)
(0,0,0)
(1.67969837850998e-12,2.94732198690133e-11,-7.53317366805349e-11)
(3.46002090621442e-12,6.29856874165537e-11,-7.20563793714414e-11)
(4.48470407304471e-12,1.05246101976902e-10,-6.49699190200091e-11)
(5.1687267548355e-12,1.62779030862709e-10,-5.33609700951168e-11)
(6.61900545117799e-12,2.44530469567055e-10,-3.63418026053223e-11)
(7.48278782747864e-12,3.66204383320243e-10,-1.4422171139484e-11)
(6.13756742604907e-12,5.4709713816453e-10,6.37137868802613e-12)
(1.58755040689042e-12,8.06161657034836e-10,1.16085340566936e-11)
(-2.14409715098872e-12,1.17127871090219e-09,8.3453632953843e-12)
(-3.7635985299743e-12,1.61527883140465e-09,3.73987027871585e-12)
(0,0,0)
(0,0,0)
(0,0,0)
(0,0,0)
(0,0,0)
(0,0,0)
(2.78958005056836e-12,2.64981723293924e-11,-1.22546590234057e-10)
(5.41049524684451e-12,5.69004390562753e-11,-1.18507363467716e-10)
(7.02025771844074e-12,9.53913248497179e-11,-1.08856768887987e-10)
(8.19454677220209e-12,1.4812742746905e-10,-9.24091951275923e-11)
(1.04803365032039e-11,2.25705310123832e-10,-6.70271796667384e-11)
(1.20786085967716e-11,3.48992573814668e-10,-3.13672947018998e-11)
(1.11141674074806e-11,5.44638487853328e-10,7.68704229064608e-12)
(1.42799081515916e-12,8.13660974340078e-10,1.22943247100605e-11)
(-4.03675541652388e-12,1.17930403013267e-09,5.84174838212354e-12)
(-5.84506822907409e-12,1.62141101679357e-09,1.30160072131418e-12)
(0,0,0)
(0,0,0)
(0,0,0)
(0,0,0)
(0,0,0)
(0,0,0)
(3.51151825442815e-12,2.28116944986319e-11,-1.84294430802907e-10)
(7.06728429725622e-12,4.84761453223775e-11,-1.80139757857802e-10)
(9.88317236858266e-12,8.08871046710558e-11,-1.69372769774581e-10)
(1.22121356247938e-11,1.251374973463e-10,-1.5026774819096e-10)
(1.59359743529281e-11,1.93081007720433e-10,-1.19863153763264e-10)
(1.93005519833221e-11,3.12633601443833e-10,-7.3812399165209e-11)
(1.98379623514901e-11,5.3637366390241e-10,-1.24979670614808e-11)
(2.85484474922266e-13,8.26645696449479e-10,-1.23597736761991e-11)
(-5.96298817243828e-12,1.1896556537322e-09,-1.67373361783757e-11)
(-7.42354242717166e-12,1.62697490221738e-09,-1.17437603953477e-11)
(0,0,0)
(0,0,0)
(0,0,0)
(0,0,0)
(0,0,0)
(0,0,0)
(3.55515397410536e-12,1.8495875782421e-11,-2.68598383506492e-10)
(7.83674004781935e-12,3.84547982977936e-11,-2.64073109726696e-10)
(1.17198532948505e-11,6.32042392611042e-11,-2.53591792144216e-10)
(1.5288878129242e-11,9.57183275776069e-11,-2.36130960667635e-10)
(2.09477020081322e-11,1.46567852190869e-10,-2.10524849131042e-10)
(2.50200498767682e-11,2.42644341830083e-10,-1.79279610693978e-10)
(-5.85255226172253e-12,4.72894166034399e-10,-1.81385403475091e-10)
(-1.03175073504614e-11,8.39214481753876e-10,-1.17646950466967e-10)
(-9.74307281680748e-12,1.19325030582815e-09,-8.01699810094343e-11)
(-9.17030760581811e-12,1.62066235957775e-09,-4.22325297304026e-11)
(0,0,0)
(0,0,0)
(0,0,0)
(0,0,0)
(0,0,0)
(0,0,0)
(3.60020560584819e-12,1.35589240399921e-11,-3.85666093421484e-10)
(7.56748535684998e-12,2.79268724042356e-11,-3.81829778080123e-10)
(1.15574691291004e-11,4.55205048123793e-11,-3.73564060386112e-10)
(1.52635209614793e-11,6.70212051589948e-11,-3.60745798183637e-10)
(1.95783476690666e-11,1.0253591007284e-10,-3.43449695650318e-10)
(2.1522938980343e-11,1.89821588742984e-10,-3.21191749917853e-10)
(-3.96341780633596e-12,4.7446185610932e-10,-3.15293923022795e-10)
(-1.09365357596952e-11,8.27558883057815e-10,-2.50404407210154e-10)
(-9.84454239352685e-12,1.1662686854559e-09,-1.74319249199746e-10)
(-8.15197915062946e-12,1.58356935877807e-09,-9.00117564587338e-11)
(0,0,0)
(0,0,0)
(0,0,0)
(0,0,0)
(0,0,0)
(0,0,0)
(3.32197077824698e-12,9.10198218572278e-12,-5.51944131339415e-10)
(6.55653363501939e-12,1.86458698411727e-11,-5.49620688468327e-10)
(9.80960003885687e-12,3.04669190841557e-11,-5.45053719967832e-10)
(1.16942551128051e-11,4.31035155262374e-11,-5.39258376772739e-10)
(7.36083558882485e-12,6.0987490753599e-11,-5.3648790026787e-10)
(-1.44942384471417e-11,1.14017593280969e-10,-5.39243573799804e-10)
(-2.95567125864624e-13,4.36071999615784e-10,-4.65449867000999e-10)
(-5.71736474144686e-12,7.73443019786246e-10,-4.48998883462677e-10)
(-6.74293955607883e-12,1.09152909840816e-09,-3.11977421247111e-10)
(-5.54503311054127e-12,1.49802748488565e-09,-1.60403674326623e-10)
(0,0,0)
(0,0,0)
(0,0,0)
(0,0,0)
(0,0,0)
(0,0,0)
(3.24135017376746e-12,5.623592967904e-12,-7.96348233545148e-10)
(5.88378329161709e-12,1.21654018467045e-11,-7.95057601470111e-10)
(8.38376739312286e-12,2.12801480032219e-11,-7.9270029621609e-10)
(1.05403015062895e-11,3.41418182730922e-11,-7.90029205441472e-10)
(8.93112200968392e-12,6.19588022252845e-11,-7.89638460891096e-10)
(8.6260807351287e-13,1.46570408148203e-10,-7.91946549896721e-10)
(1.02730219681642e-12,3.98434079912995e-10,-7.70935747981436e-10)
(-2.37955459230165e-12,6.40953074674662e-10,-6.56358071882175e-10)
(-3.96405470676593e-12,9.44072506304962e-10,-4.78116855695812e-10)
(-3.55840681854675e-12,1.34023276430266e-09,-2.57573920949617e-10)
(0,0,0)
(0,0,0)
(0,0,0)
(0,0,0)
(0,0,0)
(0,0,0)
(3.10109069220482e-12,3.05960526749101e-12,-1.15195006261784e-09)
(5.6976288916295e-12,7.61888637795982e-12,-1.15166301920584e-09)
(7.76721914694657e-12,1.48969508688429e-11,-1.15029003838917e-09)
(1.00528740803644e-11,2.7846129806598e-11,-1.1470139881387e-09)
(1.00238574953711e-11,5.67046817454665e-11,-1.14016892952386e-09)
(6.78174052165613e-12,1.28126213520278e-10,-1.1234300672607e-09)
(3.48976210362165e-12,2.8045368072346e-10,-1.07327289254634e-09)
(9.34298777596844e-14,4.63725579622404e-10,-9.42098617814001e-10)
(-1.808345387854e-12,7.25049918008762e-10,-7.28558260102095e-10)
(-1.97389771389402e-12,1.08394711325262e-09,-4.18015062602263e-10)
(0,0,0)
(0,0,0)
(0,0,0)
(0,0,0)
(0,0,0)
(0,0,0)
(2.97349989637808e-12,1.29939941278964e-12,-1.59145258443821e-09)
(5.50199511016616e-12,3.8732761560896e-12,-1.59181141239049e-09)
(7.14045663100762e-12,8.10346072512119e-12,-1.59060254088838e-09)
(9.24478393669107e-12,1.63740116466701e-11,-1.58589252826338e-09)
(9.88280202386894e-12,3.40073903819917e-11,-1.57344773318851e-09)
(8.08601868616425e-12,7.29337298157773e-11,-1.54404967916855e-09)
(4.56495487984545e-12,1.46749048063401e-10,-1.47566847490359e-09)
(1.2234229982989e-12,2.50046209244467e-10,-1.33175381840883e-09)