/*--------------------------------*- C++ -*----------------------------------*\
| =========                 |                                                 |
| \\      /  F ield         | foam-extend: Open Source CFD                    |
|  \\    /   O peration     | Version:     4.0                                |
|   \\  /    A nd           | Web:         http://www.foam-extend.org         |
|    \\/     M anipulation  |                                                 |
\*---------------------------------------------------------------------------*/
FoamFile
{
    version 2.0;
    format ascii;
    class volVectorField;
    location "1930";
    object      H;
}
// * * * * * * * * * * * * * * * * * * * * * * * * * * * * * * * * * * * * * //

dimensions      [0 1 -1 0 0 0 0];

internalField   nonuniform List<vector>
4096
(
(0,0,0)
(0,0,0)
(0,0,0)
(0,0,0)
(0,0,0)
(0,0,0)
(0,0,0)
(0,0,0)
(0,0,0)
(0,0,0)
(0,0,0)
(0,0,0)
(0,0,0)
(0,0,0)
(0,0,0)
(0,0,0)
(0,0,0)
(0,0,0)
(0,0,0)
(0,0,0)
(0,0,0)
(0,0,0)
(0,0,0)
(0,0,0)
(0,0,0)
(0,0,0)
(0,0,0)
(0,0,0)
(0,0,0)
(0,0,0)
(0,0,0)
(0,0,0)
(0,0,0)
(0,0,0)
(0,0,0)
(0,0,0)
(0,0,0)
(0,0,0)
(0,0,0)
(0,0,0)
(0,0,0)
(0,0,0)
(0,0,0)
(0,0,0)
(0,0,0)
(0,0,0)
(0,0,0)
(0,0,0)
(0,0,0)
(0,0,0)
(0,0,0)
(0,0,0)
(0,0,0)
(0,0,0)
(0,0,0)
(0,0,0)
(0,0,0)
(0,0,0)
(0,0,0)
(0,0,0)
(0,0,0)
(0,0,0)
(0,0,0)
(0,0,0)
(0,0,0)
(0,0,0)
(0,0,0)
(0,0,0)
(0,0,0)
(0,0,0)
(0,0,0)
(0,0,0)
(0,0,0)
(0,0,0)
(0,0,0)
(0,0,0)
(0,0,0)
(0,0,0)
(0,0,0)
(0,0,0)
(0,0,0)
(0,0,0)
(0,0,0)
(0,0,0)
(0,0,0)
(0,0,0)
(0,0,0)
(0,0,0)
(0,0,0)
(0,0,0)
(0,0,0)
(0,0,0)
(0,0,0)
(0,0,0)
(0,0,0)
(0,0,0)
(0,0,0)
(0,0,0)
(0,0,0)
(0,0,0)
(0,0,0)
(0,0,0)
(0,0,0)
(0,0,0)
(0,0,0)
(0,0,0)
(0,0,0)
(0,0,0)
(0,0,0)
(0,0,0)
(0,0,0)
(0,0,0)
(0,0,0)
(0,0,0)
(0,0,0)
(0,0,0)
(0,0,0)
(0,0,0)
(0,0,0)
(0,0,0)
(0,0,0)
(0,0,0)
(0,0,0)
(0,0,0)
(0,0,0)
(0,0,0)
(0,0,0)
(0,0,0)
(0,0,0)
(0,0,0)
(0,0,0)
(0,0,0)
(0,0,0)
(0,0,0)
(0,0,0)
(0,0,0)
(0,0,0)
(0,0,0)
(0,0,0)
(0,0,0)
(0,0,0)
(0,0,0)
(0,0,0)
(0,0,0)
(0,0,0)
(0,0,0)
(0,0,0)
(0,0,0)
(0,0,0)
(0,0,0)
(0,0,0)
(0,0,0)
(0,0,0)
(0,0,0)
(0,0,0)
(0,0,0)
(0,0,0)
(0,0,0)
(0,0,0)
(0,0,0)
(0,0,0)
(0,0,0)
(0,0,0)
(0,0,0)
(0,0,0)
(0,0,0)
(0,0,0)
(0,0,0)
(0,0,0)
(0,0,0)
(0,0,0)
(0,0,0)
(0,0,0)
(0,0,0)
(0,0,0)
(0,0,0)
(0,0,0)
(0,0,0)
(0,0,0)
(0,0,0)
(0,0,0)
(0,0,0)
(0,0,0)
(0,0,0)
(0,0,0)
(0,0,0)
(0,0,0)
(0,0,0)
(0,0,0)
(0,0,0)
(0,0,0)
(0,0,0)
(0,0,0)
(0,0,0)
(0,0,0)
(0,0,0)
(0,0,0)
(0,0,0)
(0,0,0)
(0,0,0)
(0,0,0)
(0,0,0)
(0,0,0)
(0,0,0)
(0,0,0)
(0,0,0)
(0,0,0)
(0,0,0)
(0,0,0)
(0,0,0)
(0,0,0)
(0,0,0)
(0,0,0)
(0,0,0)
(0,0,0)
(0,0,0)
(0,0,0)
(0,0,0)
(0,0,0)
(0,0,0)
(0,0,0)
(0,0,0)
(0,0,0)
(0,0,0)
(0,0,0)
(0,0,0)
(0,0,0)
(0,0,0)
(0,0,0)
(0,0,0)
(0,0,0)
(0,0,0)
(0,0,0)
(0,0,0)
(0,0,0)
(0,0,0)
(0,0,0)
(0,0,0)
(0,0,0)
(0,0,0)
(0,0,0)
(0,0,0)
(0,0,0)
(0,0,0)
(0,0,0)
(0,0,0)
(0,0,0)
(0,0,0)
(0,0,0)
(0,0,0)
(0,0,0)
(0,0,0)
(0,0,0)
(0,0,0)
(0,0,0)
(0,0,0)
(0,0,0)
(0,0,0)
(0,0,0)
(0,0,0)
(0,0,0)
(0,0,0)
(0,0,0)
(0,0,0)
(0,0,0)
(0,0,0)
(0,0,0)
(0,0,0)
(0,0,0)
(0,0,0)
(0,0,0)
(0,0,0)
(0,0,0)
(0,0,0)
(0,0,0)
(0,0,0)
(0,0,0)
(0,0,0)
(0,0,0)
(0,0,0)
(0,0,0)
(0,0,0)
(0,0,0)
(0,0,0)
(0,0,0)
(0,0,0)
(0,0,0)
(0,0,0)
(0,0,0)
(0,0,0)
(0,0,0)
(0,0,0)
(0,0,0)
(0,0,0)
(0,0,0)
(0,0,0)
(0,0,0)
(0,0,0)
(0,0,0)
(0,0,0)
(0,0,0)
(0,0,0)
(0,0,0)
(0,0,0)
(0,0,0)
(0,0,0)
(0,0,0)
(0,0,0)
(0,0,0)
(0,0,0)
(0,0,0)
(0,0,0)
(0,0,0)
(0,0,0)
(0,0,0)
(0,0,0)
(0,0,0)
(0,0,0)
(0,0,0)
(0,0,0)
(0,0,0)
(0,0,0)
(0,0,0)
(0,0,0)
(0,0,0)
(0,0,0)
(0,0,0)
(0,0,0)
(0,0,0)
(0,0,0)
(0,0,0)
(0,0,0)
(0,0,0)
(0,0,0)
(0,0,0)
(0,0,0)
(0,0,0)
(0,0,0)
(0,0,0)
(0,0,0)
(0,0,0)
(0,0,0)
(0,0,0)
(0,0,0)
(0,0,0)
(0,0,0)
(0,0,0)
(0,0,0)
(0,0,0)
(0,0,0)
(0,0,0)
(0,0,0)
(0,0,0)
(0,0,0)
(0,0,0)
(0,0,0)
(0,0,0)
(0,0,0)
(0,0,0)
(0,0,0)
(0,0,0)
(0,0,0)
(0,0,0)
(0,0,0)
(0,0,0)
(0,0,0)
(0,0,0)
(0,0,0)
(0,0,0)
(0,0,0)
(0,0,0)
(0,0,0)
(0,0,0)
(0,0,0)
(0,0,0)
(0,0,0)
(0,0,0)
(0,0,0)
(0,0,0)
(0,0,0)
(0,0,0)
(0,0,0)
(0,0,0)
(0,0,0)
(0,0,0)
(0,0,0)
(0,0,0)
(0,0,0)
(0,0,0)
(0,0,0)
(0,0,0)
(0,0,0)
(0,0,0)
(0,0,0)
(0,0,0)
(0,0,0)
(0,0,0)
(0,0,0)
(0,0,0)
(0,0,0)
(0,0,0)
(0,0,0)
(0,0,0)
(0,0,0)
(0,0,0)
(0,0,0)
(0,0,0)
(0,0,0)
(0,0,0)
(0,0,0)
(0,0,0)
(0,0,0)
(0,0,0)
(0,0,0)
(0,0,0)
(0,0,0)
(0,0,0)
(0,0,0)
(0,0,0)
(0,0,0)
(0,0,0)
(0,0,0)
(0,0,0)
(0,0,0)
(0,0,0)
(0,0,0)
(0,0,0)
(0,0,0)
(0,0,0)
(0,0,0)
(0,0,0)
(0,0,0)
(0,0,0)
(0,0,0)
(0,0,0)
(0,0,0)
(0,0,0)
(0,0,0)
(0,0,0)
(0,0,0)
(0,0,0)
(0,0,0)
(0,0,0)
(0,0,0)
(0,0,0)
(0,0,0)
(0,0,0)
(0,0,0)
(0,0,0)
(0,0,0)
(0,0,0)
(0,0,0)
(0,0,0)
(0,0,0)
(0,0,0)
(0,0,0)
(0,0,0)
(0,0,0)
(0,0,0)
(0,0,0)
(0,0,0)
(0,0,0)
(0,0,0)
(0,0,0)
(0,0,0)
(0,0,0)
(0,0,0)
(0,0,0)
(0,0,0)
(0,0,0)
(0,0,0)
(0,0,0)
(0,0,0)
(0,0,0)
(0,0,0)
(0,0,0)
(0,0,0)
(0,0,0)
(0,0,0)
(0,0,0)
(0,0,0)
(0,0,0)
(0,0,0)
(0,0,0)
(0,0,0)
(0,0,0)
(0,0,0)
(0,0,0)
(0,0,0)
(0,0,0)
(0,0,0)
(0,0,0)
(0,0,0)
(0,0,0)
(0,0,0)
(0,0,0)
(0,0,0)
(0,0,0)
(0,0,0)
(0,0,0)
(0,0,0)
(0,0,0)
(0,0,0)
(0,0,0)
(0,0,0)
(0,0,0)
(0,0,0)
(0,0,0)
(0,0,0)
(0,0,0)
(0,0,0)
(0,0,0)
(0,0,0)
(0,0,0)
(0,0,0)
(0,0,0)
(0,0,0)
(0,0,0)
(0,0,0)
(0,0,0)
(0,0,0)
(0,0,0)
(0,0,0)
(0,0,0)
(0,0,0)
(0,0,0)
(0,0,0)
(0,0,0)
(0,0,0)
(0,0,0)
(0,0,0)
(0,0,0)
(0,0,0)
(0,0,0)
(0,0,0)
(0,0,0)
(0,0,0)
(0,0,0)
(0,0,0)
(0,0,0)
(0,0,0)
(0,0,0)
(0,0,0)
(0,0,0)
(0,0,0)
(0,0,0)
(0,0,0)
(0,0,0)
(0,0,0)
(0,0,0)
(0,0,0)
(0,0,0)
(0,0,0)
(0,0,0)
(0,0,0)
(0,0,0)
(0,0,0)
(0,0,0)
(0,0,0)
(0,0,0)
(0,0,0)
(0,0,0)
(0,0,0)
(0,0,0)
(0,0,0)
(0,0,0)
(0,0,0)
(0,0,0)
(0,0,0)
(0,0,0)
(0,0,0)
(0,0,0)
(0,0,0)
(0,0,0)
(0,0,0)
(0,0,0)
(0,0,0)
(0,0,0)
(0,0,0)
(0,0,0)
(0,0,0)
(0,0,0)
(0,0,0)
(0,0,0)
(0,0,0)
(0,0,0)
(0,0,0)
(0,0,0)
(0,0,0)
(0,0,0)
(0,0,0)
(0,0,0)
(0,0,0)
(0,0,0)
(0,0,0)
(0,0,0)
(0,0,0)
(0,0,0)
(0,0,0)
(0,0,0)
(0,0,0)
(0,0,0)
(0,0,0)
(0,0,0)
(0,0,0)
(0,0,0)
(0,0,0)
(0,0,0)
(0,0,0)
(0,0,0)
(0,0,0)
(0,0,0)
(0,0,0)
(0,0,0)
(0,0,0)
(0,0,0)
(0,0,0)
(0,0,0)
(0,0,0)
(0,0,0)
(0,0,0)
(0,0,0)
(0,0,0)
(0,0,0)
(0,0,0)
(0,0,0)
(0,0,0)
(0,0,0)
(0,0,0)
(0,0,0)
(0,0,0)
(0,0,0)
(0,0,0)
(0,0,0)
(0,0,0)
(0,0,0)
(0,0,0)
(0,0,0)
(0,0,0)
(0,0,0)
(0,0,0)
(0,0,0)
(0,0,0)
(0,0,0)
(0,0,0)
(0,0,0)
(0,0,0)
(0,0,0)
(0,0,0)
(0,0,0)
(0,0,0)
(0,0,0)
(0,0,0)
(0,0,0)
(0,0,0)
(0,0,0)
(0,0,0)
(0,0,0)
(0,0,0)
(0,0,0)
(0,0,0)
(0,0,0)
(0,0,0)
(0,0,0)
(0,0,0)
(0,0,0)
(0,0,0)
(0,0,0)
(0,0,0)
(0,0,0)
(0,0,0)
(0,0,0)
(0,0,0)
(0,0,0)
(0,0,0)
(0,0,0)
(0,0,0)
(0,0,0)
(0,0,0)
(0,0,0)
(0,0,0)
(0,0,0)
(0,0,0)
(0,0,0)
(0,0,0)
(0,0,0)
(0,0,0)
(0,0,0)
(0,0,0)
(0,0,0)
(0,0,0)
(0,0,0)
(0,0,0)
(0,0,0)
(0,0,0)
(0,0,0)
(0,0,0)
(0,0,0)
(0,0,0)
(0,0,0)
(0,0,0)
(0,0,0)
(0,0,0)
(0,0,0)
(0,0,0)
(0,0,0)
(0,0,0)
(0,0,0)
(0,0,0)
(0,0,0)
(0,0,0)
(0,0,0)
(0,0,0)
(0,0,0)
(0,0,0)
(0,0,0)
(0,0,0)
(0,0,0)
(0,0,0)
(0,0,0)
(0,0,0)
(0,0,0)
(0,0,0)
(0,0,0)
(0,0,0)
(0,0,0)
(0,0,0)
(0,0,0)
(0,0,0)
(0,0,0)
(0,0,0)
(0,0,0)
(0,0,0)
(0,0,0)
(0,0,0)
(0,0,0)
(0,0,0)
(0,0,0)
(0,0,0)
(0,0,0)
(0,0,0)
(0,0,0)
(0,0,0)
(0,0,0)
(0,0,0)
(0,0,0)
(0,0,0)
(0,0,0)
(0,0,0)
(0,0,0)
(0,0,0)
(0,0,0)
(0,0,0)
(0,0,0)
(0,0,0)
(0,0,0)
(0,0,0)
(0,0,0)
(0,0,0)
(0,0,0)
(0,0,0)
(0,0,0)
(0,0,0)
(0,0,0)
(0,0,0)
(0,0,0)
(0,0,0)
(0,0,0)
(0,0,0)
(0,0,0)
(0,0,0)
(0,0,0)
(0,0,0)
(0,0,0)
(0,0,0)
(0,0,0)
(0,0,0)
(0,0,0)
(0,0,0)
(0,0,0)
(0,0,0)
(0,0,0)
(0,0,0)
(0,0,0)
(0,0,0)
(0,0,0)
(0,0,0)
(0,0,0)
(0,0,0)
(0,0,0)
(0,0,0)
(0,0,0)
(0,0,0)
(0,0,0)
(0,0,0)
(0,0,0)
(0,0,0)
(0,0,0)
(0,0,0)
(0,0,0)
(0,0,0)
(0,0,0)
(0,0,0)
(0,0,0)
(0,0,0)
(0,0,0)
(0,0,0)
(0,0,0)
(0,0,0)
(0,0,0)
(0,0,0)
(0,0,0)
(0,0,0)
(0,0,0)
(0,0,0)
(0,0,0)
(0,0,0)
(0,0,0)
(0,0,0)
(-4.38584112541589e-13,-1.04987168775191e-11,1.18048927605436e-11)
(-9.65457797891873e-13,-2.25454080599849e-11,1.17776292080231e-11)
(-2.18436052175132e-12,-3.85722543837742e-11,1.09394885057985e-11)
(-2.66592064193809e-12,-6.04725893078238e-11,8.92533963676417e-12)
(-2.17955875889848e-12,-9.32730866899428e-11,6.55677367332767e-12)
(-1.04252992592829e-12,-1.46205032349804e-10,3.97888928904172e-12)
(9.31286950386838e-13,-2.32600420110535e-10,1.87701162518994e-12)
(1.89910751979338e-12,-3.76395924964568e-10,8.92299959362647e-13)
(2.88673497135634e-12,-6.14865744896073e-10,4.72866128468151e-13)
(2.85784853543608e-12,-9.47498152822378e-10,1.56135249270942e-13)
(0,0,0)
(0,0,0)
(0,0,0)
(0,0,0)
(0,0,0)
(0,0,0)
(-1.09484002982478e-12,-9.67098485717311e-12,2.49474011503548e-11)
(-1.64417052394686e-12,-2.12750431418423e-11,2.43822186479712e-11)
(-3.18282139746769e-12,-3.66073263387588e-11,2.25153040707343e-11)
(-4.83702667617969e-12,-5.82024967118018e-11,1.92732551457538e-11)
(-4.66679893436326e-12,-9.09934518456683e-11,1.49961805001437e-11)
(-2.94457984730483e-12,-1.44351075422429e-10,1.02413861068545e-11)
(-1.43454935639238e-13,-2.31702635035744e-10,5.9509574763631e-12)
(1.99729062713011e-12,-3.76355182723231e-10,3.57179682064192e-12)
(3.61268174286876e-12,-6.14970850707013e-10,2.33873714180379e-12)
(3.73313036103176e-12,-9.47710054071883e-10,1.09996104309103e-12)
(0,0,0)
(0,0,0)
(0,0,0)
(0,0,0)
(0,0,0)
(0,0,0)
(-8.39910291931241e-13,-8.88681000260652e-12,4.18518965745891e-11)
(-1.13419632383667e-12,-1.93719065084787e-11,4.09135230022652e-11)
(-2.58249732388081e-12,-3.35331317673512e-11,3.81499479616602e-11)
(-5.27588233559102e-12,-5.42766309273729e-11,3.38151060998144e-11)
(-6.26621926340596e-12,-8.65386875356697e-11,2.78162291115361e-11)
(-5.70678026072932e-12,-1.4014086247716e-10,2.12044082522988e-11)
(-3.80422364542269e-12,-2.29422049512515e-10,1.47989107777687e-11)
(-1.225162247774e-12,-3.75961115268884e-10,1.05898319478212e-11)
(1.34873153484394e-12,-6.15227670810884e-10,7.43692559333895e-12)
(2.62457204869308e-12,-9.48229615546476e-10,3.83305722596505e-12)
(0,0,0)
(0,0,0)
(0,0,0)
(0,0,0)
(0,0,0)
(0,0,0)
(-1.31286087450841e-12,-8.03696146540342e-12,6.56574002099362e-11)
(-2.44600578107014e-12,-1.65506330839765e-11,6.40031319852065e-11)
(-3.71882157469335e-12,-2.88520995717293e-11,6.0770979877219e-11)
(-6.18378574441874e-12,-4.80990210552572e-11,5.63002633998122e-11)
(-8.55197758372599e-12,-7.94038414131827e-11,4.99025726879507e-11)
(-9.80499942727418e-12,-1.32883051077985e-10,4.2007655102462e-11)
(-9.35675293381554e-12,-2.2476345061243e-10,3.35659202942191e-11)
(-6.85102819500635e-12,-3.73999213164653e-10,2.57160396764066e-11)
(-3.62066427215522e-12,-6.13506141771885e-10,1.77072476907896e-11)
(-1.19600978417655e-12,-9.45969900992919e-10,9.03853480131002e-12)
(0,0,0)
(0,0,0)
(0,0,0)
(0,0,0)
(0,0,0)
(0,0,0)
(-2.80127569064074e-12,-6.48103486986893e-12,9.90782436400114e-11)
(-5.80970873557525e-12,-1.33113650597452e-11,9.74285377564074e-11)
(-7.93223594031693e-12,-2.35152252569999e-11,9.42818769986117e-11)
(-1.03142237020477e-11,-4.03245837228576e-11,8.99005266344192e-11)
(-1.26782899020352e-11,-6.97977918033359e-11,8.36195551819288e-11)
(-1.39023084424932e-11,-1.22670182477832e-10,7.58147220005148e-11)
(-1.31177109078678e-11,-2.16393649167011e-10,6.68054480752734e-11)
(-1.10827611494964e-11,-3.68331104096194e-10,5.32721884319792e-11)
(-8.42423095406119e-12,-6.07668473601445e-10,3.73015493405336e-11)
(-6.68006916864558e-12,-9.39177524483208e-10,1.9339421431503e-11)
(0,0,0)
(0,0,0)
(0,0,0)
(0,0,0)
(0,0,0)
(0,0,0)
(-4.22639421196672e-12,-4.90861374072673e-12,1.51113478637079e-10)
(-8.37724328598259e-12,-1.02574892845617e-11,1.49819413020785e-10)
(-1.12532053430169e-11,-1.84998026448419e-11,1.47077388112974e-10)
(-1.35384398326044e-11,-3.27091242350118e-11,1.43268353065408e-10)
(-1.57317325689433e-11,-6.00740572542453e-11,1.37605694962877e-10)
(-1.70214668479062e-11,-1.11700095633293e-10,1.29202246674423e-10)
(-1.70462649314805e-11,-2.05204811119337e-10,1.16959502969262e-10)
(-1.60603002353317e-11,-3.55683426074997e-10,9.73948605668089e-11)
(-1.47344512003107e-11,-5.92679501225406e-10,7.06577867897883e-11)
(-1.36625583285452e-11,-9.22405613909153e-10,3.73510737337949e-11)
(0,0,0)
(0,0,0)
(0,0,0)
(0,0,0)
(0,0,0)
(0,0,0)
(-5.57750678964724e-12,-3.69743293371127e-12,2.35764717120727e-10)
(-1.04160744853571e-11,-7.80337482648775e-12,2.34772334544461e-10)
(-1.38770270236008e-11,-1.43853451509387e-11,2.32397017651347e-10)
(-1.63113605964667e-11,-2.60298166298426e-11,2.28971877970102e-10)
(-1.86475254934055e-11,-4.99817537314873e-11,2.24169279473863e-10)
(-1.98182082881145e-11,-9.77622861521194e-11,2.1507001742411e-10)
(-2.17406682915455e-11,-1.87360309225827e-10,1.97502182682336e-10)
(-2.24168457890341e-11,-3.31632518801569e-10,1.69862966030115e-10)
(-2.20716233487426e-11,-5.61779786782524e-10,1.26708640542408e-10)
(-2.19239556081618e-11,-8.86750487827028e-10,6.86526395698053e-11)
(0,0,0)
(0,0,0)
(0,0,0)
(0,0,0)
(0,0,0)
(0,0,0)
(-5.95391550995413e-12,-2.82282442378319e-12,3.75980702466379e-10)
(-1.12102395876277e-11,-5.82839691444856e-12,3.75250661097132e-10)
(-1.55536197032172e-11,-1.09121358121343e-11,3.73556846780079e-10)
(-1.81555255842233e-11,-2.06462887658487e-11,3.70482181326833e-10)
(-2.14755239864794e-11,-4.12796992336373e-11,3.65737133897372e-10)
(-2.44651168194167e-11,-8.29723319166488e-11,3.55198208302351e-10)
(-2.70805820624908e-11,-1.60832677615602e-10,3.32983697315544e-10)
(-2.85045914790651e-11,-2.89549427333856e-10,2.92266198267905e-10)
(-2.87433801129959e-11,-5.04764849340542e-10,2.25477553770641e-10)
(-2.88221898326051e-11,-8.18820965000569e-10,1.27468853916078e-10)
(0,0,0)
(0,0,0)
(0,0,0)
(0,0,0)
(0,0,0)
(0,0,0)
(-5.26995686425745e-12,-1.8867787150827e-12,6.10404823885161e-10)
(-1.03274231897772e-11,-4.04385972700926e-12,6.09788694977414e-10)
(-1.56549869588882e-11,-7.66700546319201e-12,6.08714058087737e-10)
(-1.97474896953102e-11,-1.51528667098958e-11,6.06076122457151e-10)
(-2.43164405345028e-11,-3.10080832513048e-11,6.00624643679131e-10)
(-2.87219277985929e-11,-6.21681581283253e-11,5.87346538801133e-10)
(-3.15103594781899e-11,-1.20350040337973e-10,5.58796335803191e-10)
(-3.41090055360592e-11,-2.22887656123219e-10,5.04316968216575e-10)
(-3.48670643586085e-11,-4.06679128500596e-10,4.0727192655464e-10)
(-3.51216790990353e-11,-6.91163957283786e-10,2.44549709574444e-10)
(0,0,0)
(0,0,0)
(0,0,0)
(0,0,0)
(0,0,0)
(0,0,0)
(-4.85057819022589e-12,-8.5472639773293e-13,9.41088628398436e-10)
(-9.69973072210585e-12,-2.13477813399301e-12,9.40640849914752e-10)
(-1.54894880334906e-11,-4.27005241724005e-12,9.39509623962522e-10)
(-2.01701146215818e-11,-8.34474982030986e-12,9.36421854602753e-10)
(-2.59117997665389e-11,-1.68141146255487e-11,9.29999692888748e-10)
(-3.11523459116356e-11,-3.35868728859073e-11,9.15036555704501e-10)
(-3.38806083793881e-11,-6.57126768544303e-11,8.82554415567024e-10)
(-3.68998426345448e-11,-1.26163568208898e-10,8.17622754794795e-10)
(-3.79858356038059e-11,-2.44037940920687e-10,6.91014463903996e-10)
(-3.797624846228e-11,-4.46434335479244e-10,4.46471486727829e-10)
(0,0,0)
(0,0,0)
(0,0,0)
(0,0,0)
(0,0,0)
(0,0,0)
(0,0,0)
(0,0,0)
(0,0,0)
(0,0,0)
(0,0,0)
(0,0,0)
(0,0,0)
(0,0,0)
(0,0,0)
(0,0,0)
(0,0,0)
(0,0,0)
(0,0,0)
(0,0,0)
(0,0,0)
(0,0,0)
(0,0,0)
(0,0,0)
(0,0,0)
(0,0,0)
(0,0,0)
(0,0,0)
(0,0,0)
(0,0,0)
(0,0,0)
(0,0,0)
(0,0,0)
(0,0,0)
(0,0,0)
(0,0,0)
(0,0,0)
(0,0,0)
(0,0,0)
(0,0,0)
(0,0,0)
(0,0,0)
(0,0,0)
(0,0,0)
(0,0,0)
(0,0,0)
(0,0,0)
(0,0,0)
(0,0,0)
(0,0,0)
(0,0,0)
(0,0,0)
(0,0,0)
(0,0,0)
(0,0,0)
(0,0,0)
(0,0,0)
(0,0,0)
(0,0,0)
(0,0,0)
(0,0,0)
(0,0,0)
(0,0,0)
(0,0,0)
(0,0,0)
(0,0,0)
(0,0,0)
(0,0,0)
(0,0,0)
(0,0,0)
(0,0,0)
(0,0,0)
(0,0,0)
(0,0,0)
(0,0,0)
(0,0,0)
(0,0,0)
(0,0,0)
(0,0,0)
(0,0,0)
(0,0,0)
(0,0,0)
(0,0,0)
(0,0,0)
(0,0,0)
(0,0,0)
(0,0,0)
(0,0,0)
(0,0,0)
(0,0,0)
(0,0,0)
(0,0,0)
(0,0,0)
(0,0,0)
(0,0,0)
(0,0,0)
(0,0,0)
(0,0,0)
(0,0,0)
(0,0,0)
(0,0,0)
(0,0,0)
(-1.23905258037046e-12,-1.93504332511824e-11,2.29919819635847e-11)
(-1.39768201381103e-12,-4.1684608160022e-11,2.18557938152507e-11)
(-2.13513969775579e-12,-7.11160209133173e-11,1.9411495335358e-11)
(-2.56744727452359e-12,-1.10907405454891e-10,1.5327327704543e-11)
(-1.88130921893369e-12,-1.6987132076387e-10,1.08034679310833e-11)
(-7.94609189426281e-13,-2.61832608194687e-10,5.9487569641123e-12)
(1.01821354148759e-12,-4.08948668986805e-10,1.44036418735879e-12)
(2.27779910918812e-12,-6.58257497176916e-10,-8.84232802643508e-13)
(3.30857166114708e-12,-1.13490460572168e-09,-1.40430535719603e-12)
(3.22588503376208e-12,-2.22710437791673e-09,-8.47950928654347e-13)
(0,0,0)
(0,0,0)
(0,0,0)
(0,0,0)
(0,0,0)
(0,0,0)
(-1.31383238200652e-12,-1.82446059127879e-11,4.7942996743581e-11)
(-1.68039258007071e-12,-3.94209019005515e-11,4.59798511092052e-11)
(-3.0149670438861e-12,-6.75638398336126e-11,4.15723344868675e-11)
(-4.48581781500534e-12,-1.06747515831598e-10,3.48344288486041e-11)
(-4.36676885107508e-12,-1.65417691581311e-10,2.61442694386025e-11)
(-2.86436416210986e-12,-2.58153710504134e-10,1.5742043584525e-11)
(-4.48798032400406e-14,-4.07487383659677e-10,5.72667626741583e-12)
(2.83628285183606e-12,-6.59006832165198e-10,7.85439041604902e-13)
(5.10827794584783e-12,-1.13635735392697e-09,-2.36233952819879e-13)
(5.3526528789506e-12,-2.22883614441142e-09,-1.16918747543679e-13)
(0,0,0)
(0,0,0)
(0,0,0)
(0,0,0)
(0,0,0)
(0,0,0)
(-7.5138525680951e-13,-1.67111927927774e-11,7.81458249245381e-11)
(-1.19189470772885e-12,-3.54149474497381e-11,7.60918551538344e-11)
(-2.92868765764094e-12,-6.12689349987409e-11,7.07194608842336e-11)
(-5.45461521942431e-12,-9.84459279176134e-11,6.17680985134847e-11)
(-6.78924452670654e-12,-1.5550081890479e-10,4.91133983093946e-11)
(-6.55909418537807e-12,-2.49156449842749e-10,3.35982114034174e-11)
(-4.25374371553446e-12,-4.03718300197099e-10,1.79017721961786e-11)
(-3.41579976588446e-14,-6.60260796759124e-10,1.05172942424491e-11)
(3.23107086299697e-12,-1.13880017555918e-09,7.55184465267178e-12)
(4.19791472090611e-12,-2.23120652929974e-09,4.44883169700373e-12)
(0,0,0)
(0,0,0)
(0,0,0)
(0,0,0)
(0,0,0)
(0,0,0)
(-1.21451924531389e-12,-1.46853144005726e-11,1.20816696742735e-10)
(-2.45312169731706e-12,-2.99375731515552e-11,1.17868692203561e-10)
(-4.58497941202376e-12,-5.20260705078376e-11,1.11838481367801e-10)
(-7.56053236495216e-12,-8.5404847229687e-11,1.01708194349018e-10)
(-1.02631096080912e-11,-1.39195116977605e-10,8.72943194314907e-11)
(-1.15761332191677e-11,-2.32366961982403e-10,6.88372485110378e-11)
(-9.87667376143901e-12,-3.95224090631429e-10,4.8635442351464e-11)
(-4.51034527777493e-12,-6.60416943231766e-10,3.64033843858068e-11)
(-7.89619552669312e-13,-1.1396488944977e-09,2.63094765318578e-11)
(1.05014850827299e-12,-2.23064312531552e-09,1.43925089545374e-11)
(0,0,0)
(0,0,0)
(0,0,0)
(0,0,0)
(0,0,0)
(0,0,0)
(-2.723990936179e-12,-1.18851957597296e-11,1.80453934408958e-10)
(-5.7169237529652e-12,-2.40172646044927e-11,1.7747083387134e-10)
(-8.56630818828294e-12,-4.14923668046438e-11,1.71633383916146e-10)
(-1.16487117374065e-11,-6.92787757593346e-11,1.62124095016216e-10)
(-1.45971912697021e-11,-1.17417494426443e-10,1.49093051242221e-10)
(-1.58631213617957e-11,-2.06656305321594e-10,1.33679621470275e-10)
(-1.07732893122481e-11,-3.75940464567123e-10,1.1921979087807e-10)
(-7.75980007905398e-12,-6.55206871804559e-10,9.19592088652018e-11)
(-5.4510754211167e-12,-1.13371927559561e-09,6.40252251586372e-11)
(-4.11255831160117e-12,-2.22153281946744e-09,3.35470369923709e-11)
(0,0,0)
(0,0,0)
(0,0,0)
(0,0,0)
(0,0,0)
(0,0,0)
(-4.14350940268729e-12,-8.86178480797495e-12,2.71259528128814e-10)
(-8.08933283624639e-12,-1.80810744567314e-11,2.68550779478027e-10)
(-1.15586277893581e-11,-3.13728990071953e-11,2.63374514856712e-10)
(-1.45550893352331e-11,-5.34956285500941e-11,2.55850481078462e-10)
(-1.74205878032352e-11,-9.58329914827698e-11,2.4554679640648e-10)
(-1.8716532623952e-11,-1.8203452342644e-10,2.31165914522875e-10)
(-1.53261244224902e-11,-3.59240826320485e-10,2.10975118358951e-10)
(-1.33741337317034e-11,-6.37002682086593e-10,1.74507915559627e-10)
(-1.23274525873273e-11,-1.10988915597772e-09,1.25234600482534e-10)
(-1.19666106767533e-11,-2.19302374047932e-09,6.58483842024814e-11)
(0,0,0)
(0,0,0)
(0,0,0)
(0,0,0)
(0,0,0)
(0,0,0)
(-5.45973272331014e-12,-6.10667751509337e-12,4.1501691143088e-10)
(-1.00157355042807e-11,-1.29487728505355e-11,4.1290168788866e-10)
(-1.39250966811598e-11,-2.31477788383131e-11,4.08832102254329e-10)
(-1.68922899642277e-11,-4.0459470993129e-11,4.0349547128994e-10)
(-1.82503179414827e-11,-7.5782474896262e-11,3.96613743092792e-10)
(-1.70403277817871e-11,-1.53334090760511e-10,3.84088671691227e-10)
(-2.06290832494982e-11,-3.28931105670063e-10,3.50421135361641e-10)
(-2.13456117692183e-11,-5.9500010374432e-10,3.06275338650674e-10)
(-2.10305598184212e-11,-1.05542531469061e-09,2.2597412463046e-10)
(-2.12008388642635e-11,-2.13076367440236e-09,1.2144715907757e-10)
(0,0,0)
(0,0,0)
(0,0,0)
(0,0,0)
(0,0,0)
(0,0,0)
(-6.15991984940839e-12,-4.21558543224176e-12,6.58118039803996e-10)
(-1.13009624580138e-11,-9.0285100443025e-12,6.5658211187736e-10)
(-1.57240845989105e-11,-1.70132019485104e-11,6.53856670788044e-10)
(-1.89039002107145e-11,-3.21243011111316e-11,6.4988596143755e-10)
(-2.12082143738159e-11,-6.48764418062802e-11,6.43648683617677e-10)
(-2.30547796209063e-11,-1.36822817107125e-10,6.297661624055e-10)
(-2.68457202924526e-11,-2.8574735797046e-10,5.94623330832994e-10)
(-2.83777181926147e-11,-5.16347687149868e-10,5.21646817741648e-10)
(-2.88204010982026e-11,-9.52556530451988e-10,4.01071920413948e-10)
(-2.90103436338997e-11,-2.01077509632598e-09,2.2759967838106e-10)
(0,0,0)
(0,0,0)
(0,0,0)
(0,0,0)
(0,0,0)
(0,0,0)
(-5.68588027386028e-12,-2.84553006623567e-12,1.12908264912224e-09)
(-1.11618678931152e-11,-6.03267137118333e-12,1.12765702343497e-09)
(-1.64140043742531e-11,-1.16667386312226e-11,1.12556549135403e-09)
(-2.11041278068715e-11,-2.36962950537591e-11,1.12179692618822e-09)
(-2.52323042822481e-11,-5.01572268002877e-11,1.11378171878642e-09)
(-2.87530100430901e-11,-1.05244632104534e-10,1.09361066569207e-09)
(-3.16683553751113e-11,-2.12114443665167e-10,1.04660238468722e-09)
(-3.37880517884543e-11,-3.95462330911882e-10,9.50671847272459e-10)
(-3.47860349583432e-11,-7.79309027550724e-10,7.80261100897324e-10)
(-3.53015913289967e-11,-1.78342019896531e-09,4.87158411467488e-10)
(0,0,0)
(0,0,0)
(0,0,0)
(0,0,0)
(0,0,0)
(0,0,0)
(-5.25752610427454e-12,-1.42337104312159e-12,2.21806636833459e-09)
(-1.07032829038683e-11,-3.16290414261336e-12,2.21674131345084e-09)
(-1.66717710909642e-11,-6.36012050958371e-12,2.21460958760674e-09)
(-2.20927027278859e-11,-1.30989009898549e-11,2.21001199497039e-09)
(-2.77627772078488e-11,-2.74126091214984e-11,2.19982819913394e-09)
(-3.22570786600768e-11,-5.70723577821098e-11,2.17539299275127e-09)
(-3.46616244616045e-11,-1.14799197860806e-10,2.12020075444178e-09)
(-3.64551199525939e-11,-2.24440673821258e-10,2.00676473542103e-09)
(-3.74807993483264e-11,-4.86065475865117e-10,1.78251320618481e-09)
(-3.7939097213599e-11,-1.29579860165899e-09,1.29595922718559e-09)
(0,0,0)
(0,0,0)
(0,0,0)
(0,0,0)
(0,0,0)
(0,0,0)
(0,0,0)
(0,0,0)
(0,0,0)
(0,0,0)
(0,0,0)
(0,0,0)
(0,0,0)
(0,0,0)
(0,0,0)
(0,0,0)
(0,0,0)
(0,0,0)
(0,0,0)
(0,0,0)
(0,0,0)
(0,0,0)
(0,0,0)
(0,0,0)
(0,0,0)
(0,0,0)
(0,0,0)
(0,0,0)
(0,0,0)
(0,0,0)
(0,0,0)
(0,0,0)
(0,0,0)
(0,0,0)
(0,0,0)
(0,0,0)
(0,0,0)
(0,0,0)
(0,0,0)
(0,0,0)
(0,0,0)
(0,0,0)
(0,0,0)
(0,0,0)
(0,0,0)
(0,0,0)
(0,0,0)
(0,0,0)
(0,0,0)
(0,0,0)
(0,0,0)
(0,0,0)
(0,0,0)
(0,0,0)
(0,0,0)
(0,0,0)
(0,0,0)
(0,0,0)
(0,0,0)
(0,0,0)
(0,0,0)
(0,0,0)
(0,0,0)
(0,0,0)
(0,0,0)
(0,0,0)
(0,0,0)
(0,0,0)
(0,0,0)
(0,0,0)
(0,0,0)
(0,0,0)
(0,0,0)
(0,0,0)
(0,0,0)
(0,0,0)
(0,0,0)
(0,0,0)
(0,0,0)
(0,0,0)
(0,0,0)
(0,0,0)
(0,0,0)
(0,0,0)
(0,0,0)
(0,0,0)
(0,0,0)
(0,0,0)
(0,0,0)
(0,0,0)
(0,0,0)
(0,0,0)
(0,0,0)
(0,0,0)
(0,0,0)
(0,0,0)
(0,0,0)
(0,0,0)
(0,0,0)
(0,0,0)
(0,0,0)
(0,0,0)
(-1.20869177044504e-12,-2.57703418184275e-11,3.1776512758834e-11)
(-1.21708979366083e-12,-5.61395079078711e-11,2.98308893104265e-11)
(-1.60315314606474e-12,-9.48813083477511e-11,2.64271243902861e-11)
(-2.20347712411434e-12,-1.45745418007543e-10,2.06133178883217e-11)
(-1.48022743478673e-12,-2.18648467536602e-10,1.31174804809829e-11)
(3.48858969536636e-14,-3.2659649527634e-10,4.70229534002956e-12)
(1.88152520385586e-12,-4.84544079093981e-10,-2.74755325228748e-12)
(3.54720665206819e-12,-7.1401345588372e-10,-5.2126989705653e-12)
(4.20496543798362e-12,-1.0392949058663e-09,-4.47710691894384e-12)
(4.10970059961123e-12,-1.43491089839235e-09,-2.42807737552288e-12)
(0,0,0)
(0,0,0)
(0,0,0)
(0,0,0)
(0,0,0)
(0,0,0)
(-8.84099867937285e-13,-2.44688828420423e-11,6.61923898396319e-11)
(-1.2788304092546e-12,-5.32692222522822e-11,6.32500988514472e-11)
(-2.57196624148117e-12,-9.02979459271145e-11,5.71087258715096e-11)
(-4.09724631801975e-12,-1.39898834263424e-10,4.67359808709724e-11)
(-3.88141567366423e-12,-2.11661787587295e-10,3.17127476673603e-11)
(-1.84625750629571e-12,-3.20675672065284e-10,1.2786039388031e-11)
(1.12727395896243e-12,-4.83575701407687e-10,-5.25082149166226e-12)
(5.11192044138111e-12,-7.16670286459967e-10,-9.96159421171344e-12)
(7.43178437275295e-12,-1.04301291665626e-09,-7.17254633961581e-12)
(7.60611901995695e-12,-1.43872488983047e-09,-3.11449531431255e-12)
(0,0,0)
(0,0,0)
(0,0,0)
(0,0,0)
(0,0,0)
(0,0,0)
(-7.23293880266628e-13,-2.2158610036059e-11,1.07110423052389e-10)
(-1.29687473522418e-12,-4.75790439384994e-11,1.03699696717925e-10)
(-3.22018977718822e-12,-8.10632413295595e-11,9.59047178884082e-11)
(-5.84099570389975e-12,-1.26714809824777e-10,8.18325916928128e-11)
(-7.57975954796856e-12,-1.94686291345129e-10,5.9563053869934e-11)
(-7.65214283851109e-12,-3.0538231726433e-10,2.88339463586039e-11)
(-5.3634753265624e-12,-4.81922189093374e-10,-5.11845034856809e-12)
(3.08743806375557e-12,-7.24393813166066e-10,-9.34246734614706e-12)
(7.18280275817136e-12,-1.05110980580009e-09,-3.58902289837409e-12)
(8.08334243296947e-12,-1.44512860819087e-09,1.20803251762194e-13)
(0,0,0)
(0,0,0)
(0,0,0)
(0,0,0)
(0,0,0)
(0,0,0)
(-1.06663334768124e-12,-1.87692175024736e-11,1.61444935193421e-10)
(-2.34321940743166e-12,-3.95109641439612e-11,1.56974873111615e-10)
(-4.98839609707088e-12,-6.71090396392101e-11,1.47888420822436e-10)
(-9.27272891846384e-12,-1.05492821137351e-10,1.31637515870715e-10)
(-1.35836612380588e-11,-1.6559712967142e-10,1.05707544372018e-10)
(-1.70849837210205e-11,-2.73408246333926e-10,6.67703909240114e-11)
(-1.69282418598119e-11,-4.76118211449288e-10,1.41324618856872e-11)
(3.73491149336939e-13,-7.39012876759608e-10,1.30031215786559e-11)
(5.19772912291686e-12,-1.06247426241695e-09,1.63938243223418e-11)
(6.33235161410607e-12,-1.45133029177999e-09,1.14249366970674e-11)
(0,0,0)
(0,0,0)
(0,0,0)
(0,0,0)
(0,0,0)
(0,0,0)
(-2.76430135074377e-12,-1.46028292143165e-11,2.3417212650967e-10)
(-5.81566394458286e-12,-3.03852747966932e-11,2.29959966467904e-10)
(-9.17648708701294e-12,-5.0747942623588e-11,2.21476766498809e-10)
(-1.44008151724747e-11,-7.9159211956843e-11,2.06832069769336e-10)
(-2.07682644404335e-11,-1.24719619309125e-10,1.84900990660364e-10)
(-2.60250726656893e-11,-2.12110464900066e-10,1.58896939986952e-10)
(-2.12345546935564e-13,-4.22948263534236e-10,1.62082518140123e-10)
(1.96999390953382e-12,-7.55460212697736e-10,1.04212962159717e-10)
(1.19699312886741e-12,-1.06858672368547e-09,7.09917980130274e-11)
(9.25399692155517e-13,-1.44766972493864e-09,3.7387205021361e-11)
(0,0,0)
(0,0,0)
(0,0,0)
(0,0,0)
(0,0,0)
(0,0,0)
(-4.18986804417403e-12,-1.07688640526755e-11,3.39588650216658e-10)
(-8.04536982147264e-12,-2.2201519895335e-11,3.36060460733098e-10)
(-1.2259714180213e-11,-3.56767295460693e-11,3.28969579092311e-10)
(-1.72875622189438e-11,-5.39577777291893e-11,3.18130662988083e-10)
(-2.30902225071631e-11,-8.63662048508907e-11,3.03132667052065e-10)
(-2.72261691258419e-11,-1.66036028220821e-10,2.83648494774743e-10)
(-9.16864227315875e-12,-4.27098119795486e-10,2.75378369917988e-10)
(-6.10339699756841e-12,-7.46938937430724e-10,2.18375600177489e-10)
(-7.40507759369995e-12,-1.04627268505259e-09,1.52568698108823e-10)
(-8.37829255212183e-12,-1.41674668180134e-09,7.87430008710286e-11)
(0,0,0)
(0,0,0)
(0,0,0)
(0,0,0)
(0,0,0)
(0,0,0)
(-5.23560126339339e-12,-7.35196318313233e-12,4.92455308331645e-10)
(-9.86641267673943e-12,-1.52416797307348e-11,4.89828599883681e-10)
(-1.4723042606479e-11,-2.36992061647524e-11,4.85046180942712e-10)
(-1.83457316490401e-11,-3.35341271428755e-11,4.79835549465155e-10)
(-1.66312796296535e-11,-5.01783207845257e-11,4.77538231048779e-10)
(1.15934894222884e-13,-9.90590502161853e-11,4.79805790501538e-10)
(-1.96670342379526e-11,-3.93329812930541e-10,4.08292300251629e-10)
(-1.96968143440054e-11,-6.98859691528322e-10,3.94651889778629e-10)
(-1.93723785037054e-11,-9.8013541308912e-10,2.74928960309219e-10)
(-1.97422578625196e-11,-1.34221874149995e-09,1.41578855452254e-10)
(0,0,0)
(0,0,0)
(0,0,0)
(0,0,0)
(0,0,0)
(0,0,0)
(-5.99404728847111e-12,-5.06243305231917e-12,7.14053573723697e-10)
(-1.15713600416999e-11,-1.04179663771768e-11,7.11993948385548e-10)
(-1.70998385664693e-11,-1.67357767945147e-11,7.08766175620546e-10)
(-2.10946284469847e-11,-2.69085085293487e-11,7.05846556964436e-10)
(-2.20449081684226e-11,-5.24181095557802e-11,7.05197367606834e-10)
(-1.9490133050702e-11,-1.2917977255229e-10,7.06420572235274e-10)
(-2.75021215063563e-11,-3.59637561676453e-10,6.8528866056753e-10)
(-2.86881771040302e-11,-5.7763737473818e-10,5.83659767777202e-10)
(-2.85956619662458e-11,-8.47511876663541e-10,4.25434136095026e-10)
(-2.8765562612887e-11,-1.20156836674106e-09,2.29427365043777e-10)
(0,0,0)
(0,0,0)
(0,0,0)
(0,0,0)
(0,0,0)
(0,0,0)
(-5.68241360982247e-12,-3.47561784607765e-12,1.03318725695027e-09)
(-1.19401030409161e-11,-7.09385342476535e-12,1.03159478158024e-09)
(-1.79520573294808e-11,-1.18319097007457e-11,1.02873775665758e-09)
(-2.36863144688989e-11,-2.19108087307597e-11,1.02509788925729e-09)
(-2.78058688662857e-11,-4.7884560192844e-11,1.01924325040217e-09)
(-2.99170033609835e-11,-1.12436841054595e-10,1.00421514072646e-09)
(-3.30530637649346e-11,-2.50997505655269e-10,9.58928065819818e-10)
(-3.4398962504945e-11,-4.16480483749736e-10,8.41882677365839e-10)
(-3.49268972133051e-11,-6.50419727634771e-10,6.51210803975831e-10)
(-3.57647771679924e-11,-9.71844328689091e-10,3.73715059877489e-10)
(0,0,0)
(0,0,0)
(0,0,0)
(0,0,0)
(0,0,0)
(0,0,0)
(-5.35584226426212e-12,-1.838046799699e-12,1.4251390237429e-09)
(-1.17344612027332e-11,-3.7212689393466e-12,1.42397992620158e-09)
(-1.8434298963728e-11,-6.44602461132808e-12,1.42134226972747e-09)
(-2.50078078816682e-11,-1.28231348212339e-11,1.41672732300183e-09)
(-3.07401799462943e-11,-2.82021002486159e-11,1.40642592996793e-09)