/*--------------------------------*- C++ -*----------------------------------*\
| =========                 |                                                 |
| \\      /  F ield         | foam-extend: Open Source CFD                    |
|  \\    /   O peration     | Version:     4.0                                |
|   \\  /    A nd           | Web:         http://www.foam-extend.org         |
|    \\/     M anipulation  |                                                 |
\*---------------------------------------------------------------------------*/
FoamFile
{
    version 2.0;
    format ascii;
    class volVectorField;
    location "1891";
    object      E;
}
// * * * * * * * * * * * * * * * * * * * * * * * * * * * * * * * * * * * * * //

dimensions      [0 1 -1 0 0 0 0];

internalField   nonuniform List<vector>
4096
(
(0,0,0)
(0,0,0)
(0,0,0)
(0,0,0)
(0,0,0)
(0,0,0)
(0,0,0)
(0,0,0)
(0,0,0)
(0,0,0)
(0,0,0)
(0,0,0)
(0,0,0)
(0,0,0)
(0,0,0)
(0,0,0)
(0,0,0)
(0,0,0)
(0,0,0)
(0,0,0)
(0,0,0)
(0,0,0)
(0,0,0)
(0,0,0)
(0,0,0)
(0,0,0)
(0,0,0)
(0,0,0)
(0,0,0)
(0,0,0)
(0,0,0)
(0,0,0)
(0,0,0)
(0,0,0)
(0,0,0)
(0,0,0)
(0,0,0)
(0,0,0)
(0,0,0)
(0,0,0)
(0,0,0)
(0,0,0)
(0,0,0)
(0,0,0)
(0,0,0)
(0,0,0)
(0,0,0)
(0,0,0)
(0,0,0)
(0,0,0)
(0,0,0)
(0,0,0)
(0,0,0)
(0,0,0)
(0,0,0)
(0,0,0)
(0,0,0)
(0,0,0)
(0,0,0)
(0,0,0)
(0,0,0)
(0,0,0)
(0,0,0)
(0,0,0)
(0,0,0)
(0,0,0)
(0,0,0)
(0,0,0)
(0,0,0)
(0,0,0)
(0,0,0)
(0,0,0)
(0,0,0)
(0,0,0)
(0,0,0)
(0,0,0)
(0,0,0)
(0,0,0)
(0,0,0)
(0,0,0)
(0,0,0)
(0,0,0)
(0,0,0)
(0,0,0)
(0,0,0)
(0,0,0)
(0,0,0)
(0,0,0)
(0,0,0)
(0,0,0)
(0,0,0)
(0,0,0)
(0,0,0)
(0,0,0)
(0,0,0)
(0,0,0)
(0,0,0)
(0,0,0)
(0,0,0)
(0,0,0)
(0,0,0)
(0,0,0)
(0,0,0)
(0,0,0)
(0,0,0)
(0,0,0)
(0,0,0)
(0,0,0)
(0,0,0)
(0,0,0)
(0,0,0)
(0,0,0)
(0,0,0)
(0,0,0)
(0,0,0)
(0,0,0)
(0,0,0)
(0,0,0)
(0,0,0)
(0,0,0)
(0,0,0)
(0,0,0)
(0,0,0)
(0,0,0)
(0,0,0)
(0,0,0)
(0,0,0)
(0,0,0)
(0,0,0)
(0,0,0)
(0,0,0)
(0,0,0)
(0,0,0)
(0,0,0)
(0,0,0)
(0,0,0)
(0,0,0)
(0,0,0)
(0,0,0)
(0,0,0)
(0,0,0)
(0,0,0)
(0,0,0)
(0,0,0)
(0,0,0)
(0,0,0)
(0,0,0)
(0,0,0)
(0,0,0)
(0,0,0)
(0,0,0)
(0,0,0)
(0,0,0)
(0,0,0)
(0,0,0)
(0,0,0)
(0,0,0)
(0,0,0)
(0,0,0)
(0,0,0)
(0,0,0)
(0,0,0)
(0,0,0)
(0,0,0)
(0,0,0)
(0,0,0)
(0,0,0)
(0,0,0)
(0,0,0)
(0,0,0)
(0,0,0)
(0,0,0)
(0,0,0)
(0,0,0)
(0,0,0)
(0,0,0)
(0,0,0)
(0,0,0)
(0,0,0)
(0,0,0)
(0,0,0)
(0,0,0)
(0,0,0)
(0,0,0)
(0,0,0)
(0,0,0)
(0,0,0)
(0,0,0)
(0,0,0)
(0,0,0)
(0,0,0)
(0,0,0)
(0,0,0)
(0,0,0)
(0,0,0)
(0,0,0)
(0,0,0)
(0,0,0)
(0,0,0)
(0,0,0)
(0,0,0)
(0,0,0)
(0,0,0)
(0,0,0)
(0,0,0)
(0,0,0)
(0,0,0)
(0,0,0)
(0,0,0)
(0,0,0)
(0,0,0)
(0,0,0)
(0,0,0)
(0,0,0)
(0,0,0)
(0,0,0)
(0,0,0)
(0,0,0)
(0,0,0)
(0,0,0)
(0,0,0)
(0,0,0)
(0,0,0)
(0,0,0)
(0,0,0)
(0,0,0)
(0,0,0)
(0,0,0)
(0,0,0)
(0,0,0)
(0,0,0)
(0,0,0)
(0,0,0)
(0,0,0)
(0,0,0)
(0,0,0)
(0,0,0)
(0,0,0)
(0,0,0)
(0,0,0)
(0,0,0)
(0,0,0)
(0,0,0)
(0,0,0)
(0,0,0)
(0,0,0)
(0,0,0)
(0,0,0)
(0,0,0)
(0,0,0)
(0,0,0)
(0,0,0)
(0,0,0)
(0,0,0)
(0,0,0)
(0,0,0)
(0,0,0)
(0,0,0)
(0,0,0)
(0,0,0)
(0,0,0)
(0,0,0)
(0,0,0)
(0,0,0)
(0,0,0)
(0,0,0)
(0,0,0)
(0,0,0)
(0,0,0)
(0,0,0)
(0,0,0)
(0,0,0)
(0,0,0)
(0,0,0)
(0,0,0)
(0,0,0)
(0,0,0)
(0,0,0)
(0,0,0)
(0,0,0)
(0,0,0)
(0,0,0)
(0,0,0)
(0,0,0)
(0,0,0)
(0,0,0)
(0,0,0)
(0,0,0)
(0,0,0)
(0,0,0)
(0,0,0)
(0,0,0)
(0,0,0)
(0,0,0)
(0,0,0)
(0,0,0)
(0,0,0)
(0,0,0)
(0,0,0)
(0,0,0)
(0,0,0)
(0,0,0)
(0,0,0)
(0,0,0)
(0,0,0)
(0,0,0)
(0,0,0)
(0,0,0)
(0,0,0)
(0,0,0)
(0,0,0)
(0,0,0)
(0,0,0)
(0,0,0)
(0,0,0)
(0,0,0)
(0,0,0)
(0,0,0)
(0,0,0)
(0,0,0)
(0,0,0)
(0,0,0)
(0,0,0)
(0,0,0)
(0,0,0)
(0,0,0)
(0,0,0)
(0,0,0)
(0,0,0)
(0,0,0)
(0,0,0)
(0,0,0)
(0,0,0)
(0,0,0)
(0,0,0)
(0,0,0)
(0,0,0)
(0,0,0)
(0,0,0)
(0,0,0)
(0,0,0)
(0,0,0)
(0,0,0)
(0,0,0)
(0,0,0)
(0,0,0)
(0,0,0)
(0,0,0)
(0,0,0)
(0,0,0)
(0,0,0)
(0,0,0)
(0,0,0)
(0,0,0)
(0,0,0)
(0,0,0)
(0,0,0)
(0,0,0)
(0,0,0)
(0,0,0)
(0,0,0)
(0,0,0)
(0,0,0)
(0,0,0)
(0,0,0)
(0,0,0)
(0,0,0)
(0,0,0)
(0,0,0)
(0,0,0)
(0,0,0)
(0,0,0)
(0,0,0)
(0,0,0)
(0,0,0)
(0,0,0)
(0,0,0)
(0,0,0)
(0,0,0)
(0,0,0)
(0,0,0)
(0,0,0)
(0,0,0)
(0,0,0)
(0,0,0)
(0,0,0)
(0,0,0)
(0,0,0)
(0,0,0)
(0,0,0)
(0,0,0)
(0,0,0)
(0,0,0)
(0,0,0)
(0,0,0)
(0,0,0)
(0,0,0)
(0,0,0)
(0,0,0)
(0,0,0)
(0,0,0)
(0,0,0)
(0,0,0)
(0,0,0)
(0,0,0)
(0,0,0)
(0,0,0)
(0,0,0)
(0,0,0)
(0,0,0)
(0,0,0)
(0,0,0)
(0,0,0)
(0,0,0)
(0,0,0)
(0,0,0)
(0,0,0)
(0,0,0)
(0,0,0)
(0,0,0)
(0,0,0)
(0,0,0)
(0,0,0)
(0,0,0)
(0,0,0)
(0,0,0)
(0,0,0)
(0,0,0)
(0,0,0)
(0,0,0)
(0,0,0)
(0,0,0)
(0,0,0)
(0,0,0)
(0,0,0)
(0,0,0)
(0,0,0)
(0,0,0)
(0,0,0)
(0,0,0)
(0,0,0)
(0,0,0)
(0,0,0)
(0,0,0)
(0,0,0)
(0,0,0)
(0,0,0)
(0,0,0)
(0,0,0)
(0,0,0)
(0,0,0)
(0,0,0)
(0,0,0)
(0,0,0)
(0,0,0)
(0,0,0)
(0,0,0)
(0,0,0)
(0,0,0)
(0,0,0)
(0,0,0)
(0,0,0)
(0,0,0)
(0,0,0)
(0,0,0)
(0,0,0)
(0,0,0)
(0,0,0)
(0,0,0)
(0,0,0)
(0,0,0)
(0,0,0)
(0,0,0)
(0,0,0)
(0,0,0)
(0,0,0)
(0,0,0)
(0,0,0)
(0,0,0)
(0,0,0)
(0,0,0)
(0,0,0)
(0,0,0)
(0,0,0)
(0,0,0)
(0,0,0)
(0,0,0)
(0,0,0)
(0,0,0)
(0,0,0)
(0,0,0)
(0,0,0)
(0,0,0)
(0,0,0)
(0,0,0)
(0,0,0)
(0,0,0)
(0,0,0)
(0,0,0)
(0,0,0)
(0,0,0)
(0,0,0)
(0,0,0)
(0,0,0)
(0,0,0)
(0,0,0)
(0,0,0)
(0,0,0)
(0,0,0)
(0,0,0)
(0,0,0)
(0,0,0)
(0,0,0)
(0,0,0)
(0,0,0)
(0,0,0)
(0,0,0)
(0,0,0)
(0,0,0)
(0,0,0)
(0,0,0)
(0,0,0)
(0,0,0)
(0,0,0)
(0,0,0)
(0,0,0)
(0,0,0)
(0,0,0)
(0,0,0)
(0,0,0)
(0,0,0)
(0,0,0)
(0,0,0)
(0,0,0)
(0,0,0)
(0,0,0)
(0,0,0)
(0,0,0)
(0,0,0)
(0,0,0)
(0,0,0)
(0,0,0)
(0,0,0)
(0,0,0)
(0,0,0)
(0,0,0)
(0,0,0)
(0,0,0)
(0,0,0)
(0,0,0)
(0,0,0)
(0,0,0)
(0,0,0)
(0,0,0)
(0,0,0)
(0,0,0)
(0,0,0)
(0,0,0)
(0,0,0)
(0,0,0)
(0,0,0)
(0,0,0)
(0,0,0)
(0,0,0)
(0,0,0)
(0,0,0)
(0,0,0)
(0,0,0)
(0,0,0)
(0,0,0)
(0,0,0)
(0,0,0)
(0,0,0)
(0,0,0)
(0,0,0)
(0,0,0)
(0,0,0)
(0,0,0)
(0,0,0)
(0,0,0)
(0,0,0)
(0,0,0)
(0,0,0)
(0,0,0)
(0,0,0)
(0,0,0)
(0,0,0)
(0,0,0)
(0,0,0)
(0,0,0)
(0,0,0)
(0,0,0)
(0,0,0)
(0,0,0)
(0,0,0)
(0,0,0)
(0,0,0)
(0,0,0)
(0,0,0)
(0,0,0)
(0,0,0)
(0,0,0)
(0,0,0)
(0,0,0)
(0,0,0)
(0,0,0)
(0,0,0)
(0,0,0)
(0,0,0)
(0,0,0)
(0,0,0)
(0,0,0)
(0,0,0)
(0,0,0)
(0,0,0)
(0,0,0)
(0,0,0)
(0,0,0)
(0,0,0)
(0,0,0)
(0,0,0)
(0,0,0)
(0,0,0)
(0,0,0)
(0,0,0)
(0,0,0)
(0,0,0)
(0,0,0)
(0,0,0)
(0,0,0)
(0,0,0)
(0,0,0)
(0,0,0)
(0,0,0)
(0,0,0)
(0,0,0)
(0,0,0)
(0,0,0)
(0,0,0)
(0,0,0)
(0,0,0)
(0,0,0)
(0,0,0)
(0,0,0)
(0,0,0)
(0,0,0)
(0,0,0)
(0,0,0)
(0,0,0)
(0,0,0)
(0,0,0)
(0,0,0)
(0,0,0)
(0,0,0)
(0,0,0)
(0,0,0)
(0,0,0)
(0,0,0)
(0,0,0)
(0,0,0)
(0,0,0)
(0,0,0)
(0,0,0)
(0,0,0)
(0,0,0)
(0,0,0)
(0,0,0)
(0,0,0)
(0,0,0)
(0,0,0)
(0,0,0)
(0,0,0)
(0,0,0)
(0,0,0)
(0,0,0)
(0,0,0)
(0,0,0)
(0,0,0)
(0,0,0)
(0,0,0)
(0,0,0)
(0,0,0)
(0,0,0)
(0,0,0)
(0,0,0)
(0,0,0)
(0,0,0)
(0,0,0)
(0,0,0)
(0,0,0)
(0,0,0)
(0,0,0)
(0,0,0)
(0,0,0)
(0,0,0)
(0,0,0)
(0,0,0)
(0,0,0)
(0,0,0)
(0,0,0)
(0,0,0)
(0,0,0)
(0,0,0)
(0,0,0)
(0,0,0)
(0,0,0)
(0,0,0)
(0,0,0)
(0,0,0)
(0,0,0)
(0,0,0)
(0,0,0)
(0,0,0)
(0,0,0)
(0,0,0)
(0,0,0)
(0,0,0)
(0,0,0)
(0,0,0)
(0,0,0)
(0,0,0)
(0,0,0)
(0,0,0)
(0,0,0)
(0,0,0)
(0,0,0)
(0,0,0)
(0,0,0)
(0,0,0)
(0,0,0)
(0,0,0)
(0,0,0)
(0,0,0)
(0,0,0)
(0,0,0)
(0,0,0)
(0,0,0)
(0,0,0)
(0,0,0)
(0,0,0)
(0,0,0)
(0,0,0)
(0,0,0)
(0,0,0)
(0,0,0)
(0,0,0)
(0,0,0)
(0,0,0)
(0,0,0)
(0,0,0)
(0,0,0)
(0,0,0)
(0,0,0)
(0,0,0)
(0,0,0)
(0,0,0)
(0,0,0)
(0,0,0)
(0,0,0)
(0,0,0)
(0,0,0)
(0,0,0)
(0,0,0)
(0,0,0)
(0,0,0)
(0,0,0)
(0,0,0)
(0,0,0)
(0,0,0)
(0,0,0)
(0,0,0)
(0,0,0)
(0,0,0)
(0,0,0)
(0,0,0)
(0,0,0)
(0,0,0)
(0,0,0)
(0,0,0)
(0,0,0)
(0,0,0)
(0,0,0)
(0,0,0)
(0,0,0)
(0,0,0)
(0,0,0)
(0,0,0)
(0,0,0)
(0,0,0)
(0,0,0)
(0,0,0)
(0,0,0)
(0,0,0)
(0,0,0)
(0,0,0)
(0,0,0)
(0,0,0)
(0,0,0)
(0,0,0)
(0,0,0)
(0,0,0)
(0,0,0)
(0,0,0)
(0,0,0)
(0,0,0)
(0,0,0)
(0,0,0)
(0,0,0)
(0,0,0)
(0,0,0)
(0,0,0)
(0,0,0)
(0,0,0)
(0,0,0)
(0,0,0)
(0,0,0)
(0,0,0)
(0,0,0)
(0,0,0)
(-62415.0817309162,33222.6593706289,29192.4223602855)
(-65984.7003282262,31849.8821084141,63327.2405800977)
(-74318.6109726588,29015.0915535654,108630.759999191)
(-90050.833397413,24472.3180173497,174209.27537926)
(-118455.118072882,18357.152335117,274307.241117034)
(-169496.869206121,11365.1010836017,432439.009239545)
(-261869.196377313,5033.5432645032,689274.662352378)
(-428795.55191503,1156.90742978274,1116913.30683767)
(-707358.83273201,-100.234832104566,1824372.37440175)
(-985711.05385469,-142.292479909223,2810225.72073638)
(0,0,0)
(0,0,0)
(0,0,0)
(0,0,0)
(0,0,0)
(0,0,0)
(-66004.5178601877,71387.6039802119,27839.573250603)
(-69615.9032896973,68812.9460555766,60492.4125931429)
(-78083.908300523,63380.0360348978,104211.37641233)
(-94190.4008026955,54635.9559304952,168238.139301886)
(-123388.136175018,42587.2063529775,267396.221459034)
(-175656.178001322,28320.4677475446,426097.032796412)
(-269050.735026928,14826.4269696737,685354.884118169)
(-435347.190141286,6302.40481497086,1115556.57687419)
(-711725.770929743,3009.41086524128,1824172.70210663)
(-987753.494849105,1561.82623144671,2810222.07824432)
(0,0,0)
(0,0,0)
(0,0,0)
(0,0,0)
(0,0,0)
(0,0,0)
(-74254.50882904,120393.809594001,25248.3032152508)
(-77927.9331379119,116895.993711335,55093.1886974079)
(-86643.160244844,109487.82463795,95628.5603392046)
(-103524.500492698,97436.9374536469,156352.079308754)
(-134601.818717543,80331.281765638,253209.822613624)
(-190105.157079918,59008.5372641445,412626.910176941)
(-286718.248687821,37415.5839094219,676756.00192503)
(-451636.608450029,22608.4312092709,1112086.58398073)
(-722224.996675622,14882.5215524178,1822438.4699692)
(-992507.678580478,8106.24000055539,2808401.73478064)
(0,0,0)
(0,0,0)
(0,0,0)
(0,0,0)
(0,0,0)
(0,0,0)
(-89608.403571903,188196.770925892,21805.4422400129)
(-93355.6061089439,184273.489911544,47783.5521487497)
(-102403.588043667,175953.786477632,83721.1783527268)
(-120436.551287848,162250.993220914,139343.6738733)
(-154593.7418245,142305.510540637,231963.186922808)
(-216309.262986093,116169.04709573,391111.940077319)
(-320560.786269536,87147.8093619314,661940.500894342)
(-483087.090709757,63468.7285637102,1104167.29424959)
(-741405.973973745,45088.2785049231,1815367.5112708)
(-1000870.61446933,24277.3326831804,2800067.03305763)
(0,0,0)
(0,0,0)
(0,0,0)
(0,0,0)
(0,0,0)
(0,0,0)
(-117163.751868876,287412.910999305,17947.6117954594)
(-120896.321867338,283558.944327184,39558.4792471535)
(-130130.313980435,275457.879245023,70184.7004602004)
(-149163.591329734,262095.720115122,119503.564895725)
(-186491.03488765,242426.229540865,205873.880783149)
(-255876.083285422,215796.565599931,362122.445564348)
(-372145.683928684,183136.752782606,638279.186072358)
(-531003.832718589,147052.60759105,1085699.13976362)
(-769296.650636161,105692.137430758,1794391.93147403)
(-1012972.87582984,56007.5194304753,2775634.62055655)
(0,0,0)
(0,0,0)
(0,0,0)
(0,0,0)
(0,0,0)
(0,0,0)
(-166921.159691423,440115.181450177,14218.8892405546)
(-170452.224833558,436635.963614121,31594.0947871702)
(-179371.790124807,429375.277113151,57048.4870438496)
(-198220.437104085,417357.705434849,100006.938828206)
(-235923.868999289,399043.471797938,179313.565570426)
(-306583.794676409,372153.879007317,329540.046839468)
(-423213.581673533,333659.499317009,602230.881978611)
(-574894.069751862,279880.830360921,1044296.7289606)
(-799567.311244417,204942.490886465,1744613.68674938)
(-1028226.34849067,109387.272959377,2719460.28171099)
(0,0,0)
(0,0,0)
(0,0,0)
(0,0,0)
(0,0,0)
(0,0,0)
(-258216.68902164,687446.650334839,10885.2201369769)
(-261352.6872924,684395.995783283,24477.8752602267)
(-269359.743773909,678026.158112086,45186.7380352082)
(-286571.50695419,667283.47003131,81832.4803929406)
(-321575.545966182,649922.275608799,152529.222548257)
(-387953.422456918,621501.762886135,291134.761126352)
(-497413.045087331,573780.56576829,548426.739762411)
(-635361.70979183,494401.766146808,969267.513768359)
(-844702.857742885,369948.437286392,1648964.42511126)
(-1053133.20301042,201574.620415876,2609910.28066529)
(0,0,0)
(0,0,0)
(0,0,0)
(0,0,0)
(0,0,0)
(0,0,0)
(-425257.9140095,1104667.36635794,8037.19798639368)
(-427779.962253369,1101889.48074231,18323.6752807404)
(-434225.105590344,1095956.96804843,34617.9709347556)
(-448226.207239692,1085509.87530554,64617.7729002007)
(-476986.850355082,1067329.29561361,124197.603250469)
(-532145.509507816,1034414.53607988,243430.339564524)
(-623794.338812525,972011.015586153,468994.228559167)
(-735526.167319434,854162.054021338,844760.108004091)
(-926707.300855581,660877.249310431,1480538.59683563)
(-1100778.22128306,374636.327760528,2408255.11077398)
(0,0,0)
(0,0,0)
(0,0,0)
(0,0,0)
(0,0,0)
(0,0,0)
(-704985.541918868,1804218.24047598,5434.6678008035)
(-706704.760693542,1801458.96054582,12569.9486908515)
(-711075.826509441,1795311.98549896,24290.7577497172)
(-720484.487826212,1783743.45805889,46541.6628225736)
(-739461.68343226,1761996.77252691,91335.8693415282)
(-775153.298084245,1719922.36366475,180981.33984091)
(-835161.815288756,1637118.03675157,351036.133964259)
(-924420.973799005,1478203.33232561,651415.829458999)
(-1077902.07152114,1195993.75375564,1194201.39653485)
(-1183855.80064322,719166.632595792,2033526.89234282)
(0,0,0)
(0,0,0)
(0,0,0)
(0,0,0)
(0,0,0)
(0,0,0)
(-984623.320513536,2786060.96223098,2780.59875856026)
(-985486.516997081,2783233.32921967,6492.74708179936)
(-987661.310704349,2776694.29387143,12771.7494137038)
(-992287.455149858,2763928.28404147,24874.3785810184)
(-1001470.17814115,2739051.46947881,49289.8597703083)
(-1018660.2606612,2689821.19498174,98051.2891145027)
(-1048691.88096154,2591961.29088237,191899.915945236)
(-1099350.04004808,2400345.72605876,369107.562260118)
(-1183560.2458944,2031386.69081486,717274.871095243)
(-1192027.18062877,1314214.84600691,1314253.83831293)
(0,0,0)
(0,0,0)
(0,0,0)
(0,0,0)
(0,0,0)
(0,0,0)
(0,0,0)
(0,0,0)
(0,0,0)
(0,0,0)
(0,0,0)
(0,0,0)
(0,0,0)
(0,0,0)
(0,0,0)
(0,0,0)
(0,0,0)
(0,0,0)
(0,0,0)
(0,0,0)
(0,0,0)
(0,0,0)
(0,0,0)
(0,0,0)
(0,0,0)
(0,0,0)
(0,0,0)
(0,0,0)
(0,0,0)
(0,0,0)
(0,0,0)
(0,0,0)
(0,0,0)
(0,0,0)
(0,0,0)
(0,0,0)
(0,0,0)
(0,0,0)
(0,0,0)
(0,0,0)
(0,0,0)
(0,0,0)
(0,0,0)
(0,0,0)
(0,0,0)
(0,0,0)
(0,0,0)
(0,0,0)
(0,0,0)
(0,0,0)
(0,0,0)
(0,0,0)
(0,0,0)
(0,0,0)
(0,0,0)
(0,0,0)
(0,0,0)
(0,0,0)
(0,0,0)
(0,0,0)
(0,0,0)
(0,0,0)
(0,0,0)
(0,0,0)
(0,0,0)
(0,0,0)
(0,0,0)
(0,0,0)
(0,0,0)
(0,0,0)
(0,0,0)
(0,0,0)
(0,0,0)
(0,0,0)
(0,0,0)
(0,0,0)
(0,0,0)
(0,0,0)
(0,0,0)
(0,0,0)
(0,0,0)
(0,0,0)
(0,0,0)
(0,0,0)
(0,0,0)
(0,0,0)
(0,0,0)
(0,0,0)
(0,0,0)
(0,0,0)
(0,0,0)
(0,0,0)
(0,0,0)
(0,0,0)
(0,0,0)
(0,0,0)
(0,0,0)
(0,0,0)
(0,0,0)
(0,0,0)
(0,0,0)
(0,0,0)
(9246057.02882788,29616.6640361833,25580.5272057658)
(9240064.50921979,28207.4273051987,54993.192153371)
(9226230.25322672,25225.5079848376,92888.1217698315)
(9200366.92222075,20333.1426336779,145806.52531872)
(9154263.23117808,13435.4790740682,223321.99879447)
(9072186.65670078,5211.99788385394,340095.776804338)
(8921671.08631752,-2140.23334389299,522365.02925408)
(8624219.02995836,-5373.06598636961,838392.815167829)
(7953016.22375648,-4448.8543207379,1546135.91480087)
(6130137.55736294,-2183.99905117997,3796140.60443516)
(0,0,0)
(0,0,0)
(0,0,0)
(0,0,0)
(0,0,0)
(0,0,0)
(9239942.12937045,63152.396137867,24186.9224684628)
(9233940.37167518,60498.6169828302,52008.7596267543)
(9219990.76909692,54777.8989877649,88050.9930271088)
(9193626.16206145,45246.5612595024,138990.313337873)
(9146234.63702909,31330.7678110601,215141.553197549)
(9061844.38507498,13814.1647071627,332708.125098767)
(8909012.39646541,-2887.62983715406,519061.691900512)
(8612798.96095448,-9979.65900465428,839191.435623815)
(7945909.99931202,-7464.30666464747,1548240.41952652)
(6127018.45199551,-3202.42823366388,3798156.20366509)
(0,0,0)
(0,0,0)
(0,0,0)
(0,0,0)
(0,0,0)
(0,0,0)
(9226001.91312666,105022.149935139,21543.1260477317)
(9219982.19326103,101452.405765084,46348.5126673048)
(9205785.97210285,93702.2626301638,78664.3184780525)
(9178293.9911864,80501.122140636,125260.567718638)
(9127601.12263553,60311.3414595939,197746.354517806)
(9036315.77748333,32756.8587888254,316052.02767368)
(8874726.7859358,3502.19675223806,511886.468261476)
(8581305.65199101,-8896.22038358054,841530.071000238)
(7927585.16454464,-4333.89414021714,1552258.79905626)
(6119417.88531676,-304.510723003683,3801104.61944917)
(0,0,0)
(0,0,0)
(0,0,0)
(0,0,0)
(0,0,0)
(0,0,0)
(9200422.00000854,160623.683710326,18037.3644451231)
(9194392.87373511,156720.397536528,38690.1946304315)
(9179856.88343903,148214.423332775,65586.8642458907)
(9150571.19520677,133562.575949637,105186.96574305)
(9093820.95254709,110459.089779158,170293.824852725)
(8986930.14127813,76600.5916952643,286879.989482876)
(8798526.65394255,35526.2835712621,499437.764252565)
(8509703.66022733,15510.8087763635,845909.28595629)
(7890617.36059181,17167.6543162097,1556053.70473495)
(6105209.87078335,12150.3715446922,3801187.63901546)
(0,0,0)
(0,0,0)
(0,0,0)
(0,0,0)
(0,0,0)
(0,0,0)
(9155308.256651,237627.033422401,14193.9435687887)
(9149420.96191136,233977.203466808,30289.1556605461)
(9134791.88589754,226163.160612408,51087.5203037833)
(9103946.56131019,213014.736485834,82194.5089283955)
(9040304.47476179,192984.334643113,136543.056215837)
(8910040.64952369,165020.063579006,245876.15332378)
(8661497.32819426,132023.284397921,479405.442174958)
(8376939.31753271,103162.705054216,847479.697446643)
(7832677.93872365,75438.3587841186,1550903.70541958)
(6084081.94808381,40762.531094214,3788906.02375714)
(0,0,0)
(0,0,0)
(0,0,0)
(0,0,0)
(0,0,0)
(0,0,0)
(9074986.69084329,348740.312919089,10648.1717693388)
(9069524.28149465,345690.272105164,22627.8986035856)
(9055597.09896211,339349.014374714,38142.4575551107)
(9025318.80159938,328979.341310856,62307.9158274986)
(8960973.18572662,313380.97827478,108683.519270718)
(8827050.0508244,290761.161193106,212977.877956537)
(8575394.70828632,259467.030933882,450595.143261513)
(8303351.60517718,219437.115160507,819744.360026831)
(7783293.89486864,159838.934631873,1516151.87986679)
(6059853.04604884,84517.8417750048,3747986.47644719)
(0,0,0)
(0,0,0)
(0,0,0)
(0,0,0)
(0,0,0)
(0,0,0)
(8926072.19735537,520389.513320696,7731.21502216134)
(8921308.54123062,518002.49018398,16427.070221117)
(8908963.55682393,513220.70098642,27901.3848124648)
(8881495.02372559,505694.791545229,46788.7056990784)
(8821527.30250882,494590.185469397,86145.9518302558)
(8693491.8956469,477377.657225943,181753.4394943)
(8449466.12962157,447443.444428166,410567.153091824)
(8203904.26434383,394307.614732419,760099.981185076)
(7710107.10397066,288028.602009411,1440769.65389457)
(6018473.44237675,153995.764126178,3663354.38795713)
(0,0,0)
(0,0,0)
(0,0,0)
(0,0,0)
(0,0,0)
(0,0,0)
(8628338.14769928,824967.463562454,5495.2898502618)
(8624557.03114134,823028.887226791,11801.201213522)
(8614734.30052739,819194.758014611,20537.039868375)
(8592555.50582095,813324.922017456,35794.4981363076)
(8543158.52045819,804914.654874705,68993.9597183483)
(8434571.84891462,791491.022812311,151832.537510431)
(8221065.30550398,760710.576766016,357375.062656787)
(8060736.32369461,665341.80441886,653747.683756951)
(7562305.514221,509748.394351291,1306684.3781392)
(5922631.62893757,291618.722088854,3509320.87175667)
(0,0,0)
(0,0,0)
(0,0,0)
(0,0,0)
(0,0,0)
(0,0,0)
(7955365.26100102,1524604.63069075,3681.33175262732)
(7952814.52992216,1522744.61939111,8115.61077345056)
(7946268.18395153,1518819.73054773,14815.9295801272)
(7931781.24527121,1512050.91241857,27493.5078823158)
(7900881.88812831,1500140.37663129,55593.5163658962)
(7837990.67213808,1476620.52977432,120989.340982322)
(7724591.58739903,1423755.37873971,261860.438121666)
(7565025.37564882,1303379.29028717,498045.904606364)
(7114726.78280919,1090411.28095637,1088423.46547171)
(5631191.41861584,711055.092300501,3217609.17780174)
(0,0,0)
(0,0,0)
(0,0,0)
(0,0,0)
(0,0,0)
(0,0,0)
(6130977.10968203,3770776.62054181,1896.88175404237)
(6129707.40403203,3768838.65350095,4278.22841577424)
(6126499.43989537,3764478.50960178,8128.00056278222)
(6119548.2752752,3756349.85672538,15662.6276317871)
(6105190.35011239,3740732.07583726,32079.7019731185)
(6076925.61629779,3708762.05409642,68021.6024928398)
(6024559.76378276,3640911.99386176,141282.644427281)
(5924168.94106394,3499870.03365226,284942.221751001)
(5631459.40917443,3215089.12268676,708914.026752564)
(4578851.57654093,2506330.44933315,2506429.21435085)
(0,0,0)
(0,0,0)
(0,0,0)
(0,0,0)
(0,0,0)
(0,0,0)
(0,0,0)
(0,0,0)
(0,0,0)
(0,0,0)
(0,0,0)
(0,0,0)
(0,0,0)
(0,0,0)
(0,0,0)
(0,0,0)
(0,0,0)
(0,0,0)
(0,0,0)
(0,0,0)
(0,0,0)
(0,0,0)
(0,0,0)
(0,0,0)
(0,0,0)
(0,0,0)
(0,0,0)
(0,0,0)
(0,0,0)
(0,0,0)
(0,0,0)
(0,0,0)
(0,0,0)
(0,0,0)
(0,0,0)
(0,0,0)
(0,0,0)
(0,0,0)
(0,0,0)
(0,0,0)
(0,0,0)
(0,0,0)
(0,0,0)
(0,0,0)
(0,0,0)
(0,0,0)
(0,0,0)
(0,0,0)
(0,0,0)
(0,0,0)
(0,0,0)
(0,0,0)
(0,0,0)
(0,0,0)
(0,0,0)
(0,0,0)
(0,0,0)
(0,0,0)
(0,0,0)
(0,0,0)
(0,0,0)
(0,0,0)
(0,0,0)
(0,0,0)
(0,0,0)
(0,0,0)
(0,0,0)
(0,0,0)
(0,0,0)
(0,0,0)
(0,0,0)
(0,0,0)
(0,0,0)
(0,0,0)
(0,0,0)
(0,0,0)
(0,0,0)
(0,0,0)
(0,0,0)
(0,0,0)
(0,0,0)
(0,0,0)
(0,0,0)
(0,0,0)
(0,0,0)
(0,0,0)
(0,0,0)
(0,0,0)
(0,0,0)
(0,0,0)
(0,0,0)
(0,0,0)
(0,0,0)
(0,0,0)
(0,0,0)
(0,0,0)
(0,0,0)
(0,0,0)
(0,0,0)
(0,0,0)
(0,0,0)
(0,0,0)
(-160619.83423076,23476.6201576611,19530.9411002351)
(-167233.212859966,22054.6814547552,41104.6799244116)
(-182206.243605107,18919.5526918389,66952.3222637233)
(-209558.37484141,13558.4807541954,99649.8367709582)
(-256437.977819278,5427.11475508629,141254.629212455)
(-334692.688102663,-5092.63627075966,189557.308486025)
(-462604.614371324,-14750.471120612,224914.178494766)
(-665062.16155314,-16754.5261840668,167280.594389573)
(-955342.217833121,-11516.7649379053,-276513.500883745)
(-1171288.87133689,-5282.94185119725,-2333473.43213331)
(0,0,0)
(0,0,0)
(0,0,0)
(0,0,0)
(0,0,0)
(0,0,0)
(-167567.226751037,49195.0135997653,18121.6608785977)
(-174063.572535567,46519.8040782605,37991.180665037)
(-188889.650167367,40503.3463727494,61618.5044476874)
(-216288.123153573,29857.3439995429,91564.6246166266)
(-263908.059990906,12696.8583912107,130768.276199728)
(-344306.377418544,-11721.4271040425,179878.527725709)
(-475234.293824286,-37155.7940871857,222861.239181178)
(-675740.773521366,-41424.7299324803,172401.875604635)
(-960717.177951839,-25735.7730594403,-270421.240810558)
(-1173209.30071699,-10787.9766580063,-2328357.75509195)
(0,0,0)
(0,0,0)
(0,0,0)
(0,0,0)
(0,0,0)
(0,0,0)
(-183259.83072073,79319.5505964505,15467.9050500035)
(-189529.335434908,75769.3024056419,32060.6336177893)
(-204080.038522257,67682.2986323129,51078.390182487)
(-231722.216621552,52723.9425194934,74558.6976696755)
(-281806.231490109,26525.5603682791,106468.048017464)
(-370471.058939548,-16625.2607615922,154489.416297103)
(-517438.99196009,-72698.273251418,218528.371556423)
(-712689.153395628,-80488.2109858396,187917.356195529)
(-976942.495069611,-41273.5908483434,-255686.468201992)
(-1178421.35099449,-14497.9742681241,-2317806.53608141)
(0,0,0)
(0,0,0)
(0,0,0)
(0,0,0)
(0,0,0)
(0,0,0)
(-211309.409110602,115395.038157873,11986.6197569657)
(-217249.249053612,111652.251717351,24076.4914331746)
(-231386.971659963,103104.401900726,36228.9414629881)
(-259601.890950225,86983.6952790147,48472.9730596786)
(-315277.971227771,57015.5226284669,63412.6327735293)
(-428202.041553021,-232.282550202649,98482.5355924919)
(-648575.82740949,-101465.666339825,210683.108232143)
(-833512.185484301,-117236.143111236,226977.584268438)
(-1017519.55841341,-40744.4664000574,-229083.92297532)
(-1189580.36484608,-8956.25664937573,-2303504.70676549)
(0,0,0)
(0,0,0)
(0,0,0)
(0,0,0)
(0,0,0)
(0,0,0)
(-258485.172327421,157224.516781415,8294.64855413161)
(-263928.835635683,154005.558246251,15621.8377715355)
(-277293.879639466,146917.638130683,20225.0652777336)
(-305520.538906966,134399.146177256,18607.4127959142)
(-367748.444162861,113694.148004788,6312.40454341238)
(-526942.482344443,82034.8715632764,-2640.91950272466)
(-1047125.31465549,45953.0105800944,194893.744626293)
(-1242108.97587536,29628.8832998052,303407.709822531)
(-1097049.62873303,26101.1199623203,-197379.610883862)
(-1207828.9560764,16555.641080347,-2294649.906254)
(0,0,0)
(0,0,0)
(0,0,0)
(0,0,0)
(0,0,0)
(0,0,0)
(-336290.180386918,199690.347885541,5141.73832534668)
(-341039.331749082,197398.416967859,8643.19104666847)
(-353013.5857345,192677.529686453,7824.68238675826)
(-379249.679255239,185146.61824334,-2023.61062558063)
(-439724.910711294,173960.670169902,-25261.3381535697)
(-598461.725103142,157271.018208035,-38655.010671511)
(-1093246.07769345,133642.51887095,178626.965216602)
(-1272033.24312723,120074.556347921,299896.838672183)
(-1134110.33379381,86706.2335507675,-206973.348054626)
(-1226070.69100463,43175.0104757959,-2311338.28219725)
(0,0,0)
(0,0,0)
(0,0,0)
(0,0,0)
(0,0,0)
(0,0,0)
(-463457.032072187,222630.20227928,2920.07323302584)
(-467367.535000724,221303.768513756,4021.496117685)
(-477436.541002034,219052.964275681,376.857553508844)
(-500287.007331614,216816.637669237,-13180.4326159501)
(-555789.83226245,216317.649669306,-41889.5791448673)
(-711191.585148609,218613.24743375,-62217.6293757613)
(-1227089.97219225,219203.439498875,165108.250009438)
(-1392396.22694622,251302.900411352,266511.095435262)
(-1190161.38025426,140367.55119051,-250551.039780142)
(-1256204.82184337,58236.7917854581,-2354603.85867061)
(0,0,0)
(0,0,0)
(0,0,0)
(0,0,0)
(0,0,0)
(0,0,0)
(-666479.005346836,152097.805399072,1680.248125529)
(-669455.43272694,151428.41419839,1898.76450839274)
(-677130.907605159,150854.356204697,-1706.72108885406)
(-695033.077107333,152638.160560841,-13608.962852979)
(-740952.50122626,162722.520579528,-39572.1138793772)
(-883480.781561447,195041.603206998,-61617.1409774231)
(-1446562.38409131,264396.963710883,197147.722605153)
(-1179802.56832296,169830.172532328,155490.040701033)
(-1235094.4443312,62328.143167216,-332739.894524127)
(-1302940.10796432,260.366556670144,-2412861.03419416)
(0,0,0)
(0,0,0)
(0,0,0)
(0,0,0)
(0,0,0)
(0,0,0)
(-957751.530241612,-299558.083169558,1103.37801044758)
(-959697.585232632,-300116.9385683,1491.54413108788)
(-964599.881158551,-300719.96023977,264.623884884466)
(-975582.58199982,-299985.772298394,-3416.91778557685)
(-1000866.03953886,-295363.116653661,-7252.65468595033)
(-1061313.14966417,-284232.197671474,7655.66619398224)
(-1193367.64886797,-276045.901008923,102388.465379973)
(-1237061.20678295,-337231.793950703,47867.7124939318)
(-1351168.53054015,-392661.283463654,-394916.849326608)
(-1372752.28210327,-341181.237459179,-2413200.84639242)
(0,0,0)
(0,0,0)
(0,0,0)
(0,0,0)
(0,0,0)
(0,0,0)
(-1173178.52159943,-2359678.64300204,606.889313223799)
(-1174130.93594025,-2360356.83973525,1015.82865164711)
(-1176474.71901436,-2361528.10116111,1128.82668197869)
(-1181540.09601613,-2362728.00456539,1290.12843940371)
(-1192400.37081501,-2363987.08188498,3835.51279736328)
(-1215174.65315858,-2367662.59110948,15696.8738909514)
(-1257270.66072362,-2383137.72792996,40949.8235176388)
(-1304256.25328966,-2423802.2094697,-7723.86841063511)
(-1373112.73219631,-2415912.9601078,-343569.352196549)
(-1325220.61752672,-2072219.42386308,-2072128.27352571)
(0,0,0)
(0,0,0)
(0,0,0)
(0,0,0)
(0,0,0)
(0,0,0)
(0,0,0)
(0,0,0)
(0,0,0)
(0,0,0)
(0,0,0)
(0,0,0)
(0,0,0)
(0,0,0)
(0,0,0)
(0,0,0)
(0,0,0)
(0,0,0)
(0,0,0)
(0,0,0)
(0,0,0)
(0,0,0)
(0,0,0)
(0,0,0)
(0,0,0)
(0,0,0)
(0,0,0)
(0,0,0)
(0,0,0)
(0,0,0)
(0,0,0)
(0,0,0)
(0,0,0)
(0,0,0)
(0,0,0)
(0,0,0)
(0,0,0)
(0,0,0)
(0,0,0)
(0,0,0)
(0,0,0)
(0,0,0)
(0,0,0)
(0,0,0)
(0,0,0)
(0,0,0)
(0,0,0)
(0,0,0)
(0,0,0)
(0,0,0)
(0,0,0)
(0,0,0)
(0,0,0)
(0,0,0)
(0,0,0)
(0,0,0)
(0,0,0)
(0,0,0)
(0,0,0)
(0,0,0)
(0,0,0)
(0,0,0)
(0,0,0)
(0,0,0)
(0,0,0)
(0,0,0)
(0,0,0)
(0,0,0)
(0,0,0)
(0,0,0)
(0,0,0)
(0,0,0)
(0,0,0)
(0,0,0)
(0,0,0)
(0,0,0)
(0,0,0)
(0,0,0)
(0,0,0)
(0,0,0)
(0,0,0)
(0,0,0)
(0,0,0)
(0,0,0)
(0,0,0)
(0,0,0)
(0,0,0)
(0,0,0)
(0,0,0)
(0,0,0)
(0,0,0)
(0,0,0)
(0,0,0)
(0,0,0)
(0,0,0)
(0,0,0)
(0,0,0)
(0,0,0)
(0,0,0)
(0,0,0)
(0,0,0)
(0,0,0)
(-189843.504370425,16390.481303576,12833.1888360892)
(-195482.290762085,15072.149796828,26010.1169413846)
(-207861.282463963,12105.274311199,39559.8814890432)
(-229552.521071633,6741.1327760234,52812.8949432389)
(-264625.312930707,-2074.80980916833,63075.0398638379)
(-318576.371632775,-14702.386081876,61661.1094758288)
(-396107.541376624,-27348.890369478,22512.9268506088)
(-492227.476713666,-27396.2473697107,-122925.510619162)
(-569095.791170728,-16851.4230638597,-492320.514217669)
(-494603.036633439,-7158.28814310015,-1161848.060778)
(0,0,0)
(0,0,0)
(0,0,0)
(0,0,0)
(0,0,0)
(0,0,0)
(-196118.693014452,33405.4022497388,11536.5453172512)
(-201456.401138901,30941.0607735576,23060.4629438564)
(-213161.698724121,25224.639790893,34213.146020919)
(-233707.694054611,14353.9191144053,44019.930583571)
(-267209.632012398,-5221.8681616425,50468.5609575411)
(-319648.375577,-37895.8782903605,49004.0513244895)
(-396699.664532245,-79321.1435784487,22441.6752414251)
(-489922.94372789,-78321.1579512972,-112451.243970462)
(-565358.531240012,-41923.7471447828,-482737.566601362)
(-492314.034625035,-15972.9549384219,-1154818.16589804)
(0,0,0)
(0,0,0)
(0,0,0)
(0,0,0)
(0,0,0)
(0,0,0)
(-210083.890276927,51109.1989795635,9120.26282637596)
(-214798.00497839,47914.8241074421,17415.1690359693)
(-225138.794100701,40295.8289751792,23402.7354301265)
(-243306.425196853,24815.4363551536,24525.4267646832)
(-273476.276835855,-6905.42172411131,17879.0256728967)
(-323809.579922635,-74298.6814288697,7620.34979448017)
(-408776.712109367,-203786.892421254,23423.8187865643)
(-490135.597496155,-201282.195822752,-76168.6992414645)
(-556243.982664939,-81831.8510250967,-456959.107765808)
(-486677.957123203,-25626.6013525661,-1139048.85522295)
(0,0,0)
(0,0,0)
(0,0,0)
(0,0,0)
(0,0,0)
(0,0,0)
(-234239.429585277,68078.4388515963,5960.78060264907)
(-238078.657055277,64863.4202690272,9841.59244273413)
(-246415.92205138,57179.3627105848,7987.0090987478)
(-260775.150688667,41108.5650077068,-7132.85981536359)
(-284481.193719063,4611.51050379572,-49446.5695519759)
(-331238.212140643,-98901.2341916008,-121807.846201623)
(-500109.575419037,-499962.436203427,25901.4455900912)
(-526259.757725348,-525820.289964159,43187.1119725486)
(-535002.753128168,-120274.259638835,-400887.284698961)
(-475288.754683513,-27190.672027913,-1113614.8241862)
(0,0,0)
(0,0,0)
(0,0,0)
(0,0,0)
(0,0,0)
(0,0,0)
(-272512.760978245,79344.8339029395,2761.1935994792)
(-275327.716904563,76851.5103240473,2171.98481333782)
(-281150.498416668,71226.1529305883,-8018.18662946247)
(-289610.33243009,60742.0644303892,-43561.8925290177)
(-295695.500977569,41824.0894877336,-152827.41469825)
(-266560.629133225,10632.4516384451,-522742.953739522)
(7.74811330071715e-05,1.90568199148514e-05,-4.90242890917693e-05)