/*--------------------------------*- C++ -*----------------------------------*\
| =========                 |                                                 |
| \\      /  F ield         | foam-extend: Open Source CFD                    |
|  \\    /   O peration     | Version:     4.0                                |
|   \\  /    A nd           | Web:         http://www.foam-extend.org         |
|    \\/     M anipulation  |                                                 |
\*---------------------------------------------------------------------------*/
FoamFile
{
    version 2.0;
    format ascii;
    class volVectorField;
    location "3187";
    object      H;
}
// * * * * * * * * * * * * * * * * * * * * * * * * * * * * * * * * * * * * * //

dimensions      [0 1 -1 0 0 0 0];

internalField   nonuniform List<vector>
4096
(
(0,0,0)
(0,0,0)
(0,0,0)
(0,0,0)
(0,0,0)
(0,0,0)
(0,0,0)
(0,0,0)
(0,0,0)
(0,0,0)
(0,0,0)
(0,0,0)
(0,0,0)
(0,0,0)
(0,0,0)
(0,0,0)
(0,0,0)
(0,0,0)
(0,0,0)
(0,0,0)
(0,0,0)
(0,0,0)
(0,0,0)
(0,0,0)
(0,0,0)
(0,0,0)
(0,0,0)
(0,0,0)
(0,0,0)
(0,0,0)
(0,0,0)
(0,0,0)
(0,0,0)
(0,0,0)
(0,0,0)
(0,0,0)
(0,0,0)
(0,0,0)
(0,0,0)
(0,0,0)
(0,0,0)
(0,0,0)
(0,0,0)
(0,0,0)
(0,0,0)
(0,0,0)
(0,0,0)
(0,0,0)
(0,0,0)
(0,0,0)
(0,0,0)
(0,0,0)
(0,0,0)
(0,0,0)
(0,0,0)
(0,0,0)
(0,0,0)
(0,0,0)
(0,0,0)
(0,0,0)
(0,0,0)
(0,0,0)
(0,0,0)
(0,0,0)
(0,0,0)
(0,0,0)
(0,0,0)
(0,0,0)
(0,0,0)
(0,0,0)
(0,0,0)
(0,0,0)
(0,0,0)
(0,0,0)
(0,0,0)
(0,0,0)
(0,0,0)
(0,0,0)
(0,0,0)
(0,0,0)
(0,0,0)
(0,0,0)
(0,0,0)
(0,0,0)
(0,0,0)
(0,0,0)
(0,0,0)
(0,0,0)
(0,0,0)
(0,0,0)
(0,0,0)
(0,0,0)
(0,0,0)
(0,0,0)
(0,0,0)
(0,0,0)
(0,0,0)
(0,0,0)
(0,0,0)
(0,0,0)
(0,0,0)
(0,0,0)
(0,0,0)
(0,0,0)
(0,0,0)
(0,0,0)
(0,0,0)
(0,0,0)
(0,0,0)
(0,0,0)
(0,0,0)
(0,0,0)
(0,0,0)
(0,0,0)
(0,0,0)
(0,0,0)
(0,0,0)
(0,0,0)
(0,0,0)
(0,0,0)
(0,0,0)
(0,0,0)
(0,0,0)
(0,0,0)
(0,0,0)
(0,0,0)
(0,0,0)
(0,0,0)
(0,0,0)
(0,0,0)
(0,0,0)
(0,0,0)
(0,0,0)
(0,0,0)
(0,0,0)
(0,0,0)
(0,0,0)
(0,0,0)
(0,0,0)
(0,0,0)
(0,0,0)
(0,0,0)
(0,0,0)
(0,0,0)
(0,0,0)
(0,0,0)
(0,0,0)
(0,0,0)
(0,0,0)
(0,0,0)
(0,0,0)
(0,0,0)
(0,0,0)
(0,0,0)
(0,0,0)
(0,0,0)
(0,0,0)
(0,0,0)
(0,0,0)
(0,0,0)
(0,0,0)
(0,0,0)
(0,0,0)
(0,0,0)
(0,0,0)
(0,0,0)
(0,0,0)
(0,0,0)
(0,0,0)
(0,0,0)
(0,0,0)
(0,0,0)
(0,0,0)
(0,0,0)
(0,0,0)
(0,0,0)
(0,0,0)
(0,0,0)
(0,0,0)
(0,0,0)
(0,0,0)
(0,0,0)
(0,0,0)
(0,0,0)
(0,0,0)
(0,0,0)
(0,0,0)
(0,0,0)
(0,0,0)
(0,0,0)
(0,0,0)
(0,0,0)
(0,0,0)
(0,0,0)
(0,0,0)
(0,0,0)
(0,0,0)
(0,0,0)
(0,0,0)
(0,0,0)
(0,0,0)
(0,0,0)
(0,0,0)
(0,0,0)
(0,0,0)
(0,0,0)
(0,0,0)
(0,0,0)
(0,0,0)
(0,0,0)
(0,0,0)
(0,0,0)
(0,0,0)
(0,0,0)
(0,0,0)
(0,0,0)
(0,0,0)
(0,0,0)
(0,0,0)
(0,0,0)
(0,0,0)
(0,0,0)
(0,0,0)
(0,0,0)
(0,0,0)
(0,0,0)
(0,0,0)
(0,0,0)
(0,0,0)
(0,0,0)
(0,0,0)
(0,0,0)
(0,0,0)
(0,0,0)
(0,0,0)
(0,0,0)
(0,0,0)
(0,0,0)
(0,0,0)
(0,0,0)
(0,0,0)
(0,0,0)
(0,0,0)
(0,0,0)
(0,0,0)
(0,0,0)
(0,0,0)
(0,0,0)
(0,0,0)
(0,0,0)
(0,0,0)
(0,0,0)
(0,0,0)
(0,0,0)
(0,0,0)
(0,0,0)
(0,0,0)
(0,0,0)
(0,0,0)
(0,0,0)
(0,0,0)
(0,0,0)
(0,0,0)
(0,0,0)
(0,0,0)
(0,0,0)
(0,0,0)
(0,0,0)
(0,0,0)
(0,0,0)
(0,0,0)
(0,0,0)
(0,0,0)
(0,0,0)
(0,0,0)
(0,0,0)
(0,0,0)
(0,0,0)
(0,0,0)
(0,0,0)
(0,0,0)
(0,0,0)
(0,0,0)
(0,0,0)
(0,0,0)
(0,0,0)
(0,0,0)
(0,0,0)
(0,0,0)
(0,0,0)
(0,0,0)
(0,0,0)
(0,0,0)
(0,0,0)
(0,0,0)
(0,0,0)
(0,0,0)
(0,0,0)
(0,0,0)
(0,0,0)
(0,0,0)
(0,0,0)
(0,0,0)
(0,0,0)
(0,0,0)
(0,0,0)
(0,0,0)
(0,0,0)
(0,0,0)
(0,0,0)
(0,0,0)
(0,0,0)
(0,0,0)
(0,0,0)
(0,0,0)
(0,0,0)
(0,0,0)
(0,0,0)
(0,0,0)
(0,0,0)
(0,0,0)
(0,0,0)
(0,0,0)
(0,0,0)
(0,0,0)
(0,0,0)
(0,0,0)
(0,0,0)
(0,0,0)
(0,0,0)
(0,0,0)
(0,0,0)
(0,0,0)
(0,0,0)
(0,0,0)
(0,0,0)
(0,0,0)
(0,0,0)
(0,0,0)
(0,0,0)
(0,0,0)
(0,0,0)
(0,0,0)
(0,0,0)
(0,0,0)
(0,0,0)
(0,0,0)
(0,0,0)
(0,0,0)
(0,0,0)
(0,0,0)
(0,0,0)
(0,0,0)
(0,0,0)
(0,0,0)
(0,0,0)
(0,0,0)
(0,0,0)
(0,0,0)
(0,0,0)
(0,0,0)
(0,0,0)
(0,0,0)
(0,0,0)
(0,0,0)
(0,0,0)
(0,0,0)
(0,0,0)
(0,0,0)
(0,0,0)
(0,0,0)
(0,0,0)
(0,0,0)
(0,0,0)
(0,0,0)
(0,0,0)
(0,0,0)
(0,0,0)
(0,0,0)
(0,0,0)
(0,0,0)
(0,0,0)
(0,0,0)
(0,0,0)
(0,0,0)
(0,0,0)
(0,0,0)
(0,0,0)
(0,0,0)
(0,0,0)
(0,0,0)
(0,0,0)
(0,0,0)
(0,0,0)
(0,0,0)
(0,0,0)
(0,0,0)
(0,0,0)
(0,0,0)
(0,0,0)
(0,0,0)
(0,0,0)
(0,0,0)
(0,0,0)
(0,0,0)
(0,0,0)
(0,0,0)
(0,0,0)
(0,0,0)
(0,0,0)
(0,0,0)
(0,0,0)
(0,0,0)
(0,0,0)
(0,0,0)
(0,0,0)
(0,0,0)
(0,0,0)
(0,0,0)
(0,0,0)
(0,0,0)
(0,0,0)
(0,0,0)
(0,0,0)
(0,0,0)
(0,0,0)
(0,0,0)
(0,0,0)
(0,0,0)
(0,0,0)
(0,0,0)
(0,0,0)
(0,0,0)
(0,0,0)
(0,0,0)
(0,0,0)
(0,0,0)
(0,0,0)
(0,0,0)
(0,0,0)
(0,0,0)
(0,0,0)
(0,0,0)
(0,0,0)
(0,0,0)
(0,0,0)
(0,0,0)
(0,0,0)
(0,0,0)
(0,0,0)
(0,0,0)
(0,0,0)
(0,0,0)
(0,0,0)
(0,0,0)
(0,0,0)
(0,0,0)
(0,0,0)
(0,0,0)
(0,0,0)
(0,0,0)
(0,0,0)
(0,0,0)
(0,0,0)
(0,0,0)
(0,0,0)
(0,0,0)
(0,0,0)
(0,0,0)
(0,0,0)
(0,0,0)
(0,0,0)
(0,0,0)
(0,0,0)
(0,0,0)
(0,0,0)
(0,0,0)
(0,0,0)
(0,0,0)
(0,0,0)
(0,0,0)
(0,0,0)
(0,0,0)
(0,0,0)
(0,0,0)
(0,0,0)
(0,0,0)
(0,0,0)
(0,0,0)
(0,0,0)
(0,0,0)
(0,0,0)
(0,0,0)
(0,0,0)
(0,0,0)
(0,0,0)
(0,0,0)
(0,0,0)
(0,0,0)
(0,0,0)
(0,0,0)
(0,0,0)
(0,0,0)
(0,0,0)
(0,0,0)
(0,0,0)
(0,0,0)
(0,0,0)
(0,0,0)
(0,0,0)
(0,0,0)
(0,0,0)
(0,0,0)
(0,0,0)
(0,0,0)
(0,0,0)
(0,0,0)
(0,0,0)
(0,0,0)
(0,0,0)
(0,0,0)
(0,0,0)
(0,0,0)
(0,0,0)
(0,0,0)
(0,0,0)
(0,0,0)
(0,0,0)
(0,0,0)
(0,0,0)
(0,0,0)
(0,0,0)
(0,0,0)
(0,0,0)
(0,0,0)
(0,0,0)
(0,0,0)
(0,0,0)
(0,0,0)
(0,0,0)
(0,0,0)
(0,0,0)
(0,0,0)
(0,0,0)
(0,0,0)
(0,0,0)
(0,0,0)
(0,0,0)
(0,0,0)
(0,0,0)
(0,0,0)
(0,0,0)
(0,0,0)
(0,0,0)
(0,0,0)
(0,0,0)
(0,0,0)
(0,0,0)
(0,0,0)
(0,0,0)
(0,0,0)
(0,0,0)
(0,0,0)
(0,0,0)
(0,0,0)
(0,0,0)
(0,0,0)
(0,0,0)
(0,0,0)
(0,0,0)
(0,0,0)
(0,0,0)
(0,0,0)
(0,0,0)
(0,0,0)
(0,0,0)
(0,0,0)
(0,0,0)
(0,0,0)
(0,0,0)
(0,0,0)
(0,0,0)
(0,0,0)
(0,0,0)
(0,0,0)
(0,0,0)
(0,0,0)
(0,0,0)
(0,0,0)
(0,0,0)
(0,0,0)
(0,0,0)
(0,0,0)
(0,0,0)
(0,0,0)
(0,0,0)
(0,0,0)
(0,0,0)
(0,0,0)
(0,0,0)
(0,0,0)
(0,0,0)
(0,0,0)
(0,0,0)
(0,0,0)
(0,0,0)
(0,0,0)
(0,0,0)
(0,0,0)
(0,0,0)
(0,0,0)
(0,0,0)
(0,0,0)
(0,0,0)
(0,0,0)
(0,0,0)
(0,0,0)
(0,0,0)
(0,0,0)
(0,0,0)
(0,0,0)
(0,0,0)
(0,0,0)
(0,0,0)
(0,0,0)
(0,0,0)
(0,0,0)
(0,0,0)
(0,0,0)
(0,0,0)
(0,0,0)
(0,0,0)
(0,0,0)
(0,0,0)
(0,0,0)
(0,0,0)
(0,0,0)
(0,0,0)
(0,0,0)
(0,0,0)
(0,0,0)
(0,0,0)
(0,0,0)
(0,0,0)
(0,0,0)
(0,0,0)
(0,0,0)
(0,0,0)
(0,0,0)
(0,0,0)
(0,0,0)
(0,0,0)
(0,0,0)
(0,0,0)
(0,0,0)
(0,0,0)
(0,0,0)
(0,0,0)
(0,0,0)
(0,0,0)
(0,0,0)
(0,0,0)
(0,0,0)
(0,0,0)
(0,0,0)
(0,0,0)
(0,0,0)
(0,0,0)
(0,0,0)
(0,0,0)
(0,0,0)
(0,0,0)
(0,0,0)
(0,0,0)
(0,0,0)
(0,0,0)
(0,0,0)
(0,0,0)
(0,0,0)
(0,0,0)
(0,0,0)
(0,0,0)
(0,0,0)
(0,0,0)
(0,0,0)
(0,0,0)
(0,0,0)
(0,0,0)
(0,0,0)
(0,0,0)
(0,0,0)
(0,0,0)
(0,0,0)
(0,0,0)
(0,0,0)
(0,0,0)
(0,0,0)
(0,0,0)
(0,0,0)
(0,0,0)
(0,0,0)
(0,0,0)
(0,0,0)
(0,0,0)
(0,0,0)
(0,0,0)
(0,0,0)
(0,0,0)
(0,0,0)
(0,0,0)
(0,0,0)
(0,0,0)
(0,0,0)
(0,0,0)
(0,0,0)
(0,0,0)
(0,0,0)
(0,0,0)
(0,0,0)
(0,0,0)
(0,0,0)
(0,0,0)
(0,0,0)
(0,0,0)
(0,0,0)
(0,0,0)
(0,0,0)
(0,0,0)
(0,0,0)
(0,0,0)
(0,0,0)
(0,0,0)
(0,0,0)
(0,0,0)
(0,0,0)
(0,0,0)
(0,0,0)
(0,0,0)
(0,0,0)
(0,0,0)
(0,0,0)
(0,0,0)
(0,0,0)
(0,0,0)
(0,0,0)
(0,0,0)
(0,0,0)
(0,0,0)
(0,0,0)
(0,0,0)
(0,0,0)
(0,0,0)
(0,0,0)
(0,0,0)
(0,0,0)
(0,0,0)
(0,0,0)
(0,0,0)
(0,0,0)
(0,0,0)
(0,0,0)
(0,0,0)
(0,0,0)
(0,0,0)
(0,0,0)
(0,0,0)
(0,0,0)
(0,0,0)
(0,0,0)
(0,0,0)
(0,0,0)
(0,0,0)
(0,0,0)
(0,0,0)
(0,0,0)
(0,0,0)
(0,0,0)
(0,0,0)
(0,0,0)
(0,0,0)
(0,0,0)
(0,0,0)
(0,0,0)
(0,0,0)
(0,0,0)
(0,0,0)
(0,0,0)
(0,0,0)
(0,0,0)
(0,0,0)
(0,0,0)
(0,0,0)
(0,0,0)
(0,0,0)
(0,0,0)
(0,0,0)
(0,0,0)
(0,0,0)
(0,0,0)
(0,0,0)
(0,0,0)
(0,0,0)
(0,0,0)
(0,0,0)
(0,0,0)
(0,0,0)
(0,0,0)
(0,0,0)
(0,0,0)
(0,0,0)
(0,0,0)
(0,0,0)
(0,0,0)
(0,0,0)
(0,0,0)
(0,0,0)
(0,0,0)
(0,0,0)
(0,0,0)
(5.60636002859768e-13,5.98053505380241e-12,-4.61366922987791e-12)
(4.53160840430444e-14,1.23731566334308e-11,-4.13522373704859e-12)
(-2.64005065593889e-13,2.04428370521839e-11,-3.04135610794272e-12)
(-1.55179419645412e-12,3.07247220427638e-11,-2.10516936237719e-12)
(-1.86436080575909e-12,4.60545540867438e-11,-1.52967757326429e-12)
(-2.98149054431648e-12,7.21750243649721e-11,-9.8777844311762e-13)
(-3.25586919627173e-12,1.17937625543357e-10,-4.86937380071301e-13)
(-4.02363811051025e-12,1.93329344173201e-10,3.83818033225347e-13)
(-4.25041527594465e-12,3.18571645388337e-10,8.72511988056813e-13)
(-3.75642900012894e-12,4.96964955133159e-10,3.92261087069456e-13)
(0,0,0)
(0,0,0)
(0,0,0)
(0,0,0)
(0,0,0)
(0,0,0)
(5.80083499247338e-13,5.40699700241182e-12,-9.79149476860751e-12)
(-4.93493497042102e-13,1.13714883956751e-11,-9.03762230857557e-12)
(-1.44162351223559e-12,1.95453256774139e-11,-7.79926324821466e-12)
(-3.94172429060666e-12,2.97718962442058e-11,-6.34703679217125e-12)
(-4.27533419796447e-12,4.52344060382132e-11,-4.94000392489893e-12)
(-5.11957189840179e-12,7.15040834210559e-11,-3.47439082563301e-12)
(-5.07794657678369e-12,1.17290014796563e-10,-2.16581208030456e-12)
(-5.35876068517264e-12,1.92956779379664e-10,-6.74270717546539e-13)
(-4.70018630151784e-12,3.18747139972074e-10,5.08888685554402e-13)
(-4.14137914131813e-12,4.973608837743e-10,3.98405246652547e-13)
(0,0,0)
(0,0,0)
(0,0,0)
(0,0,0)
(0,0,0)
(0,0,0)
(1.33170380860842e-14,4.64639564166322e-12,-1.84770433642256e-11)
(-1.19826559859636e-12,1.02668666804535e-11,-1.77452270226153e-11)
(-2.73037596147325e-12,1.82634682189205e-11,-1.62597591770647e-11)
(-5.11659912061655e-12,2.79516031024102e-11,-1.37491058628034e-11)
(-6.19197993943135e-12,4.33099077014462e-11,-1.08440932180545e-11)
(-6.61121244240995e-12,6.98765162830057e-11,-8.51766378101827e-12)
(-5.88329861788569e-12,1.16110751207372e-10,-6.52516602776191e-12)
(-5.97286949418156e-12,1.92691118578991e-10,-4.83505166597853e-12)
(-4.64320354587127e-12,3.19734873140342e-10,-2.9284128560348e-12)
(-4.18865414917953e-12,4.98631648048753e-10,-1.34933970095363e-12)
(0,0,0)
(0,0,0)
(0,0,0)
(0,0,0)
(0,0,0)
(0,0,0)
(-9.49971682132284e-13,3.93697870558778e-12,-3.18629159688014e-11)
(-2.18348709531224e-12,8.93381224271601e-12,-3.1092950699161e-11)
(-4.54469444237629e-12,1.61647090387408e-11,-2.94357202689789e-11)
(-6.89376950973132e-12,2.52173933307823e-11,-2.65094848454701e-11)
(-7.58691971431669e-12,4.04206524769521e-11,-2.28969265540337e-11)
(-7.67454153068006e-12,6.71872964732707e-11,-1.96134194091552e-11)
(-7.60558799842604e-12,1.14305882704788e-10,-1.6540908445525e-11)
(-8.30141014364519e-12,1.91843090078081e-10,-1.34630822434025e-11)
(-6.0452525959512e-12,3.19682305562359e-10,-9.64622274358235e-12)
(-4.83961989894972e-12,4.98784398890281e-10,-4.95328287914102e-12)
(0,0,0)
(0,0,0)
(0,0,0)
(0,0,0)
(0,0,0)
(0,0,0)
(-2.06076923758153e-12,2.9593510489991e-12,-4.90443111729055e-11)
(-4.08288949654739e-12,7.1798029475831e-12,-4.8777497982104e-11)
(-7.01084692385988e-12,1.30682858174401e-11,-4.73401149186677e-11)
(-9.71989620692694e-12,2.1057911828208e-11,-4.4711050579888e-11)
(-9.89432359824547e-12,3.57230894909843e-11,-4.15797196680014e-11)
(-9.24016595731861e-12,6.21861940424397e-11,-3.85788038034142e-11)
(-9.44912039977264e-12,1.09902271763791e-10,-3.50963852263285e-11)
(-9.00354552260743e-12,1.88415701098209e-10,-2.90062660535405e-11)
(-5.8354260085471e-12,3.16268139071388e-10,-2.08738919942445e-11)
(-3.88778741403596e-12,4.95210231462715e-10,-1.07739461449989e-11)
(0,0,0)
(0,0,0)
(0,0,0)
(0,0,0)
(0,0,0)
(0,0,0)
(-2.46435439298399e-12,2.22899229225065e-12,-7.43254194165227e-11)
(-5.10934254939276e-12,5.10639509056748e-12,-7.43964479775116e-11)
(-8.22829450713746e-12,9.39612184100587e-12,-7.35914000701924e-11)
(-1.0703356263999e-11,1.63062529794872e-11,-7.19997008113065e-11)
(-1.08677892969626e-11,3.02769413787522e-11,-6.98916183511901e-11)
(-1.06158311107758e-11,5.61287415353181e-11,-6.69691563961582e-11)
(-1.03121097053913e-11,1.03919698656229e-10,-6.19891843115265e-11)
(-8.82002381533316e-12,1.81872306866882e-10,-5.21896264248403e-11)
(-6.35494386530461e-12,3.08375055679325e-10,-3.79475220474824e-11)
(-5.26675902495256e-12,4.86619621265796e-10,-1.99217947932137e-11)
(0,0,0)
(0,0,0)
(0,0,0)
(0,0,0)
(0,0,0)
(0,0,0)
(-2.82222876889075e-12,1.8395789766646e-12,-1.18527958648409e-10)
(-5.96365761047735e-12,3.7813682550384e-12,-1.18165248288413e-10)
(-8.78986811862128e-12,6.7525335034206e-12,-1.17439923001909e-10)
(-1.03243230963205e-11,1.24611327381426e-11,-1.16245809040206e-10)
(-1.02760702135763e-11,2.50411737660458e-11,-1.14416078230062e-10)
(-1.04149359894637e-11,4.92975523986863e-11,-1.11022645941483e-10)
(-9.85399354328035e-12,9.51990599526617e-11,-1.0340030356235e-10)
(-8.57378709151421e-12,1.70191479452039e-10,-8.93639477132645e-11)
(-7.75911487714367e-12,2.92785226015418e-10,-6.64754103675595e-11)
(-7.33761622051936e-12,4.68418393665162e-10,-3.61591771367918e-11)
(0,0,0)
(0,0,0)
(0,0,0)
(0,0,0)
(0,0,0)
(0,0,0)
(-2.85932350920077e-12,1.31007942956157e-12,-1.93160075218041e-10)
(-6.23264984980664e-12,2.57725569578287e-12,-1.92764988160657e-10)
(-7.76868028524984e-12,4.58491803710377e-12,-1.92643707404e-10)
(-7.98476757471031e-12,9.45678721037918e-12,-1.9187673017005e-10)
(-8.2229702745003e-12,2.06964250732772e-11,-1.89570288471338e-10)
(-9.43065317793034e-12,4.23430862969426e-11,-1.84608028591037e-10)
(-9.91623436667542e-12,8.22257360129682e-11,-1.74060740649705e-10)
(-8.98725494747406e-12,1.49351435142494e-10,-1.53474041309698e-10)
(-8.13412841089207e-12,2.63865486096603e-10,-1.18626525588283e-10)
(-7.58226358203664e-12,4.33121786968378e-10,-6.73045905276362e-11)
(0,0,0)
(0,0,0)
(0,0,0)
(0,0,0)
(0,0,0)
(0,0,0)
(-3.26049994635472e-12,9.32969292813738e-13,-3.18374104188961e-10)
(-6.73957719946772e-12,1.86299068295462e-12,-3.18065037660724e-10)
(-8.14630793044002e-12,3.02696326376307e-12,-3.18139493594065e-10)
(-8.56570876669932e-12,6.85489928544526e-12,-3.17813527991535e-10)
(-9.40153194278562e-12,1.56128507402021e-11,-3.15243990427376e-10)
(-1.02698445903145e-11,3.20869758540281e-11,-3.08634694373828e-10)
(-1.08699476422333e-11,6.23965613763234e-11,-2.94417339857083e-10)
(-9.88449179446801e-12,1.16090394742861e-10,-2.66266091386441e-10)
(-8.99755043177908e-12,2.13970533693743e-10,-2.15592391946976e-10)
(-8.85801247142947e-12,3.67317620562453e-10,-1.29986685170971e-10)
(0,0,0)
(0,0,0)
(0,0,0)
(0,0,0)
(0,0,0)
(0,0,0)
(-2.9318384884756e-12,3.8914278070161e-13,-4.96798282081357e-10)
(-5.53431007167623e-12,8.64389983648243e-13,-4.96643626190523e-10)
(-8.02018938496883e-12,1.34394969507641e-12,-4.96591434738172e-10)
(-9.67354031108107e-12,3.41498410706331e-12,-4.96455502889455e-10)
(-1.07667842060839e-11,8.47097139060802e-12,-4.93822026634023e-10)
(-1.09572262137867e-11,1.76334339087282e-11,-4.85750110163032e-10)
(-1.22727494587655e-11,3.44235632573401e-11,-4.68606551649567e-10)
(-1.16515630945194e-11,6.61694937925264e-11,-4.34631334732651e-10)
(-1.10194831407368e-11,1.2922165806746e-10,-3.68404820542985e-10)
(-1.11235468906927e-11,2.38417840861234e-10,-2.38830981447967e-10)
(0,0,0)
(0,0,0)
(0,0,0)
(0,0,0)
(0,0,0)
(0,0,0)
(0,0,0)
(0,0,0)
(0,0,0)
(0,0,0)
(0,0,0)
(0,0,0)
(0,0,0)
(0,0,0)
(0,0,0)
(0,0,0)
(0,0,0)
(0,0,0)
(0,0,0)
(0,0,0)
(0,0,0)
(0,0,0)
(0,0,0)
(0,0,0)
(0,0,0)
(0,0,0)
(0,0,0)
(0,0,0)
(0,0,0)
(0,0,0)
(0,0,0)
(0,0,0)
(0,0,0)
(0,0,0)
(0,0,0)
(0,0,0)
(0,0,0)
(0,0,0)
(0,0,0)
(0,0,0)
(0,0,0)
(0,0,0)
(0,0,0)
(0,0,0)
(0,0,0)
(0,0,0)
(0,0,0)
(0,0,0)
(0,0,0)
(0,0,0)
(0,0,0)
(0,0,0)
(0,0,0)
(0,0,0)
(0,0,0)
(0,0,0)
(0,0,0)
(0,0,0)
(0,0,0)
(0,0,0)
(0,0,0)
(0,0,0)
(0,0,0)
(0,0,0)
(0,0,0)
(0,0,0)
(0,0,0)
(0,0,0)
(0,0,0)
(0,0,0)
(0,0,0)
(0,0,0)
(0,0,0)
(0,0,0)
(0,0,0)
(0,0,0)
(0,0,0)
(0,0,0)
(0,0,0)
(0,0,0)
(0,0,0)
(0,0,0)
(0,0,0)
(0,0,0)
(0,0,0)
(0,0,0)
(0,0,0)
(0,0,0)
(0,0,0)
(0,0,0)
(0,0,0)
(0,0,0)
(0,0,0)
(0,0,0)
(0,0,0)
(0,0,0)
(0,0,0)
(0,0,0)
(0,0,0)
(0,0,0)
(0,0,0)
(0,0,0)
(6.5572856142027e-13,1.11022417524271e-11,-7.72099763561074e-12)
(-4.68833073116302e-14,2.28208852428583e-11,-6.92481000275504e-12)
(-3.02680436388534e-13,3.73247188559026e-11,-5.60412363618793e-12)
(-1.17446018702399e-12,5.69096570114893e-11,-4.21063072464107e-12)
(-1.58611188741957e-12,8.45322423709316e-11,-2.4482349341424e-12)
(-2.81139066339547e-12,1.29826348981978e-10,-7.82188505890181e-13)
(-3.47901386266449e-12,2.06889942994512e-10,2.82370083172132e-13)
(-4.13976727200865e-12,3.36894277113469e-10,9.91763494429947e-13)
(-3.94565895910591e-12,5.89096489492763e-10,9.68434439156402e-13)
(-3.76009655468031e-12,1.17699027205309e-09,1.97523888071337e-13)
(0,0,0)
(0,0,0)
(0,0,0)
(0,0,0)
(0,0,0)
(0,0,0)
(5.86812399963139e-13,1.048205675681e-11,-1.73142925756716e-11)
(-6.27230842167548e-13,2.16041761235866e-11,-1.60011003972686e-11)
(-1.61199250980544e-12,3.58957478183104e-11,-1.39796862497114e-11)
(-3.52846401608667e-12,5.46800436533006e-11,-1.1579983431911e-11)
(-3.81644896045456e-12,8.24833452700814e-11,-8.47999058825932e-12)
(-4.80058350569706e-12,1.28320573090892e-10,-4.85916098536568e-12)
(-5.39022435050203e-12,2.06169069802474e-10,-1.92197861985e-12)
(-6.27625928722082e-12,3.37111091946974e-10,-6.64980588120317e-14)
(-5.57743603038668e-12,5.90169063013472e-10,6.90590233728568e-13)
(-5.01373816904479e-12,1.17786984761533e-09,3.55637875508293e-13)
(0,0,0)
(0,0,0)
(0,0,0)
(0,0,0)
(0,0,0)
(0,0,0)
(-9.08236744781067e-15,9.23850379473888e-12,-3.30478679087771e-11)
(-1.35067900640563e-12,1.95443776525526e-11,-3.17488264451665e-11)
(-3.14227009553175e-12,3.31176764422752e-11,-2.91004881763134e-11)
(-5.28740199374355e-12,5.04859588743724e-11,-2.49712237943319e-11)
(-5.62915415202733e-12,7.79947560329539e-11,-1.96705280646173e-11)
(-5.91449038593009e-12,1.24492310775858e-10,-1.39688702656545e-11)
(-5.7685444770681e-12,2.04173259921787e-10,-8.81022202677397e-12)
(-7.03147980339913e-12,3.37619687417565e-10,-6.00687815786497e-12)
(-6.16970912307862e-12,5.92428752075488e-10,-3.78437346247101e-12)
(-5.69074469174969e-12,1.18027727889146e-09,-1.68426794778175e-12)
(0,0,0)
(0,0,0)
(0,0,0)
(0,0,0)
(0,0,0)
(0,0,0)
(-7.42309295184123e-13,7.7158072363596e-12,-5.71193739175066e-11)
(-2.08670823036326e-12,1.65451689653852e-11,-5.53722759390559e-11)
(-4.37450664459218e-12,2.83585004993756e-11,-5.21239945994099e-11)
(-6.34684629858837e-12,4.38717881311525e-11,-4.71508444705499e-11)
(-6.17286387323284e-12,7.04096430180978e-11,-4.07007858410559e-11)
(-5.74595006345637e-12,1.1732984788005e-10,-3.34336381289558e-11)
(-6.27980325955477e-12,2.00520108621083e-10,-2.58232954653497e-11)
(-8.69088066355019e-12,3.37786309541478e-10,-2.04623848559192e-11)
(-7.32402596883633e-12,5.93586567907203e-10,-1.47121281341234e-11)
(-6.21873534972809e-12,1.1813534595563e-09,-7.61896778200797e-12)
(0,0,0)
(0,0,0)
(0,0,0)
(0,0,0)
(0,0,0)
(0,0,0)
(-1.5972236716348e-12,5.61564858550462e-12,-8.83526477876438e-11)
(-3.44686470296898e-12,1.29028004976478e-11,-8.7307351796779e-11)
(-5.96774728620813e-12,2.24027022729958e-11,-8.42555560825509e-11)
(-8.09956827010445e-12,3.53028967615346e-11,-7.94981578673124e-11)
(-7.44909135057813e-12,5.95484536454349e-11,-7.38793793377789e-11)
(-6.66513202733718e-12,1.04819397880041e-10,-6.82594467099986e-11)
(-9.55666646495177e-12,1.90462098219659e-10,-6.36841971193592e-11)
(-1.05925253504407e-11,3.34258326273917e-10,-5.04952635836685e-11)
(-8.0422884659771e-12,5.89947984059212e-10,-3.57612554230611e-11)
(-6.07112336257894e-12,1.17650759698361e-09,-1.86584325069314e-11)
(0,0,0)
(0,0,0)
(0,0,0)
(0,0,0)
(0,0,0)
(0,0,0)
(-2.00391251640822e-12,3.8040872912177e-12,-1.33479230838397e-10)
(-4.5893636211873e-12,8.81104532768227e-12,-1.32713571238662e-10)
(-7.17640542844222e-12,1.58507469780728e-11,-1.30539706010038e-10)
(-8.96631848275957e-12,2.63648299323767e-11,-1.27365088059998e-10)
(-8.55448363927476e-12,4.81341494865632e-11,-1.23631147490331e-10)
(-8.76461405881875e-12,9.2068276015336e-11,-1.19090054364461e-10)
(-1.13910288884695e-11,1.81518622352572e-10,-1.12580339409312e-10)
(-1.13813007779274e-11,3.25150741739623e-10,-9.36987761899264e-11)
(-8.79084145572271e-12,5.77864975168392e-10,-6.73764502755531e-11)
(-6.98732621688308e-12,1.16204454990949e-09,-3.52705881274606e-11)
(0,0,0)
(0,0,0)
(0,0,0)
(0,0,0)
(0,0,0)
(0,0,0)
(-2.65543958178448e-12,2.70159357078976e-12,-2.07361174567651e-10)
(-5.48487033772413e-12,5.90883832577158e-12,-2.06437377985615e-10)
(-7.81636661400306e-12,1.09840819461863e-11,-2.04759608840391e-10)
(-9.14970837870847e-12,1.92873144962884e-11,-2.02783782916386e-10)
(-9.32475380935743e-12,3.78608738843925e-11,-2.0081083320663e-10)
(-1.10828122668301e-11,7.79247528694876e-11,-1.96823645265685e-10)
(-1.09170254526842e-11,1.67018922256355e-10,-1.82999496051308e-10)
(-1.06222801277993e-11,3.04596793622138e-10,-1.60048740858426e-10)
(-9.15560818911814e-12,5.5052518143312e-10,-1.17938917125975e-10)
(-8.20018666019478e-12,1.13047119234813e-09,-6.33693529320852e-11)
(0,0,0)
(0,0,0)
(0,0,0)
(0,0,0)
(0,0,0)
(0,0,0)
(-2.8773004298365e-12,1.82653475663874e-12,-3.35642576814182e-10)
(-5.63966559363403e-12,3.59465043489313e-12,-3.34940964796641e-10)
(-6.97770274585653e-12,7.44517670584417e-12,-3.34523807815198e-10)
(-7.68932134849332e-12,1.50803790351239e-11,-3.33582138692476e-10)
(-8.10165582175105e-12,3.25428615285349e-11,-3.31202440224746e-10)
(-9.72183067631853e-12,6.96576532363272e-11,-3.25044337598156e-10)
(-1.06737590699905e-11,1.4492358319347e-10,-3.08772656903781e-10)
(-1.05737302693997e-11,2.65269829132392e-10,-2.72052116157706e-10)
(-9.5611110685207e-12,4.98687653853161e-10,-2.09897877367295e-10)
(-9.08268770412238e-12,1.06922438602666e-09,-1.19381529875847e-10)
(0,0,0)
(0,0,0)
(0,0,0)
(0,0,0)
(0,0,0)
(0,0,0)
(-3.02573996248039e-12,1.17423240469221e-12,-5.87123503903071e-10)
(-5.66652056681893e-12,2.15540872329022e-12,-5.86861745403739e-10)
(-6.78925996428065e-12,5.00683405239951e-12,-5.8721009789494e-10)
(-7.69533115246794e-12,1.12934722710745e-11,-5.86619847477921e-10)
(-8.86894864672953e-12,2.53962539031172e-11,-5.83154069798616e-10)
(-1.00336571617742e-11,5.40981755229756e-11,-5.73425465484149e-10)
(-1.10481979938782e-11,1.08585624024825e-10,-5.50254336168135e-10)
(-1.06372902836111e-11,2.04684235688296e-10,-5.01300116429283e-10)
(-9.85438158149803e-12,4.10483042224864e-10,-4.1276634934337e-10)
(-9.94491794142047e-12,9.52040165784042e-10,-2.58618793927031e-10)
(0,0,0)
(0,0,0)
(0,0,0)
(0,0,0)
(0,0,0)
(0,0,0)
(-2.69735159860794e-12,4.79922792534931e-13,-1.1741542574657e-09)
(-4.72211154037913e-12,1.06850958720512e-12,-1.17452787019863e-09)
(-6.81217153861233e-12,2.78599347181325e-12,-1.17523748591797e-09)
(-8.89203245945006e-12,6.22936003623923e-12,-1.17459452462547e-09)
(-1.03677292864736e-11,1.42716029667504e-11,-1.17049876346776e-09)
(-1.04673508185376e-11,3.00904135540111e-11,-1.15796511577279e-09)
(-1.18244031183698e-11,5.93886367068227e-11,-1.1290808834412e-09)
(-1.17085834916208e-11,1.16906818866972e-10,-1.07028251763691e-09)
(-1.13716641682994e-11,2.57728643914083e-10,-9.53096397570933e-10)
(-1.15366874773209e-11,6.94745235833474e-10,-6.94941445011232e-10)
(0,0,0)
(0,0,0)
(0,0,0)
(0,0,0)
(0,0,0)
(0,0,0)
(0,0,0)
(0,0,0)
(0,0,0)
(0,0,0)
(0,0,0)
(0,0,0)
(0,0,0)
(0,0,0)
(0,0,0)
(0,0,0)
(0,0,0)
(0,0,0)
(0,0,0)
(0,0,0)
(0,0,0)
(0,0,0)
(0,0,0)
(0,0,0)
(0,0,0)
(0,0,0)
(0,0,0)
(0,0,0)
(0,0,0)
(0,0,0)
(0,0,0)
(0,0,0)
(0,0,0)
(0,0,0)
(0,0,0)
(0,0,0)
(0,0,0)
(0,0,0)
(0,0,0)
(0,0,0)
(0,0,0)
(0,0,0)
(0,0,0)
(0,0,0)
(0,0,0)
(0,0,0)
(0,0,0)
(0,0,0)
(0,0,0)
(0,0,0)
(0,0,0)
(0,0,0)
(0,0,0)
(0,0,0)
(0,0,0)
(0,0,0)
(0,0,0)
(0,0,0)
(0,0,0)
(0,0,0)
(0,0,0)
(0,0,0)
(0,0,0)
(0,0,0)
(0,0,0)
(0,0,0)
(0,0,0)
(0,0,0)
(0,0,0)
(0,0,0)
(0,0,0)
(0,0,0)
(0,0,0)
(0,0,0)
(0,0,0)
(0,0,0)
(0,0,0)
(0,0,0)
(0,0,0)
(0,0,0)
(0,0,0)
(0,0,0)
(0,0,0)
(0,0,0)
(0,0,0)
(0,0,0)
(0,0,0)
(0,0,0)
(0,0,0)
(0,0,0)
(0,0,0)
(0,0,0)
(0,0,0)
(0,0,0)
(0,0,0)
(0,0,0)
(0,0,0)
(0,0,0)
(0,0,0)
(0,0,0)
(0,0,0)
(0,0,0)
(4.79725923883902e-13,1.50525712765311e-11,-9.78777452496524e-12)
(-1.50860554921749e-13,3.08109550574651e-11,-8.71945400483777e-12)
(-2.67202309384489e-13,4.89662725824037e-11,-7.26714861761933e-12)
(-7.07242619737464e-13,7.33384538149886e-11,-5.11034276836871e-12)
(-1.20326121464099e-12,1.07835580005033e-10,-1.9964614719311e-12)
(-2.3701733611849e-12,1.60476327561146e-10,9.84642376806824e-13)
(-3.46753408250049e-12,2.42342969255156e-10,3.05108930690927e-12)
(-4.33325305049699e-12,3.60356092812122e-10,3.37261047441181e-12)
(-4.24732192824521e-12,5.31367680765363e-10,2.168727554406e-12)
(-4.44214822971933e-12,7.43605450141283e-10,7.46764334906265e-13)
(0,0,0)
(0,0,0)
(0,0,0)
(0,0,0)
(0,0,0)
(0,0,0)
(5.17173183553905e-13,1.40108104531392e-11,-2.32622773196017e-11)
(-5.88846518920741e-13,2.89292704369968e-11,-2.12720674870371e-11)
(-1.23362395322764e-12,4.65333832435946e-11,-1.84852152011286e-11)
(-2.43437208023646e-12,7.00493851981538e-11,-1.44704431619037e-11)
(-2.94868932572452e-12,1.04607591180826e-10,-8.86558987457274e-12)
(-3.90950355650505e-12,1.58072308030372e-10,-1.99329962444787e-12)
(-5.24989503117764e-12,2.42117676572882e-10,4.14128958729209e-12)
(-7.54194304973315e-12,3.62193873246436e-10,5.28755553908321e-12)
(-7.50217273377041e-12,5.33749992811597e-10,3.32991948937066e-12)
(-7.065531569416e-12,7.45263675967506e-10,1.28564890030437e-12)
(0,0,0)
(0,0,0)
(0,0,0)
(0,0,0)
(0,0,0)
(0,0,0)
(2.14572725613275e-13,1.17777750574715e-11,-4.29387484778462e-11)
(-9.99808587156928e-13,2.52692033592422e-11,-4.10626203132137e-11)
(-2.51235853423235e-12,4.15766869669511e-11,-3.73228754864003e-11)
(-3.97392698064395e-12,6.32095842257333e-11,-3.11044138436965e-11)
(-3.74569893653752e-12,9.66461877996852e-11,-2.23552572991297e-11)
(-3.9106757287619e-12,1.51142834763801e-10,-1.03265007238458e-11)
(-4.91873704535185e-12,2.41052614873062e-10,2.78301672312325e-12)
(-9.42060662282182e-12,3.6567918494816e-10,3.42573616555699e-12)
(-9.4276304684565e-12,5.38064610694771e-10,7.40593135307781e-13)
(-8.45119330504136e-12,7.48849483620278e-10,-2.24187757458033e-13)
(0,0,0)
(0,0,0)
(0,0,0)
(0,0,0)
(0,0,0)
(0,0,0)
(-3.89248623198796e-13,9.50283884246242e-12,-7.26311930184944e-11)
(-1.6926211014394e-12,2.06210179836844e-11,-7.01360430810862e-11)
(-3.39185854781779e-12,3.39987897510307e-11,-6.54618343553054e-11)
(-4.2280135595478e-12,5.22764455405923e-11,-5.80943081161768e-11)
(-2.57882221236825e-12,8.23708404665383e-11,-4.75196063113144e-11)
(-8.45842726157444e-13,1.36236794888994e-10,-3.15639505195401e-11)
(-1.58270346732295e-12,2.38326025072866e-10,-9.58707112675438e-12)
(-1.09131541180797e-11,3.71787204928981e-10,-1.00134256600109e-11)
(-1.07786024721262e-11,5.43040441441222e-10,-1.0683142565661e-11)
(-8.99184056035607e-12,7.52029309034278e-10,-6.61739698073724e-12)
(0,0,0)
(0,0,0)
(0,0,0)
(0,0,0)
(0,0,0)
(0,0,0)
(-8.3095836891352e-13,6.72651490329864e-12,-1.11403550330111e-10)
(-2.406905246412e-12,1.54498364045909e-11,-1.09534715201472e-10)
(-4.17319020785599e-12,2.55212582422452e-11,-1.05203955486801e-10)
(-4.78027997040674e-12,3.90492669385798e-11,-9.85093172361174e-11)
(-1.65471981788933e-12,6.22264032174367e-11,-8.98809189139956e-11)
(1.51074024567415e-12,1.06593681206913e-10,-8.04632950825442e-11)
(-1.3802124134629e-11,2.11301152832476e-10,-8.82463457402133e-11)
(-1.62189489769974e-11,3.78222471725822e-10,-5.91470719010289e-11)
(-1.30621024895529e-11,5.45369790221473e-10,-4.02664873769059e-11)
(-1.02665087957698e-11,7.50141959350947e-10,-2.10225958717881e-11)
(0,0,0)
(0,0,0)
(0,0,0)
(0,0,0)
(0,0,0)
(0,0,0)
(-1.66707839548082e-12,4.2522042791559e-12,-1.63999823934723e-10)
(-3.86102184816346e-12,1.01827069985271e-11,-1.62996383151731e-10)
(-5.48435834644394e-12,1.70890864142958e-11,-1.60085675432791e-10)
(-5.62274361514256e-12,2.62222905369789e-11,-1.55734030001431e-10)
(-2.82230116368698e-12,4.3248971115255e-11,-1.50529549945004e-10)
(-1.13080586847669e-12,8.40047168714579e-11,-1.45060792686071e-10)
(-1.57728920105914e-11,2.1120748901595e-10,-1.51711556947908e-10)
(-1.71496785757082e-11,3.74177964172594e-10,-1.19110348679648e-10)
(-1.35569098679757e-11,5.34490206953595e-10,-8.2644965702623e-11)
(-1.06845567834846e-11,7.34864693277032e-10,-4.25197037280802e-11)
(0,0,0)
(0,0,0)
(0,0,0)
(0,0,0)
(0,0,0)
(0,0,0)
(-2.70417734794238e-12,2.58087341869747e-12,-2.41199243430357e-10)
(-4.84845159399537e-12,6.09490338962625e-12,-2.40752414097138e-10)
(-6.25328729748884e-12,1.03954545140618e-11,-2.39198044410712e-10)
(-6.91572262721173e-12,1.5616057776728e-11,-2.37697666556996e-10)
(-7.99392939439252e-12,2.55731606103848e-11,-2.3846547437313e-10)
(-1.66398618475183e-11,5.22125462450672e-11,-2.42538398263293e-10)
(-1.17724415830007e-11,1.99139885798391e-10,-2.15757576302307e-10)
(-1.34051393714419e-11,3.50908524865717e-10,-2.05594685968899e-10)
(-1.18876448023774e-11,5.01495226015417e-10,-1.42942071746588e-10)
(-1.03227332710112e-11,6.97267450174229e-10,-7.36645317719036e-11)
(0,0,0)
(0,0,0)
(0,0,0)
(0,0,0)
(0,0,0)
(0,0,0)
(-2.9266100945095e-12,1.38324152930831e-12,-3.5607706531086e-10)
(-4.61758086330484e-12,3.20523930006375e-12,-3.56055347606901e-10)
(-5.48102921593304e-12,6.53237759243038e-12,-3.55779512362352e-10)
(-6.28211305132143e-12,1.1985579366259e-11,-3.55756483231968e-10)
(-7.11315082358416e-12,2.63729293646893e-11,-3.57016892347842e-10)
(-1.04340336571221e-11,6.54304710387749e-11,-3.58991889625078e-10)
(-1.10563406478747e-11,1.78097722859404e-10,-3.5123834636913e-10)
(-1.21423756162416e-11,2.91116482546583e-10,-3.00156602886983e-10)
(-1.18728469318041e-11,4.35694856839318e-10,-2.19822407142625e-10)
(-1.1279997336599e-11,6.2685046110341e-10,-1.18985161052894e-10)
(0,0,0)
(0,0,0)
(0,0,0)
(0,0,0)
(0,0,0)
(0,0,0)
(-2.5931888502793e-12,6.19473656709718e-13,-5.25183368283918e-10)
(-4.23126893993574e-12,1.52480105666202e-12,-5.25306138971679e-10)
(-5.15866979945346e-12,4.4458435322978e-12,-5.25446281924252e-10)
(-6.09699659743037e-12,1.00077414485135e-11,-5.25161580210375e-10)
(-7.47290202428563e-12,2.4509930014368e-11,-5.23892142357637e-10)
(-9.19702450889512e-12,5.747622820256e-11,-5.17428062473856e-10)
(-1.08054304143484e-11,1.26097422156656e-10,-4.9559407676197e-10)
(-1.13936405498173e-11,2.11925844342913e-10,-4.36940325868028e-10)
(-1.1247538685753e-11,3.37061867070305e-10,-3.39574168629883e-10)
(-1.12687819182781e-11,5.10543498989253e-10,-1.95796640797017e-10)
(0,0,0)
(0,0,0)
(0,0,0)
(0,0,0)
(0,0,0)
(0,0,0)
(-1.84381607433455e-12,9.32534754473391e-14,-7.36359362126715e-10)
(-2.94398623368254e-12,6.2220385888882e-13,-7.36934302172129e-10)
(-4.66913935921628e-12,2.60646788294326e-12,-7.37218418262692e-10)
(-6.75843358067269e-12,6.12697253148051e-12,-7.36421163428234e-10)
(-8.62977401455034e-12,1.51125541550277e-11,-7.33405661193384e-10)