/*--------------------------------*- C++ -*----------------------------------*\
| =========                 |                                                 |
| \\      /  F ield         | foam-extend: Open Source CFD                    |
|  \\    /   O peration     | Version:     4.0                                |
|   \\  /    A nd           | Web:         http://www.foam-extend.org         |
|    \\/     M anipulation  |                                                 |
\*---------------------------------------------------------------------------*/
FoamFile
{
    version 2.0;
    format ascii;
    class volVectorField;
    location "267";
    object      E;
}
// * * * * * * * * * * * * * * * * * * * * * * * * * * * * * * * * * * * * * //

dimensions      [0 1 -1 0 0 0 0];

internalField   nonuniform List<vector>
4096
(
(0,0,0)
(0,0,0)
(0,0,0)
(0,0,0)
(0,0,0)
(0,0,0)
(0,0,0)
(0,0,0)
(0,0,0)
(0,0,0)
(0,0,0)
(0,0,0)
(0,0,0)
(0,0,0)
(0,0,0)
(0,0,0)
(0,0,0)
(0,0,0)
(0,0,0)
(0,0,0)
(0,0,0)
(0,0,0)
(0,0,0)
(0,0,0)
(0,0,0)
(0,0,0)
(0,0,0)
(0,0,0)
(0,0,0)
(0,0,0)
(0,0,0)
(0,0,0)
(0,0,0)
(0,0,0)
(0,0,0)
(0,0,0)
(0,0,0)
(0,0,0)
(0,0,0)
(0,0,0)
(0,0,0)
(0,0,0)
(0,0,0)
(0,0,0)
(0,0,0)
(0,0,0)
(0,0,0)
(0,0,0)
(0,0,0)
(0,0,0)
(0,0,0)
(0,0,0)
(0,0,0)
(0,0,0)
(0,0,0)
(0,0,0)
(0,0,0)
(0,0,0)
(0,0,0)
(0,0,0)
(0,0,0)
(0,0,0)
(0,0,0)
(0,0,0)
(0,0,0)
(0,0,0)
(0,0,0)
(0,0,0)
(0,0,0)
(0,0,0)
(0,0,0)
(0,0,0)
(0,0,0)
(0,0,0)
(0,0,0)
(0,0,0)
(0,0,0)
(0,0,0)
(0,0,0)
(0,0,0)
(0,0,0)
(0,0,0)
(0,0,0)
(0,0,0)
(0,0,0)
(0,0,0)
(0,0,0)
(0,0,0)
(0,0,0)
(0,0,0)
(0,0,0)
(0,0,0)
(0,0,0)
(0,0,0)
(0,0,0)
(0,0,0)
(0,0,0)
(0,0,0)
(0,0,0)
(0,0,0)
(0,0,0)
(0,0,0)
(0,0,0)
(0,0,0)
(0,0,0)
(0,0,0)
(0,0,0)
(0,0,0)
(0,0,0)
(0,0,0)
(0,0,0)
(0,0,0)
(0,0,0)
(0,0,0)
(0,0,0)
(0,0,0)
(0,0,0)
(0,0,0)
(0,0,0)
(0,0,0)
(0,0,0)
(0,0,0)
(0,0,0)
(0,0,0)
(0,0,0)
(0,0,0)
(0,0,0)
(0,0,0)
(0,0,0)
(0,0,0)
(0,0,0)
(0,0,0)
(0,0,0)
(0,0,0)
(0,0,0)
(0,0,0)
(0,0,0)
(0,0,0)
(0,0,0)
(0,0,0)
(0,0,0)
(0,0,0)
(0,0,0)
(0,0,0)
(0,0,0)
(0,0,0)
(0,0,0)
(0,0,0)
(0,0,0)
(0,0,0)
(0,0,0)
(0,0,0)
(0,0,0)
(0,0,0)
(0,0,0)
(0,0,0)
(0,0,0)
(0,0,0)
(0,0,0)
(0,0,0)
(0,0,0)
(0,0,0)
(0,0,0)
(0,0,0)
(0,0,0)
(0,0,0)
(0,0,0)
(0,0,0)
(0,0,0)
(0,0,0)
(0,0,0)
(0,0,0)
(0,0,0)
(0,0,0)
(0,0,0)
(0,0,0)
(0,0,0)
(0,0,0)
(0,0,0)
(0,0,0)
(0,0,0)
(0,0,0)
(0,0,0)
(0,0,0)
(0,0,0)
(0,0,0)
(0,0,0)
(0,0,0)
(0,0,0)
(0,0,0)
(0,0,0)
(0,0,0)
(0,0,0)
(0,0,0)
(0,0,0)
(0,0,0)
(0,0,0)
(0,0,0)
(0,0,0)
(0,0,0)
(0,0,0)
(0,0,0)
(0,0,0)
(0,0,0)
(0,0,0)
(0,0,0)
(0,0,0)
(0,0,0)
(0,0,0)
(0,0,0)
(0,0,0)
(0,0,0)
(0,0,0)
(0,0,0)
(0,0,0)
(0,0,0)
(0,0,0)
(0,0,0)
(0,0,0)
(0,0,0)
(0,0,0)
(0,0,0)
(0,0,0)
(0,0,0)
(0,0,0)
(0,0,0)
(0,0,0)
(0,0,0)
(0,0,0)
(0,0,0)
(0,0,0)
(0,0,0)
(0,0,0)
(0,0,0)
(0,0,0)
(0,0,0)
(0,0,0)
(0,0,0)
(0,0,0)
(0,0,0)
(0,0,0)
(0,0,0)
(0,0,0)
(0,0,0)
(0,0,0)
(0,0,0)
(0,0,0)
(0,0,0)
(0,0,0)
(0,0,0)
(0,0,0)
(0,0,0)
(0,0,0)
(0,0,0)
(0,0,0)
(0,0,0)
(0,0,0)
(0,0,0)
(0,0,0)
(0,0,0)
(0,0,0)
(0,0,0)
(0,0,0)
(0,0,0)
(0,0,0)
(0,0,0)
(0,0,0)
(0,0,0)
(0,0,0)
(0,0,0)
(0,0,0)
(0,0,0)
(0,0,0)
(0,0,0)
(0,0,0)
(0,0,0)
(0,0,0)
(0,0,0)
(0,0,0)
(0,0,0)
(0,0,0)
(0,0,0)
(0,0,0)
(0,0,0)
(0,0,0)
(0,0,0)
(0,0,0)
(0,0,0)
(0,0,0)
(0,0,0)
(0,0,0)
(0,0,0)
(0,0,0)
(0,0,0)
(0,0,0)
(0,0,0)
(0,0,0)
(0,0,0)
(0,0,0)
(0,0,0)
(0,0,0)
(0,0,0)
(0,0,0)
(0,0,0)
(0,0,0)
(0,0,0)
(0,0,0)
(0,0,0)
(0,0,0)
(0,0,0)
(0,0,0)
(0,0,0)
(0,0,0)
(0,0,0)
(0,0,0)
(0,0,0)
(0,0,0)
(0,0,0)
(0,0,0)
(0,0,0)
(0,0,0)
(0,0,0)
(0,0,0)
(0,0,0)
(0,0,0)
(0,0,0)
(0,0,0)
(0,0,0)
(0,0,0)
(0,0,0)
(0,0,0)
(0,0,0)
(0,0,0)
(0,0,0)
(0,0,0)
(0,0,0)
(0,0,0)
(0,0,0)
(0,0,0)
(0,0,0)
(0,0,0)
(0,0,0)
(0,0,0)
(0,0,0)
(0,0,0)
(0,0,0)
(0,0,0)
(0,0,0)
(0,0,0)
(0,0,0)
(0,0,0)
(0,0,0)
(0,0,0)
(0,0,0)
(0,0,0)
(0,0,0)
(0,0,0)
(0,0,0)
(0,0,0)
(0,0,0)
(0,0,0)
(0,0,0)
(0,0,0)
(0,0,0)
(0,0,0)
(0,0,0)
(0,0,0)
(0,0,0)
(0,0,0)
(0,0,0)
(0,0,0)
(0,0,0)
(0,0,0)
(0,0,0)
(0,0,0)
(0,0,0)
(0,0,0)
(0,0,0)
(0,0,0)
(0,0,0)
(0,0,0)
(0,0,0)
(0,0,0)
(0,0,0)
(0,0,0)
(0,0,0)
(0,0,0)
(0,0,0)
(0,0,0)
(0,0,0)
(0,0,0)
(0,0,0)
(0,0,0)
(0,0,0)
(0,0,0)
(0,0,0)
(0,0,0)
(0,0,0)
(0,0,0)
(0,0,0)
(0,0,0)
(0,0,0)
(0,0,0)
(0,0,0)
(0,0,0)
(0,0,0)
(0,0,0)
(0,0,0)
(0,0,0)
(0,0,0)
(0,0,0)
(0,0,0)
(0,0,0)
(0,0,0)
(0,0,0)
(0,0,0)
(0,0,0)
(0,0,0)
(0,0,0)
(0,0,0)
(0,0,0)
(0,0,0)
(0,0,0)
(0,0,0)
(0,0,0)
(0,0,0)
(0,0,0)
(0,0,0)
(0,0,0)
(0,0,0)
(0,0,0)
(0,0,0)
(0,0,0)
(0,0,0)
(0,0,0)
(0,0,0)
(0,0,0)
(0,0,0)
(0,0,0)
(0,0,0)
(0,0,0)
(0,0,0)
(0,0,0)
(0,0,0)
(0,0,0)
(0,0,0)
(0,0,0)
(0,0,0)
(0,0,0)
(0,0,0)
(0,0,0)
(0,0,0)
(0,0,0)
(0,0,0)
(0,0,0)
(0,0,0)
(0,0,0)
(0,0,0)
(0,0,0)
(0,0,0)
(0,0,0)
(0,0,0)
(0,0,0)
(0,0,0)
(0,0,0)
(0,0,0)
(0,0,0)
(0,0,0)
(0,0,0)
(0,0,0)
(0,0,0)
(0,0,0)
(0,0,0)
(0,0,0)
(0,0,0)
(0,0,0)
(0,0,0)
(0,0,0)
(0,0,0)
(0,0,0)
(0,0,0)
(0,0,0)
(0,0,0)
(0,0,0)
(0,0,0)
(0,0,0)
(0,0,0)
(0,0,0)
(0,0,0)
(0,0,0)
(0,0,0)
(0,0,0)
(0,0,0)
(0,0,0)
(0,0,0)
(0,0,0)
(0,0,0)
(0,0,0)
(0,0,0)
(0,0,0)
(0,0,0)
(0,0,0)
(0,0,0)
(0,0,0)
(0,0,0)
(0,0,0)
(0,0,0)
(0,0,0)
(0,0,0)
(0,0,0)
(0,0,0)
(0,0,0)
(0,0,0)
(0,0,0)
(0,0,0)
(0,0,0)
(0,0,0)
(0,0,0)
(0,0,0)
(0,0,0)
(0,0,0)
(0,0,0)
(0,0,0)
(0,0,0)
(0,0,0)
(0,0,0)
(0,0,0)
(0,0,0)
(0,0,0)
(0,0,0)
(0,0,0)
(0,0,0)
(0,0,0)
(0,0,0)
(0,0,0)
(0,0,0)
(0,0,0)
(0,0,0)
(0,0,0)
(0,0,0)
(0,0,0)
(0,0,0)
(0,0,0)
(0,0,0)
(0,0,0)
(0,0,0)
(0,0,0)
(0,0,0)
(0,0,0)
(0,0,0)
(0,0,0)
(0,0,0)
(0,0,0)
(0,0,0)
(0,0,0)
(0,0,0)
(0,0,0)
(0,0,0)
(0,0,0)
(0,0,0)
(0,0,0)
(0,0,0)
(0,0,0)
(0,0,0)
(0,0,0)
(0,0,0)
(0,0,0)
(0,0,0)
(0,0,0)
(0,0,0)
(0,0,0)
(0,0,0)
(0,0,0)
(0,0,0)
(0,0,0)
(0,0,0)
(0,0,0)
(0,0,0)
(0,0,0)
(0,0,0)
(0,0,0)
(0,0,0)
(0,0,0)
(0,0,0)
(0,0,0)
(0,0,0)
(0,0,0)
(0,0,0)
(0,0,0)
(0,0,0)
(0,0,0)
(0,0,0)
(0,0,0)
(0,0,0)
(0,0,0)
(0,0,0)
(0,0,0)
(0,0,0)
(0,0,0)
(0,0,0)
(0,0,0)
(0,0,0)
(0,0,0)
(0,0,0)
(0,0,0)
(0,0,0)
(0,0,0)
(0,0,0)
(0,0,0)
(0,0,0)
(0,0,0)
(0,0,0)
(0,0,0)
(0,0,0)
(0,0,0)
(0,0,0)
(0,0,0)
(0,0,0)
(0,0,0)
(0,0,0)
(0,0,0)
(0,0,0)
(0,0,0)
(0,0,0)
(0,0,0)
(0,0,0)
(0,0,0)
(0,0,0)
(0,0,0)
(0,0,0)
(0,0,0)
(0,0,0)
(0,0,0)
(0,0,0)
(0,0,0)
(0,0,0)
(0,0,0)
(0,0,0)
(0,0,0)
(0,0,0)
(0,0,0)
(0,0,0)
(0,0,0)
(0,0,0)
(0,0,0)
(0,0,0)
(0,0,0)
(0,0,0)
(0,0,0)
(0,0,0)
(0,0,0)
(0,0,0)
(0,0,0)
(0,0,0)
(0,0,0)
(0,0,0)
(0,0,0)
(0,0,0)
(0,0,0)
(0,0,0)
(0,0,0)
(0,0,0)
(0,0,0)
(0,0,0)
(0,0,0)
(0,0,0)
(0,0,0)
(0,0,0)
(0,0,0)
(0,0,0)
(0,0,0)
(0,0,0)
(0,0,0)
(0,0,0)
(0,0,0)
(0,0,0)
(0,0,0)
(0,0,0)
(0,0,0)
(0,0,0)
(0,0,0)
(0,0,0)
(0,0,0)
(0,0,0)
(0,0,0)
(0,0,0)
(0,0,0)
(0,0,0)
(0,0,0)
(0,0,0)
(0,0,0)
(0,0,0)
(0,0,0)
(0,0,0)
(0,0,0)
(0,0,0)
(0,0,0)
(0,0,0)
(0,0,0)
(0,0,0)
(0,0,0)
(0,0,0)
(0,0,0)
(0,0,0)
(0,0,0)
(0,0,0)
(0,0,0)
(0,0,0)
(0,0,0)
(0,0,0)
(0,0,0)
(0,0,0)
(0,0,0)
(0,0,0)
(0,0,0)
(0,0,0)
(0,0,0)
(0,0,0)
(0,0,0)
(0,0,0)
(0,0,0)
(0,0,0)
(0,0,0)
(0,0,0)
(0,0,0)
(0,0,0)
(0,0,0)
(0,0,0)
(0,0,0)
(0,0,0)
(0,0,0)
(0,0,0)
(0,0,0)
(0,0,0)
(0,0,0)
(0,0,0)
(0,0,0)
(0,0,0)
(0,0,0)
(0,0,0)
(0,0,0)
(0,0,0)
(0,0,0)
(0,0,0)
(0,0,0)
(0,0,0)
(0,0,0)
(0,0,0)
(0,0,0)
(0,0,0)
(0,0,0)
(0,0,0)
(0,0,0)
(0,0,0)
(0,0,0)
(0,0,0)
(0,0,0)
(0,0,0)
(0,0,0)
(0,0,0)
(0,0,0)
(0,0,0)
(0,0,0)
(0,0,0)
(0,0,0)
(0,0,0)
(0,0,0)
(0,0,0)
(0,0,0)
(0,0,0)
(0,0,0)
(0,0,0)
(0,0,0)
(0,0,0)
(0,0,0)
(0,0,0)
(0,0,0)
(0,0,0)
(0,0,0)
(0,0,0)
(0,0,0)
(0,0,0)
(0,0,0)
(0,0,0)
(0,0,0)
(0,0,0)
(0,0,0)
(0,0,0)
(0,0,0)
(0,0,0)
(0,0,0)
(0,0,0)
(0,0,0)
(0,0,0)
(0,0,0)
(0,0,0)
(0,0,0)
(0,0,0)
(0,0,0)
(0,0,0)
(0,0,0)
(0,0,0)
(0,0,0)
(0,0,0)
(0,0,0)
(0,0,0)
(0,0,0)
(0,0,0)
(0,0,0)
(0,0,0)
(0,0,0)
(0,0,0)
(0,0,0)
(0,0,0)
(0,0,0)
(0,0,0)
(0,0,0)
(0,0,0)
(0,0,0)
(-115847.046273367,61448.6493501647,54398.3969232025)
(-122478.136462096,58910.6644194735,117965.868965825)
(-137862.400716289,53682.1068637759,202146.162818338)
(-167009.519606437,45430.7308202181,323724.951604557)
(-219529.073727584,34238.7396292149,509015.285702928)
(-313810.745382292,21314.8446350626,801511.186450157)
(-484592.454959575,9557.61626917201,1276546.02514056)
(-793293.845532691,2381.78589217475,2067458.08478107)
(-1308420.4283058,24.0535504418829,3375854.45953644)
(-1823036.52083056,-187.183413281341,5199078.16378028)
(0,0,0)
(0,0,0)
(0,0,0)
(0,0,0)
(0,0,0)
(0,0,0)
(-122457.973689579,132109.808324463,51796.8147152801)
(-129173.676866694,127331.922953347,112549.2330481)
(-144831.437598674,117359.484900948,193703.292609602)
(-174668.72503142,101382.953242151,312419.795219088)
(-228666.445382472,79253.8624273547,496071.117803421)
(-325233.518564201,52876.4007797469,789743.080222937)
(-497896.487932383,27902.903801594,1269294.2806229)
(-805425.635905073,12108.6008613222,2064993.10155882)
(-1316503.46168068,5926.1037192573,3375594.51307069)
(-1826805.44770177,3017.431102668,5199195.34625649)
(0,0,0)
(0,0,0)
(0,0,0)
(0,0,0)
(0,0,0)
(0,0,0)
(-137676.997951863,222853.081686467,46933.7245898597)
(-144537.233157788,216451.097178125,102351.783522869)
(-160733.257996202,202906.82630307,177537.70011695)
(-192057.215467647,180833.241148444,290144.627678305)
(-249510.603149764,149304.981100551,469604.112154874)
(-352082.007232779,109860.484722733,764702.035444666)
(-530682.174757294,69889.7770261066,1253397.33697745)
(-835621.164818784,42434.8961651011,2058692.20649245)
(-1335950.5514418,27964.7458981562,3372604.11575536)
(-1835617.32618706,15147.047664304,5196091.82538077)
(0,0,0)
(0,0,0)
(0,0,0)
(0,0,0)
(0,0,0)
(0,0,0)
(-166128.348667674,348540.540173898,40440.8901802439)
(-173113.241337081,341384.063030644,88621.1656648057)
(-189946.335804883,326155.775309487,155318.552463271)
(-223424.604935163,301080.274299425,258496.124247453)
(-286576.343967462,264305.272974284,430072.176341181)
(-400655.202690456,215910.791920614,724677.071833756)
(-593431.928571805,162093.30344926,1225905.47398241)
(-893979.464866503,118158.698800005,2044161.136214)
(-1371561.25494408,83963.3190388269,3359723.81801742)
(-1851173.21012476,45170.1493952267,5180873.92641125)
(0,0,0)
(0,0,0)
(0,0,0)
(0,0,0)
(0,0,0)
(0,0,0)
(-217126.598401488,532386.221873794,33280.9167015913)
(-224064.452368331,525419.599333667,73309.8327668995)
(-241208.424018544,510559.069816311,130114.96227862)
(-276499.197828643,486095.998659082,221598.435747606)
(-345553.228653125,449858.128497365,381598.808877651)
(-473893.309813108,400521.138394156,670881.772217216)
(-689005.143470362,339961.593483033,1182018.62565381)
(-982850.536175686,273046.843048487,2009981.01758101)
(-1423310.06463298,196285.254959972,3320969.14629284)
(-1873626.03588828,104018.655331253,5135746.6762451)
(0,0,0)
(0,0,0)
(0,0,0)
(0,0,0)
(0,0,0)
(0,0,0)
(-309117.531214902,815174.909014298,26328.8440743976)
(-315680.868757802,808976.909295452,58452.402870415)
(-332258.442357451,795724.207624324,105545.707419854)
(-367222.21113639,773667.623628253,185196.293587073)
(-437010.993456637,739925.248934813,332140.166606263)
(-567817.037122398,690158.016604698,610320.325518119)
(-783622.628134505,618802.116322409,1115102.43081325)
(-1064134.6797745,519060.929187263,1933223.02444898)
(-1479336.99907001,380070.631350451,3228774.6471285)
(-1901851.98457131,202858.59838366,5031786.68864739)
(0,0,0)
(0,0,0)
(0,0,0)
(0,0,0)
(0,0,0)
(0,0,0)
(-477938.808835358,1273011.5781377,20102.1397119597)
(-483750.726925486,1267655.7512935,45174.0246393942)
(-498637.11052691,1256108.35555013,83426.9872404959)
(-530593.620898204,1236372.8972768,151315.334490155)
(-595426.660492632,1204406.95813664,282260.285780961)
(-718358.25932435,1151819.95137282,538956.610337187)
(-920899.466816245,1063308.60710791,1015349.58636793)
(-1175967.97027027,916128.934104911,1794249.55172055)
(-1562810.28413948,685482.998589182,3051647.46862129)
(-1947890.34321271,373456.790690653,4828939.61952701)
(0,0,0)
(0,0,0)
(0,0,0)
(0,0,0)
(0,0,0)
(0,0,0)
(-786755.468473742,2045049.70402972,14717.3425817184)
(-791414.471847053,2040175.38354817,33612.1821741096)
(-803423.072742836,2029460.08097313,63683.5294939461)
(-829432.70543839,2010263.41990215,119225.712306988)
(-882728.73684057,1976794.54768812,229566.859596077)
(-984947.638169485,1915909.65641452,450424.792723866)
(-1154569.62564655,1800166.96003617,868136.06544216)
(-1361029.96810772,1581696.60126852,1563598.36638627)
(-1714318.26312967,1223690.45550045,2739709.17260468)
(-2035926.03196785,693571.129875368,4455520.86538781)
(0,0,0)
(0,0,0)
(0,0,0)
(0,0,0)
(0,0,0)
(0,0,0)
(-1303938.42202695,3339135.362372,9852.76368466774)
(-1307123.01698596,3334252.87400517,22898.2902136261)
(-1315297.40687305,3323129.23776791,44526.5402918988)
(-1332812.41353165,3301880.49972293,85721.8740027653)
(-1368026.68075032,3261850.8210261,168692.281415101)
(-1434176.64269645,3184023.65729024,334754.923235821)
(-1545217.36853029,3030476.03003254,649663.221769739)
(-1710116.09377724,2735886.50463037,1205589.41218512)
(-1993779.65425428,2213367.37626361,2209692.14567624)
(-2189486.41372728,1330770.92242317,3761978.76685572)
(0,0,0)
(0,0,0)
(0,0,0)
(0,0,0)
(0,0,0)
(0,0,0)
(-1820986.30240465,5155105.27059355,5016.39418310076)
(-1822570.88291495,5150038.54930842,11801.6017947979)
(-1826628.89724031,5138212.48547599,23347.2513270388)
(-1835251.70519344,5114762.10824459,45717.3479988203)
(-1852310.59546014,5068935.70542608,90943.0590589779)
(-1884160.47808472,4977839.66254208,181287.531891848)
(-1939739.40340319,4796437.36747648,355065.597851093)
(-2033331.82194791,4441279.15857113,683004.765858241)
(-2188994.54530086,3758279.93882667,1327086.74859604)
(-2204508.62343936,2431189.40264109,2431176.89181749)
(0,0,0)
(0,0,0)
(0,0,0)
(0,0,0)
(0,0,0)
(0,0,0)
(0,0,0)
(0,0,0)
(0,0,0)
(0,0,0)
(0,0,0)
(0,0,0)
(0,0,0)
(0,0,0)
(0,0,0)
(0,0,0)
(0,0,0)
(0,0,0)
(0,0,0)
(0,0,0)
(0,0,0)
(0,0,0)
(0,0,0)
(0,0,0)
(0,0,0)
(0,0,0)
(0,0,0)
(0,0,0)
(0,0,0)
(0,0,0)
(0,0,0)
(0,0,0)
(0,0,0)
(0,0,0)
(0,0,0)
(0,0,0)
(0,0,0)
(0,0,0)
(0,0,0)
(0,0,0)
(0,0,0)
(0,0,0)
(0,0,0)
(0,0,0)
(0,0,0)
(0,0,0)
(0,0,0)
(0,0,0)
(0,0,0)
(0,0,0)
(0,0,0)
(0,0,0)
(0,0,0)
(0,0,0)
(0,0,0)
(0,0,0)
(0,0,0)
(0,0,0)
(0,0,0)
(0,0,0)
(0,0,0)
(0,0,0)
(0,0,0)
(0,0,0)
(0,0,0)
(0,0,0)
(0,0,0)
(0,0,0)
(0,0,0)
(0,0,0)
(0,0,0)
(0,0,0)
(0,0,0)
(0,0,0)
(0,0,0)
(0,0,0)
(0,0,0)
(0,0,0)
(0,0,0)
(0,0,0)
(0,0,0)
(0,0,0)
(0,0,0)
(0,0,0)
(0,0,0)
(0,0,0)
(0,0,0)
(0,0,0)
(0,0,0)
(0,0,0)
(0,0,0)
(0,0,0)
(0,0,0)
(0,0,0)
(0,0,0)
(0,0,0)
(0,0,0)
(0,0,0)
(0,0,0)
(0,0,0)
(0,0,0)
(0,0,0)
(17096894.8375421,54838.7073355051,47708.6292766786)
(17085817.8843468,52233.9406490095,102467.888246382)
(17060243.3716454,46750.2031766101,172901.133135709)
(17012356.2528103,37796.8306808718,271027.75046576)
(16927120.142383,25127.1288763044,414540.625906558)
(16775503.7817855,9929.62643018846,630585.692736241)
(16497219.7249862,-3697.80472737466,967760.537945537)
(15947169.5901669,-9681.47745521983,1552267.80012877)
(14706032.5461447,-8020.4590802425,2861124.50518614)
(11335332.4148944,-3937.18459120889,7021981.97448004)
(0,0,0)
(0,0,0)
(0,0,0)
(0,0,0)
(0,0,0)
(0,0,0)
(17085634.6490331,116970.380187098,45064.9248533671)
(17074469.1314169,112074.935943947,96870.3417024391)
(17048633.9268827,101589.135720914,163855.265104413)
(16999850.5453271,84091.5199742936,258330.525880113)
(16912258.1073118,58467.7854944243,399354.536995313)
(16756330.5150473,26078.3270068764,616931.023234759)
(16473777.9623457,-4832.19390515144,961680.182562057)
(15926020.9792338,-18010.2662443451,1553851.57663999)
(14692888.5185673,-13470.6347278428,2865198.99246723)
(11329582.6592736,-5766.21964692543,7025929.14097526)
(0,0,0)
(0,0,0)
(0,0,0)
(0,0,0)
(0,0,0)
(0,0,0)
(17059925.562924,194547.15759193,40109.8821469595)
(17048674.0532948,188023.346540033,86239.4055258996)
(17022287.0999212,173832.336172047,146265.067585043)
(16971361.8772638,149567.863047936,232658.852207598)
(16877685.7663086,112290.596665991,366928.892005339)
(16708935.4968485,61313.2456306595,585965.689727887)
(16410192.7724655,7153.19411238699,948394.574915176)
(15867649.181553,-15901.5049191117,1558304.68764584)
(14658931.8029968,-7627.72780803991,2872868.64671503)
(11315490.0424978,-377.781468152017,7031662.06027903)
(0,0,0)
(0,0,0)
(0,0,0)
(0,0,0)
(0,0,0)
(0,0,0)
(17012521.8398853,297662.726842138,33523.4626244469)
(17001292.2772465,290520.812208028,71909.6988005258)
(16974243.0576185,274942.773944344,121899.08803248)
(16919964.3246192,248034.540348609,195332.701605056)
(16815094.6503835,205331.681418763,315909.842928946)
(16617422.6026013,142657.439860705,531777.063834825)
(16268950.4906019,66533.6237249962,925303.435476232)
(15734848.6052281,29319.9911194023,1566543.08977077)
(14590339.9024018,32226.7637744997,2880076.66127001)
(11289126.1656114,22718.7280315706,7031969.99646182)
(0,0,0)
(0,0,0)
(0,0,0)
(0,0,0)
(0,0,0)
(0,0,0)
(16929059.4605389,440399.515462584,26366.3728667972)
(16918114.8724486,433758.384200486,56238.6964850424)
(16890942.219609,419445.061050314,94874.9861792197)
(16833810.4071768,395327.32779354,152561.814156476)
(16716108.5460241,358316.347902516,253204.593423138)
(16475061.8030851,306506.067871358,455690.072941931)
(16015079.1528556,245303.012239777,888125.608528845)
(15488665.9853291,191742.303863306,1569475.99470786)
(14482865.4588762,140229.717293375,2870586.7381075)
(11249953.5059487,75772.4890855776,7009242.65564419)
(0,0,0)
(0,0,0)
(0,0,0)
(0,0,0)
(0,0,0)
(0,0,0)
(16780599.5346551,646238.371480934,19733.2985393425)
(16770419.0626,640772.293417768,41908.6783918988)
(16744531.7794989,629197.394965706,70655.3430478376)
(16688423.795684,610176.155050387,115449.72939823)
(16569348.5633622,581365.414843393,201330.326066146)
(16321354.1501448,539477.202431311,394477.22466661)
(15855490.0756907,481427.998797188,834528.754711623)
(15352319.6856332,407162.972761295,1517942.94083354)
(14391392.1830134,296568.87782994,2806163.81864123)
(11205080.70758,156800.146520608,6933492.68948257)
(0,0,0)
(0,0,0)
(0,0,0)
(0,0,0)
(0,0,0)
(0,0,0)
(16505224.4382769,964090.581860002,14273.762936346)
(16496362.858487,959875.218677567,30346.4726917205)
(16473430.1915938,951186.313883864,51579.4720804783)
(16422471.392718,937423.219505186,86556.6144371286)
(16311418.8035785,916983.854025168,159381.931611875)
(16074250.2627552,885128.329976376,336411.502414953)
(15622406.7304849,829585.534967323,760236.989371318)
(15168337.1283666,731025.273971123,1407358.80995231)
(14255996.4968832,533933.711124823,2666476.41606242)
(11128554.1007236,285401.66690482,6776719.67216952)
(0,0,0)
(0,0,0)
(0,0,0)
(0,0,0)
(0,0,0)
(0,0,0)
(15954760.0533823,1527784.87857325,10079.4018583386)
(15947758.9916843,1524371.26441883,21699.1130133349)
(15929490.5178065,1517456.36041633,37804.6963591495)
(15888301.2933587,1506764.03450843,66019.1029864491)
(15796769.899172,1491355.25465151,127438.286775175)
(15595553.5062703,1466537.68701081,280817.005728583)
(15200051.529572,1409445.07023853,661625.535666447)
(14904047.5885584,1232565.04095711,1210297.43244196)
(13982967.5267907,944185.30935578,2418049.26471826)
(10951444.9599149,540003.984096216,6491365.17607177)
(0,0,0)
(0,0,0)
(0,0,0)
(0,0,0)
(0,0,0)
(0,0,0)
(14710448.326202,2821995.39581261,6691.95495930446)
(14705726.3728033,2818698.40856536,14804.6414512108)
(14693508.6220075,2811634.36913653,27109.8242780534)
(14666530.6845613,2799260.645963,50559.3351582125)
(14609223.6071029,2777359.06417328,102594.458210827)
(14492690.9846041,2733833.36065806,223720.377690663)
(14282723.7894035,2635809.7495172,484703.760905904)
(13987940.3448666,2412583.21476505,921918.368881746)
(13155595.5971992,2018075.10541246,2013942.54179926)
(10412637.6102682,1315713.84885904,5951397.87346863)
(0,0,0)
(0,0,0)
(0,0,0)
(0,0,0)
(0,0,0)
(0,0,0)
(11336951.078506,6975924.47951138,3422.75581827401)
(11334604.2027128,6972469.22074955,7766.07843397161)
(11328603.3417435,6964673.80467732,14783.6243370511)
(11315617.7818843,6949776.45755638,28687.5460935958)
(11288968.114042,6920952.7611368,59104.3600555386)
(11236609.355886,6861737.03307992,125720.07409061)
(11139694.8229007,6735939.57305347,261445.244678076)
(10954184.1540888,6474449.61753447,527352.086299625)
(10413029.7104365,5947136.07602499,1311556.0803774)
(8466783.34148636,4635618.95149028,4635648.23324807)
(0,0,0)
(0,0,0)
(0,0,0)
(0,0,0)
(0,0,0)
(0,0,0)
(0,0,0)
(0,0,0)
(0,0,0)
(0,0,0)
(0,0,0)
(0,0,0)
(0,0,0)
(0,0,0)
(0,0,0)
(0,0,0)
(0,0,0)
(0,0,0)
(0,0,0)
(0,0,0)
(0,0,0)
(0,0,0)
(0,0,0)
(0,0,0)
(0,0,0)
(0,0,0)
(0,0,0)
(0,0,0)
(0,0,0)
(0,0,0)
(0,0,0)
(0,0,0)
(0,0,0)
(0,0,0)
(0,0,0)
(0,0,0)
(0,0,0)
(0,0,0)
(0,0,0)
(0,0,0)
(0,0,0)
(0,0,0)
(0,0,0)
(0,0,0)
(0,0,0)
(0,0,0)
(0,0,0)
(0,0,0)
(0,0,0)
(0,0,0)
(0,0,0)
(0,0,0)
(0,0,0)
(0,0,0)
(0,0,0)
(0,0,0)
(0,0,0)
(0,0,0)
(0,0,0)
(0,0,0)
(0,0,0)
(0,0,0)
(0,0,0)
(0,0,0)
(0,0,0)
(0,0,0)
(0,0,0)
(0,0,0)
(0,0,0)
(0,0,0)
(0,0,0)
(0,0,0)
(0,0,0)
(0,0,0)
(0,0,0)
(0,0,0)
(0,0,0)
(0,0,0)
(0,0,0)
(0,0,0)
(0,0,0)
(0,0,0)
(0,0,0)
(0,0,0)
(0,0,0)
(0,0,0)
(0,0,0)
(0,0,0)
(0,0,0)
(0,0,0)
(0,0,0)
(0,0,0)
(0,0,0)
(0,0,0)
(0,0,0)
(0,0,0)
(0,0,0)
(0,0,0)
(0,0,0)
(0,0,0)
(0,0,0)
(0,0,0)
(-298291.173352571,43428.6392590062,36468.1512080132)
(-310510.155109445,40826.6417865351,76680.3284501139)
(-338291.799645512,35106.7742508744,124819.505062525)
(-388907.511443095,25234.2353657597,185559.8135225)
(-475492.435586746,10219.9250631456,262663.246001414)
(-619981.808811524,-9218.1456278715,352077.761798644)
(-856409.196982684,-27115.3430703888,417532.80641022)
(-1230699.60105429,-30826.5869821458,310939.364185951)
(-1767365.43376182,-21175.1651633282,-509776.711171832)
(-2166475.3841795,-9677.15504850852,-4313580.97747707)
(0,0,0)
(0,0,0)
(0,0,0)
(0,0,0)
(0,0,0)
(0,0,0)
(-311209.269316541,91129.7533797545,33853.583801254)
(-323289.372381294,86225.4959452785,70924.0130131022)
(-350793.159040503,75238.3705771995,114930.282182327)
(-401448.294351518,55612.6852722054,170561.451526858)
(-489368.48894195,23895.1033964372,243223.649019724)
(-637836.904397701,-21278.7405931948,334162.443002414)
(-879822.836026906,-68388.0343306981,413746.712207729)
(-1250491.48868503,-76371.0690514188,320514.441768153)
(-1777301.5769914,-47428.3142106582,-498331.534053429)
(-2169985.22622677,-19840.2678840037,-4303889.75614524)
(0,0,0)
(0,0,0)
(0,0,0)
(0,0,0)
(0,0,0)
(0,0,0)
(-340193.270643928,147078.662827915,28880.7036921132)
(-351924.265221608,140584.203425137,59831.0943010473)
(-378966.345823342,125770.864866476,95262.8253286358)
(-430116.615635077,98197.583963288,138867.199108785)
(-522608.19356235,49708.4814841011,198058.560464399)
(-686422.65804454,-30207.405598803,287056.159935436)
(-958045.128181096,-134091.87267777,405708.678501483)
(-1318980.31596575,-148714.214133201,349392.100674335)
(-1807374.00789957,-76214.4384933257,-470805.184574222)
(-2179639.79144716,-26712.8411649473,-4284091.99777594)
(0,0,0)
(0,0,0)
(0,0,0)
(0,0,0)
(0,0,0)
(0,0,0)
(-392140.116209633,214144.064811734,22307.3336834847)
(-403238.645961858,207261.11869199,44872.1211973352)
(-429534.812591227,191549.846566592,67581.7892793113)
(-481736.834653088,161815.989011993,90375.3230752833)
(-584560.48289259,106302.104390286,118147.613017563)
(-793348.259540976,249.696043587441,183172.153089766)
(-1200981.70619304,-187351.87494835,391075.131727569)
(-1543059.71729726,-216882.471395196,421862.491087267)
(-1882681.30374461,-75252.1521818118,-421367.809505502)
(-2200334.25256769,-16445.1114733792,-4257464.34144567)
(0,0,0)
(0,0,0)
(0,0,0)
(0,0,0)
(0,0,0)
(0,0,0)
(-479347.893776875,291858.864123767,15403.3345761108)
(-489525.702693387,285943.893203592,29071.9147788617)
(-514374.866083335,272916.281607813,37733.3450022843)
(-566604.732494951,249854.963497858,34820.2897605398)
(-681646.707830005,211480.393545935,12108.0340313561)
(-976241.164006144,152747.457055429,-4375.98031689243)
(-1939280.96583339,85726.7580059808,361616.284990115)
(-2300788.14738505,55374.3673149054,563524.358566462)
(-2030305.76592244,48735.3760754839,-362581.165319884)
(-2234214.91021897,30909.4605457376,-4241056.54159903)
(0,0,0)
(0,0,0)
(0,0,0)
(0,0,0)
(0,0,0)
(0,0,0)
(-623094.382409518,370734.610733723,9528.95002696754)
(-632001.532455557,366553.629819585,16050.5880388925)
(-654288.841276933,357912.777280148,14585.4927147088)
(-702901.767572296,344088.643005425,-3611.8439641923)
(-814771.859788266,323326.454252803,-46626.7019482259)
(-1108705.19701365,292278.558995581,-71387.6771575443)
(-2025045.77524951,248285.105030369,331300.606330647)
(-2356317.93737467,223131.010035813,556892.36618999)
(-2099018.72000688,161150.290867214,-380400.866009104)
(-2268024.6547504,80274.8325681729,-4271950.09612884)
(0,0,0)
(0,0,0)
(0,0,0)
(0,0,0)
(0,0,0)
(0,0,0)
(-858152.103754724,413422.936727555,5398.99561011925)
(-865483.918205135,411057.696642156,7452.48505202407)
(-884217.519141855,407011.597205552,712.155434647534)
(-926633.82621294,403044.021731768,-24427.2247884071)
(-1029405.64285816,402147.752901066,-77713.2974276575)
(-1317328.9326757,406284.199501472,-115428.962930339)
(-2273266.56629038,407130.616054032,306109.602393632)
(-2579258.93729241,466643.293749576,494904.163911196)
(-2202830.27521268,260817.440818109,-461225.434371497)
(-2323776.23724595,108266.384643586,-4352175.86890497)
(0,0,0)
(0,0,0)
(0,0,0)
(0,0,0)
(0,0,0)
(0,0,0)
(-1233439.74244774,283253.137055481,3080.37507449363)
(-1238967.24099805,282109.077693981,3466.00627741056)
(-1253271.48765985,281227.058931205,-3276.67040951778)
(-1286582.61258615,284764.179226223,-25402.1423867558)
(-1371692.52924126,303586.659905067,-73667.8414051322)
(-1635931.25391084,363473.347454375,-114661.449604518)
(-2680287.50986726,491959.675445431,365559.310015727)
(-2184435.78154418,316304.200232822,289092.55320744)
(-2285381.9172292,116687.176594781,-613716.958976958)
(-2410043.30963473,1150.9644537259,-4460402.48966512)
(0,0,0)
(0,0,0)
(0,0,0)
(0,0,0)
(0,0,0)
(0,0,0)
(-1771828.37940139,-551752.303136073,1992.92536732588)
(-1775425.20671946,-552680.97988957,2645.34204593927)
(-1784599.76388948,-553561.730438236,253.296884774273)
(-1805130.37689512,-551967.946567432,-6642.73629283742)
(-1852055.35249622,-543220.314444936,-13846.0227713095)
(-1964167.51028663,-522578.439816033,13775.0389621943)
(-2209172.58530742,-507519.035601895,189860.904292739)
(-2289200.017415,-621448.435196524,89464.681576071)
(-2499598.59360641,-724715.737305985,-729227.43414523)
(-2538973.17144104,-630249.70186655,-4461505.2065434)
(0,0,0)
(0,0,0)
(0,0,0)
(0,0,0)
(0,0,0)
(0,0,0)
(-2169905.09160848,-4361276.94132487,1091.58787558792)
(-2171666.78913249,-4362407.48552604,1799.86492970713)
(-2176073.1517069,-4364262.16926556,1887.57677973981)
(-2185588.10994274,-4366275.75154632,2112.05315801265)
(-2205753.33238092,-4368477.43349452,6801.39820290995)
(-2247976.98775542,-4375324.22874488,28844.3103455397)
(-2325976.33204396,-4404211.58764201,75918.796902687)
(-2412639.99180935,-4480149.18414815,-13845.5286752247)
(-2539757.07124211,-4466258.45470039,-634805.250029867)
(-2450892.32086034,-3831377.37069545,-3831291.13928191)
(0,0,0)
(0,0,0)
(0,0,0)
(0,0,0)
(0,0,0)
(0,0,0)
(0,0,0)
(0,0,0)
(0,0,0)
(0,0,0)
(0,0,0)
(0,0,0)
(0,0,0)
(0,0,0)
(0,0,0)
(0,0,0)
(0,0,0)
(0,0,0)
(0,0,0)
(0,0,0)
(0,0,0)
(0,0,0)
(0,0,0)
(0,0,0)
(0,0,0)
(0,0,0)
(0,0,0)
(0,0,0)
(0,0,0)
(0,0,0)
(0,0,0)
(0,0,0)
(0,0,0)
(0,0,0)
(0,0,0)
(0,0,0)
(0,0,0)
(0,0,0)
(0,0,0)
(0,0,0)
(0,0,0)
(0,0,0)
(0,0,0)
(0,0,0)
(0,0,0)
(0,0,0)
(0,0,0)
(0,0,0)
(0,0,0)
(0,0,0)
(0,0,0)
(0,0,0)
(0,0,0)
(0,0,0)
(0,0,0)
(0,0,0)
(0,0,0)
(0,0,0)
(0,0,0)
(0,0,0)
(0,0,0)
(0,0,0)
(0,0,0)
(0,0,0)
(0,0,0)
(0,0,0)
(0,0,0)
(0,0,0)
(0,0,0)
(0,0,0)
(0,0,0)
(0,0,0)
(0,0,0)
(0,0,0)
(0,0,0)
(0,0,0)
(0,0,0)
(0,0,0)
(0,0,0)
(0,0,0)
(0,0,0)
(0,0,0)
(0,0,0)
(0,0,0)
(0,0,0)
(0,0,0)
(0,0,0)
(0,0,0)
(0,0,0)
(0,0,0)
(0,0,0)
(0,0,0)
(0,0,0)
(0,0,0)
(0,0,0)
(0,0,0)
(0,0,0)
(0,0,0)
(0,0,0)
(0,0,0)
(0,0,0)
(0,0,0)
(-352870.270859648,30487.4845907433,24091.612916334)
(-363239.876610766,28085.8033467973,48735.5310708583)
(-386166.882895153,22619.4179449304,73991.1963755687)
(-426254.577816118,12677.9758858146,98660.2868627768)
(-490954.058999224,-3657.63645872355,117779.546733978)
(-590481.93243808,-27013.2729027878,115292.943263322)
(-733599.170874438,-50470.5347658962,42953.451920974)
(-911152.817249645,-50586.3449582926,-226006.986925379)
(-1053108.79915086,-31092.5054589899,-909171.116077341)
(-915048.54112543,-13183.5738368161,-2147414.38529459)
(0,0,0)
(0,0,0)
(0,0,0)
(0,0,0)
(0,0,0)
(0,0,0)
(-364617.670534444,62190.0766340864,21705.8091745595)
(-374448.480790777,57659.5017597135,43291.2191711249)
(-396116.942382431,47126.9142395063,64107.5062184777)
(-434061.961144856,26997.9440616304,82401.204836)
(-495812.772968308,-9285.66152655756,94473.5139301917)
(-592505.827139048,-69770.4189877838,91899.5827565348)
(-734705.173138473,-146533.551620497,42844.9367227011)
(-906871.664498464,-144814.843089438,-206546.389332722)
(-1046153.7228645,-77480.7537494468,-891305.99516917)
(-910771.671282661,-29486.7955124762,-2134216.32843762)
(0,0,0)
(0,0,0)
(0,0,0)
(0,0,0)
(0,0,0)
(0,0,0)
(-390453.013551367,95275.4969105121,17174.3226310133)
(-399196.828962057,89358.2869369649,32748.1011942114)
(-418385.656831098,75270.0359016313,44024.2905398416)
(-451961.323939053,46626.1731074662,46240.7697979823)
(-507537.248711808,-12202.2849273782,34086.448348261)
(-600272.951582084,-137068.7018023,15235.0247003226)
(-756984.809715184,-376950.663066233,44591.8176801487)
(-907241.036305877,-372727.747481967,-139234.557587196)
(-1029269.46117328,-151468.708225382,-843351.149837551)
(-900347.913829859,-47370.8370955206,-2104758.98587181)
(0,0,0)
(0,0,0)
(0,0,0)
(0,0,0)
(0,0,0)
(0,0,0)
(-435089.985618739,126967.403765004,11257.9625546145)
(-442222.234548121,120978.759608079,18621.0784697647)
(-457713.004527621,106702.325475443,15366.9808323474)
(-484188.091383789,76931.105689134,-12486.6950186193)
(-527753.944865292,9198.04269701357,-90693.560670308)
(-613871.31579595,-182657.329209937,-224581.877007697)
(-925708.734048478,-925648.382713458,48842.8704949644)
(-974333.522268449,-974600.903430708,81989.8314148949)
(-989994.344712629,-222841.874051486,-739323.961790986)
(-879259.837631089,-50295.8630919649,-2057473.35073114)
(0,0,0)
(0,0,0)
(0,0,0)
(0,0,0)
(0,0,0)
(0,0,0)
(-505657.388042341,147992.683964324,5284.21406614521)
(-510918.535462961,143327.071975908,4328.73446789055)
(-521770.007491167,132873.28341604,-14447.0820648745)
(-537367.326462473,113452.28000821,-80205.6624164292)
(-548389.448043501,78240.4674379581,-282505.346943878)
(-494114.809102076,20203.1941234016,-967492.225181286)
(-8.82919155181793e-05,-2.14442835604447e-05,5.68545484341736e-05)