/*--------------------------------*- C++ -*----------------------------------*\
| =========                 |                                                 |
| \\      /  F ield         | foam-extend: Open Source CFD                    |
|  \\    /   O peration     | Version:     4.0                                |
|   \\  /    A nd           | Web:         http://www.foam-extend.org         |
|    \\/     M anipulation  |                                                 |
\*---------------------------------------------------------------------------*/
FoamFile
{
    version 2.0;
    format ascii;
    class volVectorField;
    location "Data/1045";
    object      E;
}
// * * * * * * * * * * * * * * * * * * * * * * * * * * * * * * * * * * * * * //

dimensions      [0 1 -1 0 0 0 0];

internalField   nonuniform List<vector>
4096
(
(0,0,0)
(0,0,0)
(0,0,0)
(0,0,0)
(0,0,0)
(0,0,0)
(0,0,0)
(0,0,0)
(0,0,0)
(0,0,0)
(0,0,0)
(0,0,0)
(0,0,0)
(0,0,0)
(0,0,0)
(0,0,0)
(0,0,0)
(0,0,0)
(0,0,0)
(0,0,0)
(0,0,0)
(0,0,0)
(0,0,0)
(0,0,0)
(0,0,0)
(0,0,0)
(0,0,0)
(0,0,0)
(0,0,0)
(0,0,0)
(0,0,0)
(0,0,0)
(0,0,0)
(0,0,0)
(0,0,0)
(0,0,0)
(0,0,0)
(0,0,0)
(0,0,0)
(0,0,0)
(0,0,0)
(0,0,0)
(0,0,0)
(0,0,0)
(0,0,0)
(0,0,0)
(0,0,0)
(0,0,0)
(0,0,0)
(0,0,0)
(0,0,0)
(0,0,0)
(0,0,0)
(0,0,0)
(0,0,0)
(0,0,0)
(0,0,0)
(0,0,0)
(0,0,0)
(0,0,0)
(0,0,0)
(0,0,0)
(0,0,0)
(0,0,0)
(0,0,0)
(0,0,0)
(0,0,0)
(0,0,0)
(0,0,0)
(0,0,0)
(0,0,0)
(0,0,0)
(0,0,0)
(0,0,0)
(0,0,0)
(0,0,0)
(0,0,0)
(0,0,0)
(0,0,0)
(0,0,0)
(0,0,0)
(0,0,0)
(0,0,0)
(0,0,0)
(0,0,0)
(0,0,0)
(0,0,0)
(0,0,0)
(0,0,0)
(0,0,0)
(0,0,0)
(0,0,0)
(0,0,0)
(0,0,0)
(0,0,0)
(0,0,0)
(0,0,0)
(0,0,0)
(0,0,0)
(0,0,0)
(0,0,0)
(0,0,0)
(0,0,0)
(0,0,0)
(0,0,0)
(0,0,0)
(0,0,0)
(0,0,0)
(0,0,0)
(0,0,0)
(0,0,0)
(0,0,0)
(0,0,0)
(0,0,0)
(0,0,0)
(0,0,0)
(0,0,0)
(0,0,0)
(0,0,0)
(0,0,0)
(0,0,0)
(0,0,0)
(0,0,0)
(0,0,0)
(0,0,0)
(0,0,0)
(0,0,0)
(0,0,0)
(0,0,0)
(0,0,0)
(0,0,0)
(0,0,0)
(0,0,0)
(0,0,0)
(0,0,0)
(0,0,0)
(0,0,0)
(0,0,0)
(0,0,0)
(0,0,0)
(0,0,0)
(0,0,0)
(0,0,0)
(0,0,0)
(0,0,0)
(0,0,0)
(0,0,0)
(0,0,0)
(0,0,0)
(0,0,0)
(0,0,0)
(0,0,0)
(0,0,0)
(0,0,0)
(0,0,0)
(0,0,0)
(0,0,0)
(0,0,0)
(0,0,0)
(0,0,0)
(0,0,0)
(0,0,0)
(0,0,0)
(0,0,0)
(0,0,0)
(0,0,0)
(0,0,0)
(0,0,0)
(0,0,0)
(0,0,0)
(0,0,0)
(0,0,0)
(0,0,0)
(0,0,0)
(0,0,0)
(0,0,0)
(0,0,0)
(0,0,0)
(0,0,0)
(0,0,0)
(0,0,0)
(0,0,0)
(0,0,0)
(0,0,0)
(0,0,0)
(0,0,0)
(0,0,0)
(0,0,0)
(0,0,0)
(0,0,0)
(0,0,0)
(0,0,0)
(0,0,0)
(0,0,0)
(0,0,0)
(0,0,0)
(0,0,0)
(0,0,0)
(0,0,0)
(0,0,0)
(0,0,0)
(0,0,0)
(0,0,0)
(0,0,0)
(0,0,0)
(0,0,0)
(0,0,0)
(0,0,0)
(0,0,0)
(0,0,0)
(0,0,0)
(0,0,0)
(0,0,0)
(0,0,0)
(0,0,0)
(0,0,0)
(0,0,0)
(0,0,0)
(0,0,0)
(0,0,0)
(0,0,0)
(0,0,0)
(0,0,0)
(0,0,0)
(0,0,0)
(0,0,0)
(0,0,0)
(0,0,0)
(0,0,0)
(0,0,0)
(0,0,0)
(0,0,0)
(0,0,0)
(0,0,0)
(0,0,0)
(0,0,0)
(0,0,0)
(0,0,0)
(0,0,0)
(0,0,0)
(0,0,0)
(0,0,0)
(0,0,0)
(0,0,0)
(0,0,0)
(0,0,0)
(0,0,0)
(0,0,0)
(0,0,0)
(0,0,0)
(0,0,0)
(0,0,0)
(0,0,0)
(0,0,0)
(0,0,0)
(0,0,0)
(0,0,0)
(0,0,0)
(0,0,0)
(0,0,0)
(0,0,0)
(0,0,0)
(0,0,0)
(0,0,0)
(0,0,0)
(0,0,0)
(0,0,0)
(0,0,0)
(0,0,0)
(0,0,0)
(0,0,0)
(0,0,0)
(0,0,0)
(0,0,0)
(0,0,0)
(0,0,0)
(0,0,0)
(0,0,0)
(0,0,0)
(0,0,0)
(0,0,0)
(0,0,0)
(0,0,0)
(0,0,0)
(0,0,0)
(0,0,0)
(0,0,0)
(0,0,0)
(0,0,0)
(0,0,0)
(0,0,0)
(0,0,0)
(0,0,0)
(0,0,0)
(0,0,0)
(0,0,0)
(0,0,0)
(0,0,0)
(0,0,0)
(0,0,0)
(0,0,0)
(0,0,0)
(0,0,0)
(0,0,0)
(0,0,0)
(0,0,0)
(0,0,0)
(0,0,0)
(0,0,0)
(0,0,0)
(0,0,0)
(0,0,0)
(0,0,0)
(0,0,0)
(0,0,0)
(0,0,0)
(0,0,0)
(0,0,0)
(0,0,0)
(0,0,0)
(0,0,0)
(0,0,0)
(0,0,0)
(0,0,0)
(0,0,0)
(0,0,0)
(0,0,0)
(0,0,0)
(0,0,0)
(0,0,0)
(0,0,0)
(0,0,0)
(0,0,0)
(0,0,0)
(0,0,0)
(0,0,0)
(0,0,0)
(0,0,0)
(0,0,0)
(0,0,0)
(0,0,0)
(0,0,0)
(0,0,0)
(0,0,0)
(0,0,0)
(0,0,0)
(0,0,0)
(0,0,0)
(0,0,0)
(0,0,0)
(0,0,0)
(0,0,0)
(0,0,0)
(0,0,0)
(0,0,0)
(0,0,0)
(0,0,0)
(0,0,0)
(0,0,0)
(0,0,0)
(0,0,0)
(0,0,0)
(0,0,0)
(0,0,0)
(0,0,0)
(0,0,0)
(0,0,0)
(0,0,0)
(0,0,0)
(0,0,0)
(0,0,0)
(0,0,0)
(0,0,0)
(0,0,0)
(0,0,0)
(0,0,0)
(0,0,0)
(0,0,0)
(0,0,0)
(0,0,0)
(0,0,0)
(0,0,0)
(0,0,0)
(0,0,0)
(0,0,0)
(0,0,0)
(0,0,0)
(0,0,0)
(0,0,0)
(0,0,0)
(0,0,0)
(0,0,0)
(0,0,0)
(0,0,0)
(0,0,0)
(0,0,0)
(0,0,0)
(0,0,0)
(0,0,0)
(0,0,0)
(0,0,0)
(0,0,0)
(0,0,0)
(0,0,0)
(0,0,0)
(0,0,0)
(0,0,0)
(0,0,0)
(0,0,0)
(0,0,0)
(0,0,0)
(0,0,0)
(0,0,0)
(0,0,0)
(0,0,0)
(0,0,0)
(0,0,0)
(0,0,0)
(0,0,0)
(0,0,0)
(0,0,0)
(0,0,0)
(0,0,0)
(0,0,0)
(0,0,0)
(0,0,0)
(0,0,0)
(0,0,0)
(0,0,0)
(0,0,0)
(0,0,0)
(0,0,0)
(0,0,0)
(0,0,0)
(0,0,0)
(0,0,0)
(0,0,0)
(0,0,0)
(0,0,0)
(0,0,0)
(0,0,0)
(0,0,0)
(0,0,0)
(0,0,0)
(0,0,0)
(0,0,0)
(0,0,0)
(0,0,0)
(0,0,0)
(0,0,0)
(0,0,0)
(0,0,0)
(0,0,0)
(0,0,0)
(0,0,0)
(0,0,0)
(0,0,0)
(0,0,0)
(0,0,0)
(0,0,0)
(0,0,0)
(0,0,0)
(0,0,0)
(0,0,0)
(0,0,0)
(0,0,0)
(0,0,0)
(0,0,0)
(0,0,0)
(0,0,0)
(0,0,0)
(0,0,0)
(0,0,0)
(0,0,0)
(0,0,0)
(0,0,0)
(0,0,0)
(0,0,0)
(0,0,0)
(0,0,0)
(0,0,0)
(0,0,0)
(0,0,0)
(0,0,0)
(0,0,0)
(0,0,0)
(0,0,0)
(0,0,0)
(0,0,0)
(0,0,0)
(0,0,0)
(0,0,0)
(0,0,0)
(0,0,0)
(0,0,0)
(0,0,0)
(0,0,0)
(0,0,0)
(0,0,0)
(0,0,0)
(0,0,0)
(0,0,0)
(0,0,0)
(0,0,0)
(0,0,0)
(0,0,0)
(0,0,0)
(0,0,0)
(0,0,0)
(0,0,0)
(0,0,0)
(0,0,0)
(0,0,0)
(0,0,0)
(0,0,0)
(0,0,0)
(0,0,0)
(0,0,0)
(0,0,0)
(0,0,0)
(0,0,0)
(0,0,0)
(0,0,0)
(0,0,0)
(0,0,0)
(0,0,0)
(0,0,0)
(0,0,0)
(0,0,0)
(0,0,0)
(0,0,0)
(0,0,0)
(0,0,0)
(0,0,0)
(0,0,0)
(0,0,0)
(0,0,0)
(0,0,0)
(0,0,0)
(0,0,0)
(0,0,0)
(0,0,0)
(0,0,0)
(0,0,0)
(0,0,0)
(0,0,0)
(0,0,0)
(0,0,0)
(0,0,0)
(0,0,0)
(0,0,0)
(0,0,0)
(0,0,0)
(0,0,0)
(0,0,0)
(0,0,0)
(0,0,0)
(0,0,0)
(0,0,0)
(0,0,0)
(0,0,0)
(0,0,0)
(0,0,0)
(0,0,0)
(0,0,0)
(0,0,0)
(0,0,0)
(0,0,0)
(0,0,0)
(0,0,0)
(0,0,0)
(0,0,0)
(0,0,0)
(0,0,0)
(0,0,0)
(0,0,0)
(0,0,0)
(0,0,0)
(0,0,0)
(0,0,0)
(0,0,0)
(0,0,0)
(0,0,0)
(0,0,0)
(0,0,0)
(0,0,0)
(0,0,0)
(0,0,0)
(0,0,0)
(0,0,0)
(0,0,0)
(0,0,0)
(0,0,0)
(0,0,0)
(0,0,0)
(0,0,0)
(0,0,0)
(0,0,0)
(0,0,0)
(0,0,0)
(0,0,0)
(0,0,0)
(0,0,0)
(0,0,0)
(0,0,0)
(0,0,0)
(0,0,0)
(0,0,0)
(0,0,0)
(0,0,0)
(0,0,0)
(0,0,0)
(0,0,0)
(0,0,0)
(0,0,0)
(0,0,0)
(0,0,0)
(0,0,0)
(0,0,0)
(0,0,0)
(0,0,0)
(0,0,0)
(0,0,0)
(0,0,0)
(0,0,0)
(0,0,0)
(0,0,0)
(0,0,0)
(0,0,0)
(0,0,0)
(0,0,0)
(0,0,0)
(0,0,0)
(0,0,0)
(0,0,0)
(0,0,0)
(0,0,0)
(0,0,0)
(0,0,0)
(0,0,0)
(0,0,0)
(0,0,0)
(0,0,0)
(0,0,0)
(0,0,0)
(0,0,0)
(0,0,0)
(0,0,0)
(0,0,0)
(0,0,0)
(0,0,0)
(0,0,0)
(0,0,0)
(0,0,0)
(0,0,0)
(0,0,0)
(0,0,0)
(0,0,0)
(0,0,0)
(0,0,0)
(0,0,0)
(0,0,0)
(0,0,0)
(0,0,0)
(0,0,0)
(0,0,0)
(0,0,0)
(0,0,0)
(0,0,0)
(0,0,0)
(0,0,0)
(0,0,0)
(0,0,0)
(0,0,0)
(0,0,0)
(0,0,0)
(0,0,0)
(0,0,0)
(0,0,0)
(0,0,0)
(0,0,0)
(0,0,0)
(0,0,0)
(0,0,0)
(0,0,0)
(0,0,0)
(0,0,0)
(0,0,0)
(0,0,0)
(0,0,0)
(0,0,0)
(0,0,0)
(0,0,0)
(0,0,0)
(0,0,0)
(0,0,0)
(0,0,0)
(0,0,0)
(0,0,0)
(0,0,0)
(0,0,0)
(0,0,0)
(0,0,0)
(0,0,0)
(0,0,0)
(0,0,0)
(0,0,0)
(0,0,0)
(0,0,0)
(0,0,0)
(0,0,0)
(0,0,0)
(0,0,0)
(0,0,0)
(0,0,0)
(0,0,0)
(0,0,0)
(0,0,0)
(0,0,0)
(0,0,0)
(0,0,0)
(0,0,0)
(0,0,0)
(0,0,0)
(0,0,0)
(0,0,0)
(0,0,0)
(0,0,0)
(0,0,0)
(0,0,0)
(0,0,0)
(0,0,0)
(0,0,0)
(0,0,0)
(0,0,0)
(0,0,0)
(0,0,0)
(0,0,0)
(0,0,0)
(0,0,0)
(0,0,0)
(0,0,0)
(0,0,0)
(0,0,0)
(0,0,0)
(0,0,0)
(0,0,0)
(0,0,0)
(0,0,0)
(0,0,0)
(0,0,0)
(0,0,0)
(0,0,0)
(0,0,0)
(0,0,0)
(0,0,0)
(0,0,0)
(0,0,0)
(0,0,0)
(0,0,0)
(0,0,0)
(0,0,0)
(0,0,0)
(0,0,0)
(0,0,0)
(0,0,0)
(0,0,0)
(0,0,0)
(0,0,0)
(0,0,0)
(0,0,0)
(0,0,0)
(0,0,0)
(0,0,0)
(0,0,0)
(0,0,0)
(0,0,0)
(0,0,0)
(0,0,0)
(0,0,0)
(0,0,0)
(0,0,0)
(0,0,0)
(0,0,0)
(0,0,0)
(0,0,0)
(0,0,0)
(0,0,0)
(0,0,0)
(0,0,0)
(0,0,0)
(0,0,0)
(0,0,0)
(0,0,0)
(0,0,0)
(0,0,0)
(0,0,0)
(0,0,0)
(0,0,0)
(0,0,0)
(0,0,0)
(0,0,0)
(0,0,0)
(0,0,0)
(0,0,0)
(0,0,0)
(0,0,0)
(0,0,0)
(0,0,0)
(0,0,0)
(0,0,0)
(0,0,0)
(0,0,0)
(0,0,0)
(0,0,0)
(0,0,0)
(0,0,0)
(0,0,0)
(0,0,0)
(437.265141698522,-96.9119252866549,-340.353216411976)
(387.024184683351,-73.4525368179846,-653.92486427724)
(322.670545534943,-85.5253070035468,-891.070102808422)
(220.189901128463,-94.6837307535083,-1016.57627318102)
(133.102650030917,-84.0498454141024,-1065.6290777923)
(57.4108752630439,-35.7660010265907,-1087.27395204207)
(-60.7834496900342,-11.0909277375905,-1015.39957458146)
(-261.975467408069,17.8468040080181,-771.270911187343)
(-718.811630794086,27.1488904572031,-79.6081707962819)
(-1266.06577315162,26.6617941868646,1159.79580817426)
(0,0,0)
(0,0,0)
(0,0,0)
(0,0,0)
(0,0,0)
(0,0,0)
(396.975570097547,-179.342957723682,-314.544537661053)
(356.992693875575,-160.464608919638,-584.525159431923)
(307.303270977014,-181.577596740004,-795.776140675841)
(212.180727820671,-180.244030025774,-922.396569220573)
(146.60034599124,-170.493194507732,-982.553566120255)
(78.8429158200494,-110.48107055841,-986.681412402188)
(-55.2023930379968,-34.5503878640535,-908.019559269912)
(-277.454351351398,48.9400114999345,-661.65841543798)
(-731.526316802054,59.4437756378097,37.5730162442139)
(-1269.69822950526,43.4414017259326,1290.49163812045)
(0,0,0)
(0,0,0)
(0,0,0)
(0,0,0)
(0,0,0)
(0,0,0)
(330.132159548906,-241.857574604506,-267.617542668567)
(310.586743171853,-233.691695099225,-504.97719966038)
(278.531341079902,-265.03317540776,-700.052962068006)
(189.825249512067,-281.480859887397,-788.641381716542)
(125.207879316137,-251.81833145516,-832.524124085549)
(67.8005208615744,-162.146990130212,-848.658725375005)
(-64.2883767395138,-34.8843777674297,-784.036358729505)
(-279.772104301467,59.4077824074659,-514.732025362345)
(-733.696735868484,65.305189652117,213.103296561449)
(-1279.08870058269,44.8046011708285,1490.82879768293)
(0,0,0)
(0,0,0)
(0,0,0)
(0,0,0)
(0,0,0)
(0,0,0)
(224.478117034139,-281.027156613749,-185.308535024441)
(245.200588173052,-298.286906761799,-365.913911533205)
(233.68752859485,-352.241570458974,-512.393045083141)
(145.735874853435,-362.983600967413,-576.626178861026)
(78.86780130773,-290.976512356357,-616.335799264564)
(35.4845386768169,-158.368723621536,-655.598604455785)
(-76.4139518858016,-5.1977749847143,-608.871255341326)
(-283.810626717263,73.1731647974314,-338.826011046476)
(-744.910256157643,76.8853821421243,394.504052580869)
(-1298.68842209546,57.5586782039372,1680.43839774245)
(0,0,0)
(0,0,0)
(0,0,0)
(0,0,0)
(0,0,0)
(0,0,0)
(164.850465335933,-374.125839957082,-71.7517819936284)
(191.789130095058,-384.870669133993,-176.957149717446)
(172.63543588994,-409.883176044113,-291.95098002335)
(94.631255437656,-388.347827507818,-361.218008915989)
(44.5272322868047,-295.384225135605,-401.33752841787)
(21.2577836380485,-160.968194620934,-419.995841071115)
(-42.8104733578278,-33.6815400180209,-348.701602676976)
(-227.045642518448,28.7266869211304,-77.2094822561946)
(-701.61266193446,66.0610620964502,635.227499770507)
(-1278.68920800845,39.451876311391,1932.02350969002)
(0,0,0)
(0,0,0)
(0,0,0)
(0,0,0)
(0,0,0)
(0,0,0)
(95.4673084735571,-457.586455680467,-12.0066927495622)
(119.139654151225,-445.793083853836,-70.2239321820207)
(106.47995912794,-451.639251768694,-134.947815585407)
(42.8687918190672,-419.412894808933,-146.751540106163)
(4.70805493939833,-303.428177714237,-143.415642467025)
(-16.1332408047725,-179.304073889536,-108.946522386095)
(-57.0353374387718,-65.5693456376792,-20.0233793021187)
(-237.539057016271,-0.728490195731069,246.970854811543)
(-705.608921947914,61.1278736278039,957.512965264572)
(-1280.4902389424,35.760454229257,2241.69462620465)
(0,0,0)
(0,0,0)
(0,0,0)
(0,0,0)
(0,0,0)
(0,0,0)
(-26.5505541221408,-433.785721961257,2.74982040579536)
(8.19026399830227,-434.58118073503,-16.6523467135044)
(15.1817026919178,-446.162640749908,-37.3106604203803)
(-40.4450372521166,-413.588848681666,-2.68966929234315)
(-84.5887338155602,-281.964413754546,60.4353005648791)
(-89.3788260796107,-173.176604859391,143.686657606823)
(-129.963305553819,-52.7252343725179,260.805851898357)
(-316.589965598907,44.6377768346505,532.029550461609)
(-758.934317817183,100.809495059529,1251.28224678393)
(-1318.98144684155,71.9709568778866,2534.05319102483)
(0,0,0)
(0,0,0)
(0,0,0)
(0,0,0)
(0,0,0)
(0,0,0)
(-309.636394509411,-111.703995206286,-12.4453322551742)
(-252.40830074063,-167.098938298293,-27.5192739482462)
(-221.627415397147,-215.591534391957,-36.4629648996479)
(-261.882592056518,-190.314322569051,2.14510103035797)
(-300.076063150327,-100.752090569578,121.008840989926)
(-282.73958833356,-16.4012922062165,246.97311666759)
(-314.963527671172,119.870016620581,389.341393331141)
(-527.438114271824,281.596780348616,679.820504104881)
(-939.669287040613,323.656694525791,1396.64259167862)
(-1436.35345983053,231.779767244807,2673.18724107791)
(0,0,0)
(0,0,0)
(0,0,0)
(0,0,0)
(0,0,0)
(0,0,0)
(-783.549246655209,675.612651145637,-3.76739970729608)
(-724.642493489967,583.140116667383,-29.3639611714295)
(-696.404345957962,499.300900344424,-47.8520499838981)
(-738.280359088374,505.661394843782,-5.54740830111238)
(-766.890064868376,546.008699494038,114.581866515812)
(-740.200822488369,609.191540672143,229.189856114975)
(-772.749537261036,759.958429124086,361.850980869893)
(-944.323069519927,949.909096818119,637.861733916002)
(-1279.78773710842,927.246267541975,1314.05989798137)
(-1625.37170555891,656.881773611356,2514.32959717513)
(0,0,0)
(0,0,0)
(0,0,0)
(0,0,0)
(0,0,0)
(0,0,0)
(-1315.47400635362,1973.25040284967,17.8362546357002)
(-1284.64977495704,1882.9437255443,2.68242071649002)
(-1263.76492075495,1778.6367118713,-12.8884700270467)
(-1287.24528368335,1748.90782008731,31.1103884231848)
(-1303.34351791612,1781.48662211796,98.9759837339979)
(-1290.37086303559,1857.57096784643,140.96741959278)
(-1306.59060617258,1998.54794389284,208.968510988521)
(-1392.28512733818,2155.85345995021,395.309275156017)
(-1581.9584787586,2045.07629372754,859.437727721462)
(-1706.5810992076,1500.18310988524,1722.71749066194)
(0,0,0)
(0,0,0)
(0,0,0)
(0,0,0)
(0,0,0)
(0,0,0)
(0,0,0)
(0,0,0)
(0,0,0)
(0,0,0)
(0,0,0)
(0,0,0)
(0,0,0)
(0,0,0)
(0,0,0)
(0,0,0)
(0,0,0)
(0,0,0)
(0,0,0)
(0,0,0)
(0,0,0)
(0,0,0)
(0,0,0)
(0,0,0)
(0,0,0)
(0,0,0)
(0,0,0)
(0,0,0)
(0,0,0)
(0,0,0)
(0,0,0)
(0,0,0)
(0,0,0)
(0,0,0)
(0,0,0)
(0,0,0)
(0,0,0)
(0,0,0)
(0,0,0)
(0,0,0)
(0,0,0)
(0,0,0)
(0,0,0)
(0,0,0)
(0,0,0)
(0,0,0)
(0,0,0)
(0,0,0)
(0,0,0)
(0,0,0)
(0,0,0)
(0,0,0)
(0,0,0)
(0,0,0)
(0,0,0)
(0,0,0)
(0,0,0)
(0,0,0)
(0,0,0)
(0,0,0)
(0,0,0)
(0,0,0)
(0,0,0)
(0,0,0)
(0,0,0)
(0,0,0)
(0,0,0)
(0,0,0)
(0,0,0)
(0,0,0)
(0,0,0)
(0,0,0)
(0,0,0)
(0,0,0)
(0,0,0)
(0,0,0)
(0,0,0)
(0,0,0)
(0,0,0)
(0,0,0)
(0,0,0)
(0,0,0)
(0,0,0)
(0,0,0)
(0,0,0)
(0,0,0)
(0,0,0)
(0,0,0)
(0,0,0)
(0,0,0)
(0,0,0)
(0,0,0)
(0,0,0)
(0,0,0)
(0,0,0)
(0,0,0)
(0,0,0)
(0,0,0)
(0,0,0)
(0,0,0)
(0,0,0)
(0,0,0)
(15450.5452431071,-28.4081961365878,-288.552663965275)
(15391.4153273612,-32.5285234585884,-564.096041919921)
(15307.3453724479,-50.5967956295548,-801.854831960696)
(15161.3703475226,-67.493982104037,-979.222055018077)
(14988.9951542762,-57.0068112514045,-1081.78850673589)
(14871.2682390476,-23.7881575771108,-1175.53847176084)
(14669.3091605011,16.5938383689714,-1225.90567907635)
(14261.3887644786,51.0905427913326,-1104.04121255685)
(13145.333207654,47.8952259905412,-319.762035752349)
(10123.2491877451,48.133671128188,2939.10857349118)
(0,0,0)
(0,0,0)
(0,0,0)
(0,0,0)
(0,0,0)
(0,0,0)
(15423.4243545614,-82.747090823474,-275.790648463595)
(15371.7714337219,-105.485698327138,-521.292972130288)
(15301.6253542502,-147.024531855821,-722.868077905307)
(15162.5209308168,-146.339085646476,-898.04393612136)
(15007.5094906392,-120.002866806296,-999.637783925366)
(14884.7873358267,-66.8310528877813,-1066.22006737891)
(14679.5878096522,13.7839420601601,-1101.8811323866)
(14257.8429211148,93.1996247545659,-982.968245527574)
(13152.041916027,95.0898610364996,-217.41187219734)
(10139.5780468191,82.1596700500367,3035.6050937463)
(0,0,0)
(0,0,0)
(0,0,0)
(0,0,0)
(0,0,0)
(0,0,0)
(15337.1688771879,-164.919180663776,-228.54538654379)
(15302.1931564425,-183.17863445486,-446.139622383268)
(15241.2670141354,-232.621586279043,-626.958999704576)
(15111.7119395856,-239.518020898967,-759.347513209498)
(14967.2945234321,-191.563313531991,-833.554469395548)
(14857.3884581812,-97.6395092236598,-896.014709106678)
(14662.1413128589,24.6739798674177,-937.015195224067)
(14262.2090914816,125.481435076056,-814.958959942419)
(13153.1948446827,131.400436811707,-41.8418750442889)
(10129.7198808211,103.967981381518,3223.86047355267)
(0,0,0)
(0,0,0)
(0,0,0)
(0,0,0)
(0,0,0)
(0,0,0)
(15179.1793172783,-273.82316250777,-149.477977140798)
(15184.6370281147,-277.879404088689,-297.894406113021)
(15147.3308215195,-318.030623725538,-429.809420302933)
(15033.3344385748,-321.434872215858,-539.171891378708)
(14912.2913581081,-255.123524125407,-612.715996342125)
(14837.0052639304,-136.784529898227,-678.772459637548)
(14685.0460171275,11.16806732615,-730.40727480085)
(14320.2675777987,122.087242993235,-634.772045948784)
(13175.3397949749,131.080639318043,141.616941629863)
(10106.8893954961,103.318550223513,3433.0077965483)
(0,0,0)
(0,0,0)
(0,0,0)
(0,0,0)
(0,0,0)
(0,0,0)
(15059.8954546521,-413.5672513169,-58.9816592334701)
(15072.1176606666,-402.538997183536,-118.331355460972)
(15046.8084809749,-395.588024684525,-218.627758263111)
(14948.9341262553,-375.801743098689,-322.244516929903)
(14857.3715027248,-301.005677690135,-392.88739251033)
(14823.4178100997,-190.302583595269,-445.210123960593)
(14774.2451351926,-73.3991622500752,-481.37926165311)
(14506.9980263447,13.1379164481574,-410.154362654884)
(13288.0743897298,60.5396181133693,367.018848047084)
(10143.8125698572,49.6756497983328,3694.4792119476)
(0,0,0)
(0,0,0)
(0,0,0)
(0,0,0)
(0,0,0)
(0,0,0)
(14935.810538402,-547.864951042939,-9.72628895616975)
(14954.0167995367,-528.832065700292,-21.9911245683706)
(14950.9810175655,-493.534617059469,-72.2263493328383)
(14866.4315814537,-462.546767957693,-112.724872749497)
(14791.9961849032,-366.274362383881,-138.425076757149)
(14773.9562274881,-268.516564809394,-153.981322536246)
(14776.258190709,-175.768801772597,-188.585969863349)
(14477.6646617362,-90.479630864565,-103.852900067625)
(13265.8759252771,-17.9707723793094,699.491884476141)
(10136.3109735288,5.35655117071155,4023.32901198921)
(0,0,0)
(0,0,0)
(0,0,0)
(0,0,0)
(0,0,0)
(0,0,0)
(14740.7425187064,-610.41287304608,-8.42590952535419)
(14766.7799552751,-614.86880943203,15.3403841947488)
(14781.3499408612,-577.846202902673,29.8029731835762)
(14704.7534306683,-543.014146451801,61.3911250323212)
(14631.8420158455,-420.963203150243,95.9684574089512)
(14661.600240161,-342.856519271649,115.648586905457)
(14719.1001428234,-279.95459153637,67.0901695475422)
(14382.9527446794,-190.899661646035,164.286731376003)
(13165.4873241171,-75.0086051532075,993.222163483062)
(10074.6647908667,-3.95458249115215,4305.20630079007)
(0,0,0)
(0,0,0)
(0,0,0)
(0,0,0)
(0,0,0)
(0,0,0)
(14216.7789124525,-410.54008566133,-29.968853007702)
(14267.886044848,-453.470755670312,-15.3420110697868)
(14305.4930614704,-456.95194913324,32.9624995308682)
(14266.2477288958,-434.140834221961,92.278107711336)
(14222.8528750338,-338.997019299015,183.702226892288)
(14309.2022011246,-308.513442037305,253.736601526193)
(14428.8795253273,-264.422011219991,190.680209420554)
(13906.4502572996,-80.1229213993912,342.334338830472)
(12799.69967435,58.1200271594358,1166.15598631611)
(9871.42527162959,98.2870526742512,4452.45486095557)
(0,0,0)
(0,0,0)
(0,0,0)
(0,0,0)
(0,0,0)
(0,0,0)
(13074.2030247801,453.515602201841,-25.4887180382505)
(13135.4218696781,386.465870709574,-29.1704662683574)
(13174.8095302542,335.457023739372,3.52592591975521)
(13140.8266141592,333.903636145048,52.6937235238189)
(13124.2404509839,361.033320897157,157.85210873034)
(13208.8189754135,367.108640412749,229.529469653362)
(13222.5270182348,450.457876377334,215.692267863997)
(12826.3478138197,662.885257947011,398.332446493599)
(11913.2060416045,766.953652569808,1192.82428365763)
(9330.14116790278,631.778709606343,4400.13899447251)
(0,0,0)
(0,0,0)
(0,0,0)
(0,0,0)
(0,0,0)
(0,0,0)
(10069.2919358549,3762.44670675035,2.62219446626606)
(10108.7618352823,3688.30670136462,3.68899484779294)
(10142.1135742061,3611.77815521504,17.8086096430581)
(10125.5803192831,3583.20030664156,52.0055775225186)
(10116.3107498542,3572.44870828157,117.255163696197)
(10151.6116724919,3598.3616519286,140.338858014572)
(10134.761593559,3709.57924859957,136.184527330085)
(9926.70936415606,3896.76473862807,279.629796431098)
(9365.81634734076,3922.29174148212,872.836122693343)
(7570.98600662405,3323.73047004072,3599.63649766829)
(0,0,0)
(0,0,0)
(0,0,0)
(0,0,0)
(0,0,0)
(0,0,0)
(0,0,0)
(0,0,0)
(0,0,0)
(0,0,0)
(0,0,0)
(0,0,0)
(0,0,0)
(0,0,0)
(0,0,0)
(0,0,0)
(0,0,0)
(0,0,0)
(0,0,0)
(0,0,0)
(0,0,0)
(0,0,0)
(0,0,0)
(0,0,0)
(0,0,0)
(0,0,0)
(0,0,0)
(0,0,0)
(0,0,0)
(0,0,0)
(0,0,0)
(0,0,0)
(0,0,0)
(0,0,0)
(0,0,0)
(0,0,0)
(0,0,0)
(0,0,0)
(0,0,0)
(0,0,0)
(0,0,0)
(0,0,0)
(0,0,0)
(0,0,0)
(0,0,0)
(0,0,0)
(0,0,0)
(0,0,0)
(0,0,0)
(0,0,0)
(0,0,0)
(0,0,0)
(0,0,0)
(0,0,0)
(0,0,0)
(0,0,0)
(0,0,0)
(0,0,0)
(0,0,0)
(0,0,0)
(0,0,0)
(0,0,0)
(0,0,0)
(0,0,0)
(0,0,0)
(0,0,0)
(0,0,0)
(0,0,0)
(0,0,0)
(0,0,0)
(0,0,0)
(0,0,0)
(0,0,0)
(0,0,0)
(0,0,0)
(0,0,0)
(0,0,0)
(0,0,0)
(0,0,0)
(0,0,0)
(0,0,0)
(0,0,0)
(0,0,0)
(0,0,0)
(0,0,0)
(0,0,0)
(0,0,0)
(0,0,0)
(0,0,0)
(0,0,0)
(0,0,0)
(0,0,0)
(0,0,0)
(0,0,0)
(0,0,0)
(0,0,0)
(0,0,0)
(0,0,0)
(0,0,0)
(0,0,0)
(0,0,0)
(0,0,0)
(987.542508967872,-35.8590008205369,-197.457506345754)
(961.822152105792,-42.5730342111217,-421.610538146214)
(884.985230352972,-42.3736034830705,-653.196033812927)
(747.126297923615,-63.5969686301581,-871.674256813331)
(551.784644701048,-46.6094309022265,-1084.17355760918)
(403.528572649302,0.752933339496653,-1313.50606574672)
(183.854724161371,45.4600306976231,-1569.83090136045)
(-172.090063942146,68.223751942079,-1900.89506608458)
(-793.930230264044,43.8389584513832,-2701.78982791608)
(-1384.27655732041,44.6878360861548,-5935.27116017252)
(0,0,0)
(0,0,0)
(0,0,0)
(0,0,0)
(0,0,0)
(0,0,0)
(976.737999478596,-77.9501374378937,-207.541749613067)
(944.031498577033,-110.20560647648,-408.488483513252)
(879.629489347272,-127.664797812998,-597.520665553391)
(741.776375428698,-130.970664382493,-805.721655651704)
(550.57402874723,-91.7444674954496,-999.970398447522)
(399.494794613832,-17.7712819652858,-1192.4728831802)
(190.952058092481,72.4085933470829,-1427.10493562837)
(-160.671735265413,143.08652196042,-1779.7722905577)
(-768.799097981617,114.793190423291,-2626.20474970781)
(-1359.2735607594,90.6134341593194,-5869.59798151409)
(0,0,0)
(0,0,0)
(0,0,0)
(0,0,0)
(0,0,0)
(0,0,0)
(882.729703114301,-141.102410121528,-178.727794498732)
(854.795578448872,-179.421378529743,-358.433685756301)
(793.179211915777,-207.553593472088,-526.776329192451)
(665.26330894187,-208.564949883271,-699.052654365248)
(487.976874426115,-162.810518533139,-844.988195533209)
(345.039351723379,-52.3528540721961,-994.376758246256)
(158.613428690779,99.2464770312803,-1214.00599904483)
(-138.830307553744,236.02628702155,-1602.22560644943)
(-761.31217830999,200.778541006196,-2470.02317524848)
(-1374.169263409,136.344074136899,-5708.18391229857)
(0,0,0)
(0,0,0)
(0,0,0)
(0,0,0)
(0,0,0)
(0,0,0)
(723.97675173272,-272.246715093936,-109.972370741273)
(723.839662316508,-292.241627847287,-232.67399695901)
(677.515887000888,-304.461190716236,-362.270706483521)
(559.091917374537,-285.340983527106,-507.571392969389)
(413.656603166579,-221.760631793626,-646.305766013373)
(315.198174736678,-111.566606007837,-761.604166156891)
(220.517940336668,70.7126489237315,-964.861502552541)
(87.2718674270772,268.126503766423,-1460.28525020625)
(-658.407504136948,195.856239723217,-2317.93489104416)
(-1373.75806520374,119.377370203454,-5516.63996773612)
(0,0,0)
(0,0,0)
(0,0,0)
(0,0,0)
(0,0,0)
(0,0,0)
(601.219196022578,-457.413677509468,-52.4760202316535)
(591.504816136086,-462.794251938094,-97.6297928645798)
(566.846420386959,-441.685515924954,-176.762648393147)
(467.820987609021,-400.59161293628,-276.718121606013)
(356.85955012899,-316.261971728754,-378.024070367178)
(308.760406384048,-215.132137098921,-456.12037686859)
(421.918129660321,-94.3890779521641,-635.01088575412)
(789.783956018751,-35.6300877352292,-1310.35946523537)
(-416.67608279264,3.89109419476012,-2109.96308837995)
(-1314.67812824597,12.5027239080917,-5240.91698518391)
(0,0,0)
(0,0,0)
(0,0,0)
(0,0,0)
(0,0,0)
(0,0,0)
(468.929290431089,-685.334295454774,-1.51737532783322)
(472.562286834014,-669.180227152229,-9.99612866466133)
(472.129659985428,-623.578226960289,-45.5713013457095)
(392.620504302521,-584.560796347772,-84.1102821393833)
(295.701006186304,-489.83572263853,-110.560593772952)
(279.241994013674,-379.805120573622,-147.492618117)
(475.947828638898,-248.219048615562,-389.671526706309)
(564.829295826459,-180.595762065694,-1028.18972770402)
(-514.346179925506,-147.144067797689,-1793.25170182838)
(-1337.18719081163,-90.0483722449084,-4913.52168257545)
(0,0,0)
(0,0,0)
(0,0,0)
(0,0,0)
(0,0,0)
(0,0,0)
(265.361711261361,-912.453511533458,6.1807822129684)
(283.751087945538,-908.93844530234,32.6486264264076)
(293.88283014727,-852.945338264657,53.1636071251664)
(223.621789549544,-835.180959740312,88.5961703590126)
(135.20272843031,-742.32278399239,141.40327786351)
(221.538345991186,-648.748994356856,154.089804553483)
(703.379203591246,-549.282502965265,-225.445043110008)
(774.981783160863,-646.725617489926,-847.66346748251)
(-572.045610142168,-423.518675100349,-1530.07516718172)
(-1402.12070918247,-205.617861243835,-4634.03941946137)
(0,0,0)
(0,0,0)
(0,0,0)
(0,0,0)
(0,0,0)
(0,0,0)
(-184.597760429266,-1200.90390512007,-6.49217486410229)
(-136.502946716785,-1218.69133401913,11.3304641334548)
(-109.786716540958,-1197.55993298363,74.9055956283539)
(-143.755033630738,-1200.10584561891,153.514002666398)
(-184.50764209531,-1146.85547798437,269.087972560457)
(41.0636716707757,-1182.01586255822,374.174128918918)
(1166.71689255552,-1316.5838082173,-292.681174265931)
(-84.197611987256,-1054.65008507028,-590.428078652883)
(-936.110037441881,-716.910908859378,-1257.54537428694)
(-1536.88420756084,-373.178495232923,-4377.99450230138)
(0,0,0)
(0,0,0)
(0,0,0)
(0,0,0)
(0,0,0)
(0,0,0)
(-835.04402063563,-1972.44300732528,-15.5330936387335)
(-767.84265424667,-2011.36816067648,-15.9109843841529)
(-736.677326322492,-2038.04394276281,39.7406406893976)
(-757.55625054319,-2055.39120629599,97.0896248380304)
(-743.140238145778,-2071.95850732791,193.254102052344)
(-552.056081399351,-2150.13275306522,225.926808071044)
(-212.296436022325,-2203.73626008375,-148.416527110239)
(-812.100653468263,-1909.01359149005,-351.923794713075)
(-1369.80327807539,-1493.81992381836,-988.324701382544)
(-1735.19128959157,-944.995016736037,-4047.49496359035)
(0,0,0)
(0,0,0)
(0,0,0)
(0,0,0)
(0,0,0)
(0,0,0)
(-1438.56989378046,-5161.32409318271,0.423674252567958)
(-1381.12519345191,-5219.74629974113,2.36960073074092)
(-1347.414656689,-5270.04344344349,27.5780910995643)
(-1355.476415711,-5295.55341304211,52.4777915218469)
(-1341.4235472071,-5363.21603487981,105.150374859774)
(-1262.77216687957,-5424.84337383316,97.9255936995461)
(-1218.71760606755,-5395.50157529965,-53.1491326837963)
(-1439.43717390448,-5114.05527944433,-178.280147976456)
(-1706.51480283043,-4613.34060931684,-682.747553569812)
(-1800.55963188125,-3628.92663230849,-3323.58954071339)
(0,0,0)
(0,0,0)
(0,0,0)
(0,0,0)
(0,0,0)
(0,0,0)
(0,0,0)
(0,0,0)
(0,0,0)
(0,0,0)
(0,0,0)
(0,0,0)
(0,0,0)
(0,0,0)
(0,0,0)
(0,0,0)
(0,0,0)
(0,0,0)
(0,0,0)
(0,0,0)
(0,0,0)
(0,0,0)
(0,0,0)
(0,0,0)
(0,0,0)
(0,0,0)
(0,0,0)
(0,0,0)
(0,0,0)
(0,0,0)
(0,0,0)
(0,0,0)
(0,0,0)
(0,0,0)
(0,0,0)
(0,0,0)
(0,0,0)
(0,0,0)
(0,0,0)
(0,0,0)
(0,0,0)
(0,0,0)
(0,0,0)
(0,0,0)
(0,0,0)
(0,0,0)
(0,0,0)
(0,0,0)
(0,0,0)
(0,0,0)
(0,0,0)
(0,0,0)
(0,0,0)
(0,0,0)
(0,0,0)
(0,0,0)
(0,0,0)
(0,0,0)
(0,0,0)
(0,0,0)
(0,0,0)
(0,0,0)
(0,0,0)
(0,0,0)
(0,0,0)
(0,0,0)
(0,0,0)
(0,0,0)
(0,0,0)
(0,0,0)
(0,0,0)
(0,0,0)
(0,0,0)
(0,0,0)
(0,0,0)
(0,0,0)
(0,0,0)
(0,0,0)
(0,0,0)
(0,0,0)
(0,0,0)
(0,0,0)
(0,0,0)
(0,0,0)
(0,0,0)
(0,0,0)
(0,0,0)
(0,0,0)
(0,0,0)
(0,0,0)
(0,0,0)
(0,0,0)
(0,0,0)
(0,0,0)
(0,0,0)
(0,0,0)
(0,0,0)
(0,0,0)
(0,0,0)
(0,0,0)
(0,0,0)
(0,0,0)
(1220.52544209074,-50.8725508333556,-182.110382288657)
(1176.22120365895,-38.3995562337564,-358.109877608223)
(1108.4179499515,-24.8897783651869,-556.652818839306)
(1028.48718183891,-60.3482303829149,-777.665472374061)
(851.700763824289,-50.0052703584211,-1027.57632113598)
(693.66040509266,-10.1382549822095,-1307.56989859487)
(461.329303916587,37.1062152682628,-1622.15069361578)
(152.687822572197,60.9125681468788,-2007.84114827673)
(-213.592695389844,34.2270839509964,-2622.40576709467)
(-376.080786564551,28.5703871928073,-3659.17192505662)
(0,0,0)
(0,0,0)
(0,0,0)
(0,0,0)
(0,0,0)
(0,0,0)
(1205.72169321907,-95.74666660125,-184.109577972009)
(1165.06546935704,-100.221507220354,-343.321597769483)
(1109.53421408069,-96.434215237678,-501.681885630216)
(1002.43605206168,-119.912051334341,-702.777741313867)
(812.526584716705,-87.0882893010645,-927.647278340434)
(643.860001187829,-9.6539084127302,-1172.49683147692)
(423.115500587664,103.909785236149,-1471.46384393265)
(131.953501846714,201.911632328728,-1905.08814521986)
(-215.191698466546,140.172927881017,-2564.64138866797)
(-370.796010571581,87.2320829648289,-3611.78063465498)
(0,0,0)
(0,0,0)
(0,0,0)
(0,0,0)
(0,0,0)
(0,0,0)
(1112.51476176677,-154.318005958232,-171.213719292652)
(1078.7572115864,-182.696878241989,-312.699981412269)
(1020.14626385838,-195.160939979697,-440.940308615346)
(910.016244504338,-198.983890360856,-606.621405149137)
(728.440354854535,-157.729883751994,-776.443291129056)
(555.624116579981,-44.6317218862333,-952.050242521578)
(345.970915068274,178.51373785886,-1214.01168151508)
(143.680830845356,473.063764373501,-1767.67495196399)
(-224.517201930861,293.450440365092,-2457.74744083334)
(-395.025901098253,144.909510762092,-3494.56823096362)
(0,0,0)
(0,0,0)
(0,0,0)
(0,0,0)
(0,0,0)
(0,0,0)
(975.219399779076,-308.02619420172,-97.5344597988685)
(958.146065750232,-323.28324165466,-191.254499816856)
(900.248801813774,-323.391694071815,-285.756660535234)
(785.941457549094,-294.065496842506,-417.524594229425)
(621.07959306698,-213.328759971085,-569.348707905774)
(436.535450594059,-80.9714354573331,-654.346270198567)
(263.476438832964,264.585164309995,-783.376195152545)
(573.334997654828,938.792548936481,-1735.16810993826)
(-105.289992494103,371.614426062159,-2366.44960727771)
(-394.927413518292,133.041297797277,-3333.41204598779)
(0,0,0)
(0,0,0)
(0,0,0)
(0,0,0)
(0,0,0)
(0,0,0)
(854.414559251109,-527.972761137032,-33.2487962922684)
(832.474448706405,-527.53295516357,-69.9687153540465)
(799.969337534791,-499.843826130931,-126.639500441499)