/*--------------------------------*- C++ -*----------------------------------*\
| =========                 |                                                 |
| \\      /  F ield         | foam-extend: Open Source CFD                    |
|  \\    /   O peration     | Version:     4.0                                |
|   \\  /    A nd           | Web:         http://www.foam-extend.org         |
|    \\/     M anipulation  |                                                 |
\*---------------------------------------------------------------------------*/
FoamFile
{
    version 2.0;
    format ascii;
    class volVectorField;
    location "Data/3131";
    object      E;
}
// * * * * * * * * * * * * * * * * * * * * * * * * * * * * * * * * * * * * * //

dimensions      [0 1 -1 0 0 0 0];

internalField   nonuniform List<vector>
4096
(
(0,0,0)
(0,0,0)
(0,0,0)
(0,0,0)
(0,0,0)
(0,0,0)
(0,0,0)
(0,0,0)
(0,0,0)
(0,0,0)
(0,0,0)
(0,0,0)
(0,0,0)
(0,0,0)
(0,0,0)
(0,0,0)
(0,0,0)
(0,0,0)
(0,0,0)
(0,0,0)
(0,0,0)
(0,0,0)
(0,0,0)
(0,0,0)
(0,0,0)
(0,0,0)
(0,0,0)
(0,0,0)
(0,0,0)
(0,0,0)
(0,0,0)
(0,0,0)
(0,0,0)
(0,0,0)
(0,0,0)
(0,0,0)
(0,0,0)
(0,0,0)
(0,0,0)
(0,0,0)
(0,0,0)
(0,0,0)
(0,0,0)
(0,0,0)
(0,0,0)
(0,0,0)
(0,0,0)
(0,0,0)
(0,0,0)
(0,0,0)
(0,0,0)
(0,0,0)
(0,0,0)
(0,0,0)
(0,0,0)
(0,0,0)
(0,0,0)
(0,0,0)
(0,0,0)
(0,0,0)
(0,0,0)
(0,0,0)
(0,0,0)
(0,0,0)
(0,0,0)
(0,0,0)
(0,0,0)
(0,0,0)
(0,0,0)
(0,0,0)
(0,0,0)
(0,0,0)
(0,0,0)
(0,0,0)
(0,0,0)
(0,0,0)
(0,0,0)
(0,0,0)
(0,0,0)
(0,0,0)
(0,0,0)
(0,0,0)
(0,0,0)
(0,0,0)
(0,0,0)
(0,0,0)
(0,0,0)
(0,0,0)
(0,0,0)
(0,0,0)
(0,0,0)
(0,0,0)
(0,0,0)
(0,0,0)
(0,0,0)
(0,0,0)
(0,0,0)
(0,0,0)
(0,0,0)
(0,0,0)
(0,0,0)
(0,0,0)
(0,0,0)
(0,0,0)
(0,0,0)
(0,0,0)
(0,0,0)
(0,0,0)
(0,0,0)
(0,0,0)
(0,0,0)
(0,0,0)
(0,0,0)
(0,0,0)
(0,0,0)
(0,0,0)
(0,0,0)
(0,0,0)
(0,0,0)
(0,0,0)
(0,0,0)
(0,0,0)
(0,0,0)
(0,0,0)
(0,0,0)
(0,0,0)
(0,0,0)
(0,0,0)
(0,0,0)
(0,0,0)
(0,0,0)
(0,0,0)
(0,0,0)
(0,0,0)
(0,0,0)
(0,0,0)
(0,0,0)
(0,0,0)
(0,0,0)
(0,0,0)
(0,0,0)
(0,0,0)
(0,0,0)
(0,0,0)
(0,0,0)
(0,0,0)
(0,0,0)
(0,0,0)
(0,0,0)
(0,0,0)
(0,0,0)
(0,0,0)
(0,0,0)
(0,0,0)
(0,0,0)
(0,0,0)
(0,0,0)
(0,0,0)
(0,0,0)
(0,0,0)
(0,0,0)
(0,0,0)
(0,0,0)
(0,0,0)
(0,0,0)
(0,0,0)
(0,0,0)
(0,0,0)
(0,0,0)
(0,0,0)
(0,0,0)
(0,0,0)
(0,0,0)
(0,0,0)
(0,0,0)
(0,0,0)
(0,0,0)
(0,0,0)
(0,0,0)
(0,0,0)
(0,0,0)
(0,0,0)
(0,0,0)
(0,0,0)
(0,0,0)
(0,0,0)
(0,0,0)
(0,0,0)
(0,0,0)
(0,0,0)
(0,0,0)
(0,0,0)
(0,0,0)
(0,0,0)
(0,0,0)
(0,0,0)
(0,0,0)
(0,0,0)
(0,0,0)
(0,0,0)
(0,0,0)
(0,0,0)
(0,0,0)
(0,0,0)
(0,0,0)
(0,0,0)
(0,0,0)
(0,0,0)
(0,0,0)
(0,0,0)
(0,0,0)
(0,0,0)
(0,0,0)
(0,0,0)
(0,0,0)
(0,0,0)
(0,0,0)
(0,0,0)
(0,0,0)
(0,0,0)
(0,0,0)
(0,0,0)
(0,0,0)
(0,0,0)
(0,0,0)
(0,0,0)
(0,0,0)
(0,0,0)
(0,0,0)
(0,0,0)
(0,0,0)
(0,0,0)
(0,0,0)
(0,0,0)
(0,0,0)
(0,0,0)
(0,0,0)
(0,0,0)
(0,0,0)
(0,0,0)
(0,0,0)
(0,0,0)
(0,0,0)
(0,0,0)
(0,0,0)
(0,0,0)
(0,0,0)
(0,0,0)
(0,0,0)
(0,0,0)
(0,0,0)
(0,0,0)
(0,0,0)
(0,0,0)
(0,0,0)
(0,0,0)
(0,0,0)
(0,0,0)
(0,0,0)
(0,0,0)
(0,0,0)
(0,0,0)
(0,0,0)
(0,0,0)
(0,0,0)
(0,0,0)
(0,0,0)
(0,0,0)
(0,0,0)
(0,0,0)
(0,0,0)
(0,0,0)
(0,0,0)
(0,0,0)
(0,0,0)
(0,0,0)
(0,0,0)
(0,0,0)
(0,0,0)
(0,0,0)
(0,0,0)
(0,0,0)
(0,0,0)
(0,0,0)
(0,0,0)
(0,0,0)
(0,0,0)
(0,0,0)
(0,0,0)
(0,0,0)
(0,0,0)
(0,0,0)
(0,0,0)
(0,0,0)
(0,0,0)
(0,0,0)
(0,0,0)
(0,0,0)
(0,0,0)
(0,0,0)
(0,0,0)
(0,0,0)
(0,0,0)
(0,0,0)
(0,0,0)
(0,0,0)
(0,0,0)
(0,0,0)
(0,0,0)
(0,0,0)
(0,0,0)
(0,0,0)
(0,0,0)
(0,0,0)
(0,0,0)
(0,0,0)
(0,0,0)
(0,0,0)
(0,0,0)
(0,0,0)
(0,0,0)
(0,0,0)
(0,0,0)
(0,0,0)
(0,0,0)
(0,0,0)
(0,0,0)
(0,0,0)
(0,0,0)
(0,0,0)
(0,0,0)
(0,0,0)
(0,0,0)
(0,0,0)
(0,0,0)
(0,0,0)
(0,0,0)
(0,0,0)
(0,0,0)
(0,0,0)
(0,0,0)
(0,0,0)
(0,0,0)
(0,0,0)
(0,0,0)
(0,0,0)
(0,0,0)
(0,0,0)
(0,0,0)
(0,0,0)
(0,0,0)
(0,0,0)
(0,0,0)
(0,0,0)
(0,0,0)
(0,0,0)
(0,0,0)
(0,0,0)
(0,0,0)
(0,0,0)
(0,0,0)
(0,0,0)
(0,0,0)
(0,0,0)
(0,0,0)
(0,0,0)
(0,0,0)
(0,0,0)
(0,0,0)
(0,0,0)
(0,0,0)
(0,0,0)
(0,0,0)
(0,0,0)
(0,0,0)
(0,0,0)
(0,0,0)
(0,0,0)
(0,0,0)
(0,0,0)
(0,0,0)
(0,0,0)
(0,0,0)
(0,0,0)
(0,0,0)
(0,0,0)
(0,0,0)
(0,0,0)
(0,0,0)
(0,0,0)
(0,0,0)
(0,0,0)
(0,0,0)
(0,0,0)
(0,0,0)
(0,0,0)
(0,0,0)
(0,0,0)
(0,0,0)
(0,0,0)
(0,0,0)
(0,0,0)
(0,0,0)
(0,0,0)
(0,0,0)
(0,0,0)
(0,0,0)
(0,0,0)
(0,0,0)
(0,0,0)
(0,0,0)
(0,0,0)
(0,0,0)
(0,0,0)
(0,0,0)
(0,0,0)
(0,0,0)
(0,0,0)
(0,0,0)
(0,0,0)
(0,0,0)
(0,0,0)
(0,0,0)
(0,0,0)
(0,0,0)
(0,0,0)
(0,0,0)
(0,0,0)
(0,0,0)
(0,0,0)
(0,0,0)
(0,0,0)
(0,0,0)
(0,0,0)
(0,0,0)
(0,0,0)
(0,0,0)
(0,0,0)
(0,0,0)
(0,0,0)
(0,0,0)
(0,0,0)
(0,0,0)
(0,0,0)
(0,0,0)
(0,0,0)
(0,0,0)
(0,0,0)
(0,0,0)
(0,0,0)
(0,0,0)
(0,0,0)
(0,0,0)
(0,0,0)
(0,0,0)
(0,0,0)
(0,0,0)
(0,0,0)
(0,0,0)
(0,0,0)
(0,0,0)
(0,0,0)
(0,0,0)
(0,0,0)
(0,0,0)
(0,0,0)
(0,0,0)
(0,0,0)
(0,0,0)
(0,0,0)
(0,0,0)
(0,0,0)
(0,0,0)
(0,0,0)
(0,0,0)
(0,0,0)
(0,0,0)
(0,0,0)
(0,0,0)
(0,0,0)
(0,0,0)
(0,0,0)
(0,0,0)
(0,0,0)
(0,0,0)
(0,0,0)
(0,0,0)
(0,0,0)
(0,0,0)
(0,0,0)
(0,0,0)
(0,0,0)
(0,0,0)
(0,0,0)
(0,0,0)
(0,0,0)
(0,0,0)
(0,0,0)
(0,0,0)
(0,0,0)
(0,0,0)
(0,0,0)
(0,0,0)
(0,0,0)
(0,0,0)
(0,0,0)
(0,0,0)
(0,0,0)
(0,0,0)
(0,0,0)
(0,0,0)
(0,0,0)
(0,0,0)
(0,0,0)
(0,0,0)
(0,0,0)
(0,0,0)
(0,0,0)
(0,0,0)
(0,0,0)
(0,0,0)
(0,0,0)
(0,0,0)
(0,0,0)
(0,0,0)
(0,0,0)
(0,0,0)
(0,0,0)
(0,0,0)
(0,0,0)
(0,0,0)
(0,0,0)
(0,0,0)
(0,0,0)
(0,0,0)
(0,0,0)
(0,0,0)
(0,0,0)
(0,0,0)
(0,0,0)
(0,0,0)
(0,0,0)
(0,0,0)
(0,0,0)
(0,0,0)
(0,0,0)
(0,0,0)
(0,0,0)
(0,0,0)
(0,0,0)
(0,0,0)
(0,0,0)
(0,0,0)
(0,0,0)
(0,0,0)
(0,0,0)
(0,0,0)
(0,0,0)
(0,0,0)
(0,0,0)
(0,0,0)
(0,0,0)
(0,0,0)
(0,0,0)
(0,0,0)
(0,0,0)
(0,0,0)
(0,0,0)
(0,0,0)
(0,0,0)
(0,0,0)
(0,0,0)
(0,0,0)
(0,0,0)
(0,0,0)
(0,0,0)
(0,0,0)
(0,0,0)
(0,0,0)
(0,0,0)
(0,0,0)
(0,0,0)
(0,0,0)
(0,0,0)
(0,0,0)
(0,0,0)
(0,0,0)
(0,0,0)
(0,0,0)
(0,0,0)
(0,0,0)
(0,0,0)
(0,0,0)
(0,0,0)
(0,0,0)
(0,0,0)
(0,0,0)
(0,0,0)
(0,0,0)
(0,0,0)
(0,0,0)
(0,0,0)
(0,0,0)
(0,0,0)
(0,0,0)
(0,0,0)
(0,0,0)
(0,0,0)
(0,0,0)
(0,0,0)
(0,0,0)
(0,0,0)
(0,0,0)
(0,0,0)
(0,0,0)
(0,0,0)
(0,0,0)
(0,0,0)
(0,0,0)
(0,0,0)
(0,0,0)
(0,0,0)
(0,0,0)
(0,0,0)
(0,0,0)
(0,0,0)
(0,0,0)
(0,0,0)
(0,0,0)
(0,0,0)
(0,0,0)
(0,0,0)
(0,0,0)
(0,0,0)
(0,0,0)
(0,0,0)
(0,0,0)
(0,0,0)
(0,0,0)
(0,0,0)
(0,0,0)
(0,0,0)
(0,0,0)
(0,0,0)
(0,0,0)
(0,0,0)
(0,0,0)
(0,0,0)
(0,0,0)
(0,0,0)
(0,0,0)
(0,0,0)
(0,0,0)
(0,0,0)
(0,0,0)
(0,0,0)
(0,0,0)
(0,0,0)
(0,0,0)
(0,0,0)
(0,0,0)
(0,0,0)
(0,0,0)
(0,0,0)
(0,0,0)
(0,0,0)
(0,0,0)
(0,0,0)
(0,0,0)
(0,0,0)
(0,0,0)
(0,0,0)
(0,0,0)
(0,0,0)
(0,0,0)
(0,0,0)
(0,0,0)
(0,0,0)
(0,0,0)
(0,0,0)
(0,0,0)
(0,0,0)
(0,0,0)
(0,0,0)
(0,0,0)
(0,0,0)
(0,0,0)
(0,0,0)
(0,0,0)
(0,0,0)
(0,0,0)
(0,0,0)
(0,0,0)
(0,0,0)
(0,0,0)
(0,0,0)
(0,0,0)
(0,0,0)
(0,0,0)
(0,0,0)
(0,0,0)
(0,0,0)
(0,0,0)
(0,0,0)
(0,0,0)
(0,0,0)
(0,0,0)
(0,0,0)
(0,0,0)
(0,0,0)
(0,0,0)
(0,0,0)
(0,0,0)
(0,0,0)
(0,0,0)
(0,0,0)
(0,0,0)
(0,0,0)
(0,0,0)
(0,0,0)
(0,0,0)
(0,0,0)
(0,0,0)
(0,0,0)
(0,0,0)
(0,0,0)
(0,0,0)
(0,0,0)
(0,0,0)
(0,0,0)
(0,0,0)
(0,0,0)
(0,0,0)
(0,0,0)
(0,0,0)
(0,0,0)
(0,0,0)
(0,0,0)
(0,0,0)
(0,0,0)
(0,0,0)
(0,0,0)
(0,0,0)
(0,0,0)
(0,0,0)
(0,0,0)
(0,0,0)
(0,0,0)
(0,0,0)
(0,0,0)
(0,0,0)
(0,0,0)
(0,0,0)
(0,0,0)
(0,0,0)
(0,0,0)
(0,0,0)
(0,0,0)
(0,0,0)
(0,0,0)
(0,0,0)
(0,0,0)
(0,0,0)
(0,0,0)
(0,0,0)
(0,0,0)
(0,0,0)
(0,0,0)
(0,0,0)
(0,0,0)
(0,0,0)
(0,0,0)
(0,0,0)
(0,0,0)
(0,0,0)
(0,0,0)
(0,0,0)
(0,0,0)
(0,0,0)
(0,0,0)
(0,0,0)
(0,0,0)
(0,0,0)
(0,0,0)
(0,0,0)
(0,0,0)
(0,0,0)
(0,0,0)
(0,0,0)
(0,0,0)
(0,0,0)
(0,0,0)
(0,0,0)
(0,0,0)
(0,0,0)
(0,0,0)
(0,0,0)
(0,0,0)
(0,0,0)
(0,0,0)
(0,0,0)
(0,0,0)
(0,0,0)
(0,0,0)
(0,0,0)
(0,0,0)
(0,0,0)
(0,0,0)
(0,0,0)
(0,0,0)
(0,0,0)
(0,0,0)
(0,0,0)
(0,0,0)
(0,0,0)
(0,0,0)
(0,0,0)
(0,0,0)
(0,0,0)
(-511.610994151608,283.722939533493,227.888054617202)
(-522.798439961627,240.90027570649,509.786218871628)
(-560.412425233685,199.710352296182,870.488291805617)
(-655.371532394397,234.744559896917,1291.11526431371)
(-878.133368223637,235.378812523938,1933.8698200127)
(-1296.88162934121,210.365662807849,3020.38578655073)
(-2058.16556549432,173.752262615879,4904.79908945223)
(-3387.61263845865,114.625172407159,8177.78655551452)
(-5629.36430225692,59.6962741010171,13747.4545836353)
(-7956.98250642017,48.4713675782185,21655.9657225564)
(0,0,0)
(0,0,0)
(0,0,0)
(0,0,0)
(0,0,0)
(0,0,0)
(-534.031259761707,575.800465981677,241.953733311832)
(-554.229596914817,523.092277152972,513.991328782581)
(-591.587461372401,451.297203575634,853.991938872567)
(-669.859433941931,490.085499350079,1268.51043336185)
(-899.624303811907,477.147856305085,1926.36569338967)
(-1326.44144554544,434.587648537252,3028.58515319416)
(-2083.99051003197,373.446078915659,4912.88184691796)
(-3407.69523875587,274.812294263884,8160.38996377628)
(-5641.22015999079,158.476007723339,13702.8303901919)
(-7947.17402809439,97.6384560561083,21600.8373297098)
(0,0,0)
(0,0,0)
(0,0,0)
(0,0,0)
(0,0,0)
(0,0,0)
(-630.868981759387,983.28103295511,223.388414786078)
(-652.938976284297,933.553851003689,465.865817223424)
(-677.742445923511,837.091864195296,757.813602532455)
(-756.632128282242,854.187723337303,1150.34350682841)
(-1010.71278370882,805.894094508041,1832.31005232134)
(-1458.37536723226,757.46667416862,2967.80639392471)
(-2218.6243839175,673.015034120478,4886.86182265083)
(-3506.56590686428,533.299978078059,8134.94004564082)
(-5680.27893316227,341.531845765525,13632.1631408356)
(-7942.87107946207,183.65454449027,21489.0181318577)
(0,0,0)
(0,0,0)
(0,0,0)
(0,0,0)
(0,0,0)
(0,0,0)
(-722.056151963544,1531.71344302741,173.623741892384)
(-745.050942408858,1499.72735563568,352.50117967121)
(-785.646554987595,1389.27098763618,585.968611210123)
(-899.596921260968,1367.32410440103,972.429151399441)
(-1173.33345110001,1293.94885696514,1657.70784005365)
(-1650.86402479557,1240.32761853889,2825.71092046987)
(-2450.97095256382,1118.22784517048,4831.46906198005)
(-3702.60476015989,927.064897833507,8140.30890236118)
(-5774.36682442602,664.431187107734,13591.7763853794)
(-7982.05448507988,360.988601623198,21396.4968135023)
(0,0,0)
(0,0,0)
(0,0,0)
(0,0,0)
(0,0,0)
(0,0,0)
(-929.267012150374,2371.5461715199,89.4342836513599)
(-934.049093953395,2341.32385194801,181.886881291071)
(-979.056944457514,2215.23576958377,334.979043799309)
(-1118.31102737851,2133.70919758407,686.904977995955)
(-1404.28812031865,2053.37833934684,1331.76361593269)
(-1937.2606252419,1965.03522959351,2544.31663010081)
(-2830.86663360781,1815.62885980233,4677.78224907409)
(-4073.83122409515,1583.84444063018,8094.83393041339)
(-6008.00288404263,1196.12514651938,13571.1428551546)
(-8091.45981154583,661.602725291832,21361.9885430228)
(0,0,0)
(0,0,0)
(0,0,0)
(0,0,0)
(0,0,0)
(0,0,0)
(-1314.74670302294,3685.21677938718,1.07609516182645)
(-1314.13525759185,3623.78699954618,32.7482051477454)
(-1348.2416884812,3470.1679992199,126.057663996262)
(-1460.0476653454,3322.77952433941,397.035002577012)
(-1744.74666814897,3202.64583740821,992.514172673089)
(-2296.57735029013,3063.34994185123,2190.77681071436)
(-3216.83636249397,2870.08034505311,4353.16168795237)
(-4427.41077112911,2535.76181323354,7828.65508649051)
(-6250.83349426518,1937.73234806969,13337.8813792607)
(-8195.94581296971,1071.89579741063,21123.5341200494)
(0,0,0)
(0,0,0)
(0,0,0)
(0,0,0)
(0,0,0)
(0,0,0)
(-1990.46140705137,5655.8237973867,19.8543890439691)
(-1970.33534575499,5583.96435170725,30.0123826448411)
(-2014.35630659472,5437.61149438279,76.9251940774341)
(-2118.29538588627,5253.56870840337,264.43139589867)
(-2379.34458093863,5056.06110682348,790.36070742163)
(-2893.34827083154,4840.86002023733,1906.19889987795)
(-3777.00704841578,4548.68590896433,4004.60038439708)
(-4891.82959907369,4045.67810414902,7386.51369255191)
(-6596.67774032238,3136.04421483892,12784.8795660456)
(-8376.67093275337,1746.0054448048,20487.4408515051)
(0,0,0)
(0,0,0)
(0,0,0)
(0,0,0)
(0,0,0)
(0,0,0)
(-3323.31081177447,8934.10600394586,45.0286052121631)
(-3288.08807145065,8854.23507396957,62.8459544134655)
(-3311.69839738403,8719.77035520396,92.3854909995983)
(-3398.62193711517,8518.23114618493,226.344990317091)
(-3618.20063644312,8259.80672913507,640.800004448908)
(-4061.53539675685,7957.81015981733,1585.38526161237)
(-4823.12293139121,7511.13804207774,3446.05605984684)
(-5720.67139033406,6703.91893707244,6508.48661727864)
(-7266.00341796022,5316.56927392283,11593.9649761495)
(-8761.65660793944,3042.66012936366,19058.9668994872)
(0,0,0)
(0,0,0)
(0,0,0)
(0,0,0)
(0,0,0)
(0,0,0)
(-5585.28560357437,14474.3600450646,45.0315624518723)
(-5540.58635210029,14387.2132765019,52.6397120132288)
(-5529.84248674155,14219.019065713,83.2334881858892)
(-5587.20858825296,13993.68736006,194.985862547765)
(-5740.07526957797,13693.1353754602,501.732485804463)
(-6042.45549278797,13294.6885246836,1207.30961373583)
(-6567.6333146538,12685.7085629175,2600.37240755707)
(-7283.41254013825,11559.4206591882,5028.28322561023)
(-8537.59555362691,9520.23689480781,9362.21115823854)
(-9461.97379521641,5746.99360865023,16119.8514741818)
(0,0,0)
(0,0,0)
(0,0,0)
(0,0,0)
(0,0,0)
(0,0,0)
(-7885.37973016986,22326.0337980258,33.705977200509)
(-7848.82181534774,22243.4214702707,26.3195987755102)
(-7831.0955838578,22043.9668595452,32.4673888260324)
(-7862.77891086044,21787.9031512828,101.030508509156)
(-7949.04213809179,21454.1963967694,289.01162530107)
(-8102.83064291674,20997.5179581459,689.012834714825)
(-8372.51386987747,20297.5354124879,1449.69985499691)
(-8779.58738726909,18930.7558475094,2857.95205392577)
(-9485.57209944024,16231.1296610715,5632.63138703947)
(-9591.94670183978,10516.9871304286,10454.5845671542)
(0,0,0)
(0,0,0)
(0,0,0)
(0,0,0)
(0,0,0)
(0,0,0)
(0,0,0)
(0,0,0)
(0,0,0)
(0,0,0)
(0,0,0)
(0,0,0)
(0,0,0)
(0,0,0)
(0,0,0)
(0,0,0)
(0,0,0)
(0,0,0)
(0,0,0)
(0,0,0)
(0,0,0)
(0,0,0)
(0,0,0)
(0,0,0)
(0,0,0)
(0,0,0)
(0,0,0)
(0,0,0)
(0,0,0)
(0,0,0)
(0,0,0)
(0,0,0)
(0,0,0)
(0,0,0)
(0,0,0)
(0,0,0)
(0,0,0)
(0,0,0)
(0,0,0)
(0,0,0)
(0,0,0)
(0,0,0)
(0,0,0)
(0,0,0)
(0,0,0)
(0,0,0)
(0,0,0)
(0,0,0)
(0,0,0)
(0,0,0)
(0,0,0)
(0,0,0)
(0,0,0)
(0,0,0)
(0,0,0)
(0,0,0)
(0,0,0)
(0,0,0)
(0,0,0)
(0,0,0)
(0,0,0)
(0,0,0)
(0,0,0)
(0,0,0)
(0,0,0)
(0,0,0)
(0,0,0)
(0,0,0)
(0,0,0)
(0,0,0)
(0,0,0)
(0,0,0)
(0,0,0)
(0,0,0)
(0,0,0)
(0,0,0)
(0,0,0)
(0,0,0)
(0,0,0)
(0,0,0)
(0,0,0)
(0,0,0)
(0,0,0)
(0,0,0)
(0,0,0)
(0,0,0)
(0,0,0)
(0,0,0)
(0,0,0)
(0,0,0)
(0,0,0)
(0,0,0)
(0,0,0)
(0,0,0)
(0,0,0)
(0,0,0)
(0,0,0)
(0,0,0)
(0,0,0)
(0,0,0)
(0,0,0)
(0,0,0)
(76031.8629572798,241.861690065063,186.85781773176)
(76003.5945768601,223.510133162506,409.148127110799)
(75927.9972334717,201.09187800127,691.840049561553)
(75760.9655616663,215.034523897782,1032.66189081024)
(75405.2408461903,204.573993510593,1516.90714206962)
(74733.4320116238,158.37162945807,2300.41533082757)
(73493.7066331715,123.100921806409,3597.63566945712)
(71089.2508457284,85.1365898638005,6007.82905465279)
(65638.6583557093,47.5965672728716,11664.4032886846)
(50683.1153288784,32.8107027316338,29963.6882099477)
(0,0,0)
(0,0,0)
(0,0,0)
(0,0,0)
(0,0,0)
(0,0,0)
(75985.3019513958,502.94191028619,191.780027895482)
(75940.5192355468,495.442810648623,397.291977249045)
(75860.6073917191,453.148772776866,665.233688646053)
(75709.8464165195,457.285299057954,1015.47052231507)
(75359.7129706461,419.65574031497,1513.24496034436)
(74684.1120365025,345.201847416677,2288.05471960542)
(73443.6032857479,259.408250305881,3596.34705467906)
(71063.9898363013,172.648048860689,6009.34397982176)
(65637.3806407436,96.2143298449964,11654.3188756869)
(50699.4676859474,60.8635704595069,29951.8177530111)
(0,0,0)
(0,0,0)
(0,0,0)
(0,0,0)
(0,0,0)
(0,0,0)
(75836.687804299,842.957977408898,164.620605940584)
(75791.3561907887,840.933130109463,347.028578617992)
(75734.5862166718,771.902768346334,588.139379747292)
(75581.345812297,759.896069262337,919.744128350017)
(75204.8089263271,680.865514982574,1415.20610292073)
(74498.271505433,572.598087138586,2203.35644985733)
(73222.8026392364,419.053754485277,3574.47738181088)
(70898.314911267,295.987029832449,6018.45104206083)
(65574.1449864648,212.458832238131,11619.9760791148)
(50697.0572392287,133.163888866572,29879.9409013639)
(0,0,0)
(0,0,0)
(0,0,0)
(0,0,0)
(0,0,0)
(0,0,0)
(75677.4481518613,1312.89301091607,102.754121873118)
(75632.4200932673,1311.60546407844,226.804211497653)
(75562.4380459559,1213.63818250055,409.177655656694)
(75370.023712268,1172.4396157995,699.206934900921)
(74951.2281531682,1060.67012285454,1167.0341820785)
(74143.4762815296,921.72472530443,1995.76069682889)
(72700.5875080638,696.596460868283,3538.85298913912)
(70448.3560560484,544.130401683861,6111.94226043652)
(65400.2222289551,459.433801462899,11662.5716969455)
(50644.7538170081,274.053379767332,29867.0673634157)
(0,0,0)
(0,0,0)
(0,0,0)
(0,0,0)
(0,0,0)
(0,0,0)
(75364.4371232425,1974.54641738677,16.8359173803333)
(75340.586722801,1958.104831962,67.8941919637427)
(75263.6894924873,1837.12142729672,173.857969607549)
(75050.2777020234,1753.99084172582,395.911473468847)
(74576.1254328646,1653.01539758924,795.346104935862)
(73584.0188183405,1521.18085949242,1646.80398653422)
(71691.5255779472,1355.81489281869,3437.38680232638)
(69463.4552792494,1188.99022073589,6227.43393924525)
(64972.3515581078,926.505349530041,11752.2014081564)
(50481.6525269845,508.584386596617,29916.7515219392)
(0,0,0)
(0,0,0)
(0,0,0)
(0,0,0)
(0,0,0)
(0,0,0)
(74736.8002207266,2943.27601026277,-48.0830574689845)
(74747.3085646815,2877.76440951277,-56.9929980646648)
(74688.6683880333,2742.05973192858,-26.6479199285683)
(74505.4162326377,2626.62791290737,107.444570318271)
(73999.1221647542,2522.54935310441,466.235241153145)
(72945.939186331,2396.89313422183,1320.19988899867)
(70983.2046974812,2253.4095980821,3194.75758308967)
(68826.9204418737,2028.29292530615,6073.31712475896)
(64568.2314404141,1550.3615883007,11602.5894106044)
(50306.8402393078,839.412562649324,29741.168641416)
(0,0,0)
(0,0,0)
(0,0,0)
(0,0,0)
(0,0,0)
(0,0,0)
(73613.4614119823,4333.9799561842,-22.4333057001611)
(73643.8547734436,4273.0851077664,-59.7506639136829)
(73576.0966658432,4149.00360568316,-84.9540507765905)
(73412.1396388752,4013.86427135352,-30.4319747836494)
(72942.6553571694,3876.48859955577,265.822299922673)
(71932.6650007418,3743.55690816718,1065.33871356217)
(69994.9036529693,3593.48597294711,2925.54509649365)
(68064.4746755792,3257.1799146479,5712.54729177385)
(63990.6406608385,2475.57854281465,11172.2053952295)
(49993.7422221616,1344.70938906967,29268.6888732074)
(0,0,0)
(0,0,0)
(0,0,0)
(0,0,0)
(0,0,0)
(0,0,0)
(71233.8327001763,6757.01608640398,-7.98618288145755)
(71276.8412911867,6699.56615471942,-27.2031332529625)
(71253.5003984819,6583.36414848639,-54.569012639345)
(71135.2007054351,6426.8674980211,-29.2014226391505)
(70737.708505576,6266.2169827463,197.354511295758)
(69848.0173028366,6126.73842102722,876.813758223246)
(68107.8648451501,5946.50019124342,2565.00522266636)
(66811.0061952956,5288.62944602763,4974.07156475577)
(62753.2811051122,4165.41282911682,10237.1462146377)
(49210.3738314259,2391.23072389003,28190.7878996631)
(0,0,0)
(0,0,0)
(0,0,0)
(0,0,0)
(0,0,0)
(0,0,0)
(65781.8209347521,12360.0924432101,2.01056419219994)
(65830.2358875657,12308.2366005547,-5.28866201041358)
(65850.8517508278,12184.6871813654,-15.1124732407106)
(65787.2373176281,11992.1906208385,17.3119572673991)
(65524.6968373057,11778.4532112175,212.49708110215)
(64979.8750554189,11551.3513371254,737.747076177855)
(63994.6600176359,11200.4081929569,1893.73920152898)
(62707.9991049271,10355.5927397847,3807.55772203259)
(59037.5823478012,8804.66477371727,8565.32133529639)
(46784.4049638426,5757.77606902172,25924.5906903714)
(0,0,0)
(0,0,0)
(0,0,0)
(0,0,0)
(0,0,0)
(0,0,0)
(50807.1036409315,30630.3146138356,9.48791746338627)
(50843.9303347393,30595.7118188158,1.45400826827521)
(50867.4236513258,30464.2477838777,-4.43237012765904)
(50831.304404848,30237.4900098305,28.3783845607902)
(50691.5143056954,29977.6971871656,160.771424164864)
(50436.2983971767,29686.8874915522,458.299688975082)
(49968.7651424357,29242.5299902498,1047.09233866623)
(49159.1648739757,28250.9083481766,2185.21792845049)
(46745.6226580996,26137.8142474432,5593.06715650568)
(38042.0995211305,20417.858274532,20271.1321872724)
(0,0,0)
(0,0,0)
(0,0,0)
(0,0,0)
(0,0,0)
(0,0,0)
(0,0,0)
(0,0,0)
(0,0,0)
(0,0,0)
(0,0,0)
(0,0,0)
(0,0,0)
(0,0,0)
(0,0,0)
(0,0,0)
(0,0,0)
(0,0,0)
(0,0,0)
(0,0,0)
(0,0,0)
(0,0,0)
(0,0,0)
(0,0,0)
(0,0,0)
(0,0,0)
(0,0,0)
(0,0,0)
(0,0,0)
(0,0,0)
(0,0,0)
(0,0,0)
(0,0,0)
(0,0,0)
(0,0,0)
(0,0,0)
(0,0,0)
(0,0,0)
(0,0,0)
(0,0,0)
(0,0,0)
(0,0,0)
(0,0,0)
(0,0,0)
(0,0,0)
(0,0,0)
(0,0,0)
(0,0,0)
(0,0,0)
(0,0,0)
(0,0,0)
(0,0,0)
(0,0,0)
(0,0,0)
(0,0,0)
(0,0,0)
(0,0,0)
(0,0,0)
(0,0,0)
(0,0,0)
(0,0,0)
(0,0,0)
(0,0,0)
(0,0,0)
(0,0,0)
(0,0,0)
(0,0,0)
(0,0,0)
(0,0,0)
(0,0,0)
(0,0,0)
(0,0,0)
(0,0,0)
(0,0,0)
(0,0,0)
(0,0,0)
(0,0,0)
(0,0,0)
(0,0,0)
(0,0,0)
(0,0,0)
(0,0,0)
(0,0,0)
(0,0,0)
(0,0,0)
(0,0,0)
(0,0,0)
(0,0,0)
(0,0,0)
(0,0,0)
(0,0,0)
(0,0,0)
(0,0,0)
(0,0,0)
(0,0,0)
(0,0,0)
(0,0,0)
(0,0,0)
(0,0,0)
(0,0,0)
(0,0,0)
(0,0,0)
(-1293.46493986151,205.179656350011,147.95478156407)
(-1303.94880599501,196.372951483307,286.931753569229)
(-1384.61807979729,180.099193406507,447.254414277086)
(-1602.20357370625,172.359420551879,665.870669887223)
(-1971.2824273819,144.349032220444,925.851452064893)
(-2596.75828759263,84.2223323627398,1199.62595972636)
(-3622.75886628451,21.8127517601328,1322.08524828471)
(-5248.03223388523,-19.7289659776922,706.903834617412)
(-7632.9141116747,-21.0481406710808,-2972.6690165789)
(-9428.00484312193,-3.46941922491194,-19830.2728845633)
(0,0,0)
(0,0,0)
(0,0,0)
(0,0,0)
(0,0,0)
(0,0,0)
(-1338.56878390375,417.731391180134,139.125541191904)
(-1376.24464453433,420.44430662691,259.624606827042)
(-1462.21847521959,378.955024498377,411.40118340852)
(-1650.81990244063,343.598538952759,628.634924679958)
(-1994.61229221055,273.576711326638,881.539049154347)
(-2615.15429787716,156.095970861826,1136.73828576464)
(-3659.30067531994,-19.6124577271636,1308.87399698447)
(-5252.82048875208,-102.978751406491,736.740648230321)
(-7599.18745373846,-66.6814595497254,-2953.25139755884)
(-9397.70500892701,-15.4835941774069,-19816.2579868371)
(0,0,0)
(0,0,0)
(0,0,0)
(0,0,0)
(0,0,0)
(0,0,0)
(-1486.14785579678,664.595957902512,103.777634252466)
(-1530.58866427688,668.169391201248,205.803945528859)
(-1590.62426938482,597.408407920652,340.36758886535)
(-1770.59576898643,543.072967589006,520.641282136168)
(-2118.02386118637,421.863165096734,722.994156595295)
(-2764.0368566209,187.040424762014,982.164605425396)
(-3900.29016401417,-195.05531670938,1308.50680836746)
(-5420.69605907538,-289.602510336779,841.948078303678)
(-7628.37540039795,-88.1918980795832,-2906.21455537179)
(-9387.79339669578,14.4027841973937,-19823.443757168)
(0,0,0)
(0,0,0)
(0,0,0)
(0,0,0)
(0,0,0)
(0,0,0)
(-1648.64058345888,976.179076679592,42.31215733215)
(-1700.86331648442,983.785414315367,87.7860847015417)
(-1766.69436364807,892.474980040197,149.658462924542)
(-1961.91430739099,813.398116303228,239.077874557113)
(-2353.33389249705,646.853416699647,346.456209312014)
(-3169.37803609296,297.285182376174,576.872310102599)
(-4771.07426550464,-420.887341978548,1302.17264960936)
(-6124.9188961466,-538.496699816977,1152.14833193904)
(-7777.89531823137,-7.46663285483228,-2722.65284522795)
(-9397.0355990631,102.313375375499,-19740.9674797166)
(0,0,0)
(0,0,0)
(0,0,0)
(0,0,0)
(0,0,0)
(0,0,0)
(-1942.72633934124,1363.3144729386,-52.1653929227366)
(-1979.48396373839,1350.86590246825,-71.3686537624177)
(-2057.69015432952,1252.72853442239,-82.4360207180809)
(-2251.74536307839,1159.66209178931,-98.8703902899619)
(-2705.1593042973,1030.14714804117,-173.072843850486)
(-3891.44545955872,824.965255515881,-197.482098449076)
(-7732.61441961073,561.940609940451,1271.63648785909)
(-9066.44214377118,453.225024296455,1837.61872749205)
(-8258.02460802968,460.473827039339,-2372.13902540394)
(-9487.32716773404,278.77709504084,-19551.8165095502)
(0,0,0)
(0,0,0)
(0,0,0)
(0,0,0)
(0,0,0)
(0,0,0)
(-2548.90562124435,1773.09109993348,-96.2642441762933)
(-2523.86142496504,1718.41693992771,-164.838751206735)
(-2576.40622090482,1632.61417723211,-251.843244365733)
(-2749.79939234395,1550.65414701569,-359.813134017908)
(-3239.66796118369,1449.45423083221,-512.523550116406)
(-4486.70512413843,1333.11577891897,-560.223222241062)
(-8322.66052436185,1191.66485712291,1143.72429306834)
(-9678.38566762664,1189.52513392458,1940.53683363423)
(-8597.71282267297,898.266758252661,-2303.50529385896)
(-9620.95593121958,468.192913110626,-19537.318400515)
(0,0,0)
(0,0,0)
(0,0,0)
(0,0,0)
(0,0,0)
(0,0,0)
(-3486.61785922426,1973.75930176052,-72.7823898910613)
(-3450.2539077387,1934.12621430718,-166.57644232656)
(-3498.56923982208,1872.85865302607,-304.348471804349)
(-3649.43723275149,1815.90141537989,-480.212327736636)
(-4108.1518967307,1756.37403072271,-708.518332987653)
(-5357.41599906378,1757.7718910649,-815.286904476191)
(-9422.57332422476,1787.51071469299,1034.15075597952)
(-10415.7535522006,2023.47549190246,1708.23516655219)
(-9067.10336100073,1210.81043599812,-2518.75794841798)
(-9879.91406108494,542.992921342258,-19692.0951327248)
(0,0,0)
(0,0,0)
(0,0,0)
(0,0,0)
(0,0,0)
(0,0,0)
(-5088.14937150235,1386.18644368264,-62.6385295293586)
(-5038.93385634673,1364.18459415014,-149.115221054406)
(-5042.52568838337,1327.34630419617,-279.770244646861)
(-5151.81818779413,1288.73053110908,-437.773926375772)
(-5562.89381333943,1307.62314183376,-660.614177712306)
(-6769.07447957805,1533.04513619946,-790.989099794491)
(-11265.8023082668,2087.08257448612,1310.91273455129)
(-9145.04080031992,1361.2805318271,956.961231059512)
(-9600.53252085107,585.947089951898,-3036.5552561086)
(-10311.7158908314,67.0729698298204,-20010.739041468)
(0,0,0)
(0,0,0)
(0,0,0)
(0,0,0)
(0,0,0)
(0,0,0)
(-7474.51695441359,-2296.51137925206,-33.1577472245183)
(-7416.71121952747,-2300.78284931755,-93.4366559591709)
(-7385.72144158599,-2323.17501737488,-178.535601189327)
(-7427.37088425776,-2381.75418203528,-265.636145374956)
(-7673.82226101419,-2414.50209643494,-317.185267979238)
(-8259.20079853614,-2340.7625109812,-176.495226234956)
(-9479.88885140672,-2239.44084952853,652.383607512627)
(-9754.92260395105,-2698.6192447084,203.011633598339)
(-10645.8960146515,-3072.81632628572,-3426.94004696173)
(-10938.6673859679,-2681.47255451492,-19927.5156321011)
(0,0,0)
(0,0,0)
(0,0,0)
(0,0,0)
(0,0,0)
(0,0,0)
(-9323.95782202765,-19122.1762268536,-15.4671486835901)
(-9277.67187471828,-19118.0790124368,-48.7622354086167)
(-9250.08771491423,-19142.1959087835,-84.423436993498)
(-9266.24709149516,-19228.7319338086,-112.087648254087)
(-9391.71578069738,-19312.1603734626,-103.392744100734)
(-9631.66115800796,-19355.2735552225,6.8843959821984)
(-10050.0196967855,-19418.2784786109,232.31340500609)
(-10405.8683710456,-19687.6729581096,-185.793096004445)
(-10967.5516506245,-19564.6142396997,-2953.01433318043)
(-10650.2810221761,-16814.1489821156,-17100.1508216204)
(0,0,0)
(0,0,0)
(0,0,0)
(0,0,0)
(0,0,0)
(0,0,0)
(0,0,0)
(0,0,0)
(0,0,0)
(0,0,0)
(0,0,0)
(0,0,0)
(0,0,0)
(0,0,0)
(0,0,0)
(0,0,0)
(0,0,0)
(0,0,0)
(0,0,0)
(0,0,0)
(0,0,0)
(0,0,0)
(0,0,0)
(0,0,0)
(0,0,0)
(0,0,0)
(0,0,0)
(0,0,0)
(0,0,0)
(0,0,0)
(0,0,0)
(0,0,0)
(0,0,0)
(0,0,0)
(0,0,0)
(0,0,0)
(0,0,0)
(0,0,0)
(0,0,0)
(0,0,0)
(0,0,0)
(0,0,0)
(0,0,0)
(0,0,0)
(0,0,0)
(0,0,0)
(0,0,0)
(0,0,0)
(0,0,0)
(0,0,0)
(0,0,0)
(0,0,0)
(0,0,0)
(0,0,0)
(0,0,0)
(0,0,0)
(0,0,0)
(0,0,0)
(0,0,0)
(0,0,0)
(0,0,0)
(0,0,0)
(0,0,0)
(0,0,0)
(0,0,0)
(0,0,0)
(0,0,0)
(0,0,0)
(0,0,0)
(0,0,0)
(0,0,0)
(0,0,0)
(0,0,0)
(0,0,0)
(0,0,0)
(0,0,0)
(0,0,0)
(0,0,0)
(0,0,0)
(0,0,0)
(0,0,0)
(0,0,0)
(0,0,0)
(0,0,0)
(0,0,0)
(0,0,0)
(0,0,0)
(0,0,0)
(0,0,0)
(0,0,0)
(0,0,0)
(0,0,0)
(0,0,0)
(0,0,0)
(0,0,0)
(0,0,0)
(0,0,0)
(0,0,0)
(0,0,0)
(0,0,0)
(0,0,0)
(0,0,0)
(-1551.2755882006,165.452948605238,92.3576997333494)
(-1541.1053126468,175.248504121794,154.265702267525)
(-1600.75348306467,166.296331004273,204.104774532515)
(-1796.68364183039,134.183308700408,264.401533952961)
(-2084.15767953619,78.400345880311,298.876440225837)
(-2498.16102264162,10.9919143680114,189.287260906837)
(-3107.34443182952,-78.9221421745602,-247.205031373361)
(-3878.27341382257,-92.4586716889016,-1524.50517974543)
(-4530.55228376658,-57.5348097434331,-4569.33219787437)
(-3931.48193735705,-22.6618039634719,-10043.1932996528)
(0,0,0)
(0,0,0)
(0,0,0)
(0,0,0)
(0,0,0)
(0,0,0)
(-1617.48906039093,346.510317504919,97.8629075856324)
(-1613.04201402721,366.215163074172,143.69361812787)
(-1667.05300081311,327.745950907142,187.078523822616)
(-1820.72848349794,251.114791182607,240.055622391512)
(-2068.81124548746,141.653541758095,251.00137978499)
(-2445.84908794074,-32.2751869268048,124.963271148305)
(-3040.64258712763,-335.432308120962,-237.184651096409)
(-3779.64143702439,-353.120816625209,-1449.70155788604)
(-4427.23484596238,-175.112617859525,-4504.07635752895)
(-3875.03518428947,-61.5578829843801,-9987.85010322632)
(0,0,0)
(0,0,0)
(0,0,0)
(0,0,0)
(0,0,0)
(0,0,0)
(-1709.7099219574,492.32436215063,77.7480215204716)
(-1712.3651589279,517.189637564327,108.550041679976)
(-1745.31293644671,467.10816120882,123.876498438182)
(-1867.87490444446,369.208088941815,103.062336137246)
(-2078.4515914307,191.848323563217,13.2952845749683)
(-2405.45967690718,-237.231842897918,-140.325239183759)
(-3021.29632879643,-1158.67736575238,-196.07401676992)
(-3632.35028267146,-1117.03649933076,-1220.50411048582)
(-4261.51443274325,-375.645114482504,-4386.83258151343)
(-3792.47540341731,-88.703275398713,-9955.0051823975)
(0,0,0)
(0,0,0)
(0,0,0)
(0,0,0)
(0,0,0)
(0,0,0)
(-1826.75337371344,643.041107405685,27.3960450082304)
(-1830.80638936691,664.831264270509,9.69749118944205)
(-1852.60322125467,606.44542020727,-43.7309101977431)
(-1939.0912091728,502.014005015723,-199.35992448917)
(-2107.01487516023,269.721383426577,-523.552001687093)
(-2402.921183287,-478.935604302241,-1048.30509309543)
(-3453.49429907561,-3461.64129856417,-62.9211267157825)
(-3312.37037339786,-3592.28895455044,-400.21719425309)
(-3865.30650207935,-600.173692943284,-4088.27743195792)
(-3634.49742751612,-57.2612286608499,-9882.25765030559)
(0,0,0)
(0,0,0)
(0,0,0)
(0,0,0)
(0,0,0)
(0,0,0)
(-2031.75683093844,792.474143930705,-60.4025449280002)
(-2031.00291414204,789.544763281815,-133.597093533614)
(-2052.6272503056,730.296563533798,-262.51114087665)
(-2092.94792194935,640.195357736091,-559.489934724765)
(-2139.2557726495,495.797654285504,-1351.46973723781)
(-1937.43647202233,234.707183589832,-4019.12151267361)