/*--------------------------------*- C++ -*----------------------------------*\
| =========                 |                                                 |
| \\      /  F ield         | foam-extend: Open Source CFD                    |
|  \\    /   O peration     | Version:     4.0                                |
|   \\  /    A nd           | Web:         http://www.foam-extend.org         |
|    \\/     M anipulation  |                                                 |
\*---------------------------------------------------------------------------*/
FoamFile
{
    version 2.0;
    format ascii;
    class volVectorField;
    location "1738";
    object      E;
}
// * * * * * * * * * * * * * * * * * * * * * * * * * * * * * * * * * * * * * //

dimensions      [0 1 -1 0 0 0 0];

internalField   nonuniform List<vector>
4096
(
(0,0,0)
(0,0,0)
(0,0,0)
(0,0,0)
(0,0,0)
(0,0,0)
(0,0,0)
(0,0,0)
(0,0,0)
(0,0,0)
(0,0,0)
(0,0,0)
(0,0,0)
(0,0,0)
(0,0,0)
(0,0,0)
(0,0,0)
(0,0,0)
(0,0,0)
(0,0,0)
(0,0,0)
(0,0,0)
(0,0,0)
(0,0,0)
(0,0,0)
(0,0,0)
(0,0,0)
(0,0,0)
(0,0,0)
(0,0,0)
(0,0,0)
(0,0,0)
(0,0,0)
(0,0,0)
(0,0,0)
(0,0,0)
(0,0,0)
(0,0,0)
(0,0,0)
(0,0,0)
(0,0,0)
(0,0,0)
(0,0,0)
(0,0,0)
(0,0,0)
(0,0,0)
(0,0,0)
(0,0,0)
(0,0,0)
(0,0,0)
(0,0,0)
(0,0,0)
(0,0,0)
(0,0,0)
(0,0,0)
(0,0,0)
(0,0,0)
(0,0,0)
(0,0,0)
(0,0,0)
(0,0,0)
(0,0,0)
(0,0,0)
(0,0,0)
(0,0,0)
(0,0,0)
(0,0,0)
(0,0,0)
(0,0,0)
(0,0,0)
(0,0,0)
(0,0,0)
(0,0,0)
(0,0,0)
(0,0,0)
(0,0,0)
(0,0,0)
(0,0,0)
(0,0,0)
(0,0,0)
(0,0,0)
(0,0,0)
(0,0,0)
(0,0,0)
(0,0,0)
(0,0,0)
(0,0,0)
(0,0,0)
(0,0,0)
(0,0,0)
(0,0,0)
(0,0,0)
(0,0,0)
(0,0,0)
(0,0,0)
(0,0,0)
(0,0,0)
(0,0,0)
(0,0,0)
(0,0,0)
(0,0,0)
(0,0,0)
(0,0,0)
(0,0,0)
(0,0,0)
(0,0,0)
(0,0,0)
(0,0,0)
(0,0,0)
(0,0,0)
(0,0,0)
(0,0,0)
(0,0,0)
(0,0,0)
(0,0,0)
(0,0,0)
(0,0,0)
(0,0,0)
(0,0,0)
(0,0,0)
(0,0,0)
(0,0,0)
(0,0,0)
(0,0,0)
(0,0,0)
(0,0,0)
(0,0,0)
(0,0,0)
(0,0,0)
(0,0,0)
(0,0,0)
(0,0,0)
(0,0,0)
(0,0,0)
(0,0,0)
(0,0,0)
(0,0,0)
(0,0,0)
(0,0,0)
(0,0,0)
(0,0,0)
(0,0,0)
(0,0,0)
(0,0,0)
(0,0,0)
(0,0,0)
(0,0,0)
(0,0,0)
(0,0,0)
(0,0,0)
(0,0,0)
(0,0,0)
(0,0,0)
(0,0,0)
(0,0,0)
(0,0,0)
(0,0,0)
(0,0,0)
(0,0,0)
(0,0,0)
(0,0,0)
(0,0,0)
(0,0,0)
(0,0,0)
(0,0,0)
(0,0,0)
(0,0,0)
(0,0,0)
(0,0,0)
(0,0,0)
(0,0,0)
(0,0,0)
(0,0,0)
(0,0,0)
(0,0,0)
(0,0,0)
(0,0,0)
(0,0,0)
(0,0,0)
(0,0,0)
(0,0,0)
(0,0,0)
(0,0,0)
(0,0,0)
(0,0,0)
(0,0,0)
(0,0,0)
(0,0,0)
(0,0,0)
(0,0,0)
(0,0,0)
(0,0,0)
(0,0,0)
(0,0,0)
(0,0,0)
(0,0,0)
(0,0,0)
(0,0,0)
(0,0,0)
(0,0,0)
(0,0,0)
(0,0,0)
(0,0,0)
(0,0,0)
(0,0,0)
(0,0,0)
(0,0,0)
(0,0,0)
(0,0,0)
(0,0,0)
(0,0,0)
(0,0,0)
(0,0,0)
(0,0,0)
(0,0,0)
(0,0,0)
(0,0,0)
(0,0,0)
(0,0,0)
(0,0,0)
(0,0,0)
(0,0,0)
(0,0,0)
(0,0,0)
(0,0,0)
(0,0,0)
(0,0,0)
(0,0,0)
(0,0,0)
(0,0,0)
(0,0,0)
(0,0,0)
(0,0,0)
(0,0,0)
(0,0,0)
(0,0,0)
(0,0,0)
(0,0,0)
(0,0,0)
(0,0,0)
(0,0,0)
(0,0,0)
(0,0,0)
(0,0,0)
(0,0,0)
(0,0,0)
(0,0,0)
(0,0,0)
(0,0,0)
(0,0,0)
(0,0,0)
(0,0,0)
(0,0,0)
(0,0,0)
(0,0,0)
(0,0,0)
(0,0,0)
(0,0,0)
(0,0,0)
(0,0,0)
(0,0,0)
(0,0,0)
(0,0,0)
(0,0,0)
(0,0,0)
(0,0,0)
(0,0,0)
(0,0,0)
(0,0,0)
(0,0,0)
(0,0,0)
(0,0,0)
(0,0,0)
(0,0,0)
(0,0,0)
(0,0,0)
(0,0,0)
(0,0,0)
(0,0,0)
(0,0,0)
(0,0,0)
(0,0,0)
(0,0,0)
(0,0,0)
(0,0,0)
(0,0,0)
(0,0,0)
(0,0,0)
(0,0,0)
(0,0,0)
(0,0,0)
(0,0,0)
(0,0,0)
(0,0,0)
(0,0,0)
(0,0,0)
(0,0,0)
(0,0,0)
(0,0,0)
(0,0,0)
(0,0,0)
(0,0,0)
(0,0,0)
(0,0,0)
(0,0,0)
(0,0,0)
(0,0,0)
(0,0,0)
(0,0,0)
(0,0,0)
(0,0,0)
(0,0,0)
(0,0,0)
(0,0,0)
(0,0,0)
(0,0,0)
(0,0,0)
(0,0,0)
(0,0,0)
(0,0,0)
(0,0,0)
(0,0,0)
(0,0,0)
(0,0,0)
(0,0,0)
(0,0,0)
(0,0,0)
(0,0,0)
(0,0,0)
(0,0,0)
(0,0,0)
(0,0,0)
(0,0,0)
(0,0,0)
(0,0,0)
(0,0,0)
(0,0,0)
(0,0,0)
(0,0,0)
(0,0,0)
(0,0,0)
(0,0,0)
(0,0,0)
(0,0,0)
(0,0,0)
(0,0,0)
(0,0,0)
(0,0,0)
(0,0,0)
(0,0,0)
(0,0,0)
(0,0,0)
(0,0,0)
(0,0,0)
(0,0,0)
(0,0,0)
(0,0,0)
(0,0,0)
(0,0,0)
(0,0,0)
(0,0,0)
(0,0,0)
(0,0,0)
(0,0,0)
(0,0,0)
(0,0,0)
(0,0,0)
(0,0,0)
(0,0,0)
(0,0,0)
(0,0,0)
(0,0,0)
(0,0,0)
(0,0,0)
(0,0,0)
(0,0,0)
(0,0,0)
(0,0,0)
(0,0,0)
(0,0,0)
(0,0,0)
(0,0,0)
(0,0,0)
(0,0,0)
(0,0,0)
(0,0,0)
(0,0,0)
(0,0,0)
(0,0,0)
(0,0,0)
(0,0,0)
(0,0,0)
(0,0,0)
(0,0,0)
(0,0,0)
(0,0,0)
(0,0,0)
(0,0,0)
(0,0,0)
(0,0,0)
(0,0,0)
(0,0,0)
(0,0,0)
(0,0,0)
(0,0,0)
(0,0,0)
(0,0,0)
(0,0,0)
(0,0,0)
(0,0,0)
(0,0,0)
(0,0,0)
(0,0,0)
(0,0,0)
(0,0,0)
(0,0,0)
(0,0,0)
(0,0,0)
(0,0,0)
(0,0,0)
(0,0,0)
(0,0,0)
(0,0,0)
(0,0,0)
(0,0,0)
(0,0,0)
(0,0,0)
(0,0,0)
(0,0,0)
(0,0,0)
(0,0,0)
(0,0,0)
(0,0,0)
(0,0,0)
(0,0,0)
(0,0,0)
(0,0,0)
(0,0,0)
(0,0,0)
(0,0,0)
(0,0,0)
(0,0,0)
(0,0,0)
(0,0,0)
(0,0,0)
(0,0,0)
(0,0,0)
(0,0,0)
(0,0,0)
(0,0,0)
(0,0,0)
(0,0,0)
(0,0,0)
(0,0,0)
(0,0,0)
(0,0,0)
(0,0,0)
(0,0,0)
(0,0,0)
(0,0,0)
(0,0,0)
(0,0,0)
(0,0,0)
(0,0,0)
(0,0,0)
(0,0,0)
(0,0,0)
(0,0,0)
(0,0,0)
(0,0,0)
(0,0,0)
(0,0,0)
(0,0,0)
(0,0,0)
(0,0,0)
(0,0,0)
(0,0,0)
(0,0,0)
(0,0,0)
(0,0,0)
(0,0,0)
(0,0,0)
(0,0,0)
(0,0,0)
(0,0,0)
(0,0,0)
(0,0,0)
(0,0,0)
(0,0,0)
(0,0,0)
(0,0,0)
(0,0,0)
(0,0,0)
(0,0,0)
(0,0,0)
(0,0,0)
(0,0,0)
(0,0,0)
(0,0,0)
(0,0,0)
(0,0,0)
(0,0,0)
(0,0,0)
(0,0,0)
(0,0,0)
(0,0,0)
(0,0,0)
(0,0,0)
(0,0,0)
(0,0,0)
(0,0,0)
(0,0,0)
(0,0,0)
(0,0,0)
(0,0,0)
(0,0,0)
(0,0,0)
(0,0,0)
(0,0,0)
(0,0,0)
(0,0,0)
(0,0,0)
(0,0,0)
(0,0,0)
(0,0,0)
(0,0,0)
(0,0,0)
(0,0,0)
(0,0,0)
(0,0,0)
(0,0,0)
(0,0,0)
(0,0,0)
(0,0,0)
(0,0,0)
(0,0,0)
(0,0,0)
(0,0,0)
(0,0,0)
(0,0,0)
(0,0,0)
(0,0,0)
(0,0,0)
(0,0,0)
(0,0,0)
(0,0,0)
(0,0,0)
(0,0,0)
(0,0,0)
(0,0,0)
(0,0,0)
(0,0,0)
(0,0,0)
(0,0,0)
(0,0,0)
(0,0,0)
(0,0,0)
(0,0,0)
(0,0,0)
(0,0,0)
(0,0,0)
(0,0,0)
(0,0,0)
(0,0,0)
(0,0,0)
(0,0,0)
(0,0,0)
(0,0,0)
(0,0,0)
(0,0,0)
(0,0,0)
(0,0,0)
(0,0,0)
(0,0,0)
(0,0,0)
(0,0,0)
(0,0,0)
(0,0,0)
(0,0,0)
(0,0,0)
(0,0,0)
(0,0,0)
(0,0,0)
(0,0,0)
(0,0,0)
(0,0,0)
(0,0,0)
(0,0,0)
(0,0,0)
(0,0,0)
(0,0,0)
(0,0,0)
(0,0,0)
(0,0,0)
(0,0,0)
(0,0,0)
(0,0,0)
(0,0,0)
(0,0,0)
(0,0,0)
(0,0,0)
(0,0,0)
(0,0,0)
(0,0,0)
(0,0,0)
(0,0,0)
(0,0,0)
(0,0,0)
(0,0,0)
(0,0,0)
(0,0,0)
(0,0,0)
(0,0,0)
(0,0,0)
(0,0,0)
(0,0,0)
(0,0,0)
(0,0,0)
(0,0,0)
(0,0,0)
(0,0,0)
(0,0,0)
(0,0,0)
(0,0,0)
(0,0,0)
(0,0,0)
(0,0,0)
(0,0,0)
(0,0,0)
(0,0,0)
(0,0,0)
(0,0,0)
(0,0,0)
(0,0,0)
(0,0,0)
(0,0,0)
(0,0,0)
(0,0,0)
(0,0,0)
(0,0,0)
(0,0,0)
(0,0,0)
(0,0,0)
(0,0,0)
(0,0,0)
(0,0,0)
(0,0,0)
(0,0,0)
(0,0,0)
(0,0,0)
(0,0,0)
(0,0,0)
(0,0,0)
(0,0,0)
(0,0,0)
(0,0,0)
(0,0,0)
(0,0,0)
(0,0,0)
(0,0,0)
(0,0,0)
(0,0,0)
(0,0,0)
(0,0,0)
(0,0,0)
(0,0,0)
(0,0,0)
(0,0,0)
(0,0,0)
(0,0,0)
(0,0,0)
(0,0,0)
(0,0,0)
(0,0,0)
(0,0,0)
(0,0,0)
(0,0,0)
(0,0,0)
(0,0,0)
(0,0,0)
(0,0,0)
(0,0,0)
(0,0,0)
(0,0,0)
(0,0,0)
(0,0,0)
(0,0,0)
(0,0,0)
(0,0,0)
(0,0,0)
(0,0,0)
(0,0,0)
(0,0,0)
(0,0,0)
(0,0,0)
(0,0,0)
(0,0,0)
(0,0,0)
(0,0,0)
(0,0,0)
(0,0,0)
(0,0,0)
(0,0,0)
(0,0,0)
(0,0,0)
(0,0,0)
(0,0,0)
(0,0,0)
(0,0,0)
(0,0,0)
(0,0,0)
(0,0,0)
(0,0,0)
(0,0,0)
(0,0,0)
(0,0,0)
(0,0,0)
(0,0,0)
(0,0,0)
(0,0,0)
(0,0,0)
(0,0,0)
(0,0,0)
(0,0,0)
(0,0,0)
(0,0,0)
(0,0,0)
(0,0,0)
(0,0,0)
(0,0,0)
(0,0,0)
(0,0,0)
(0,0,0)
(0,0,0)
(0,0,0)
(0,0,0)
(0,0,0)
(0,0,0)
(0,0,0)
(0,0,0)
(0,0,0)
(0,0,0)
(0,0,0)
(0,0,0)
(0,0,0)
(0,0,0)
(0,0,0)
(0,0,0)
(0,0,0)
(0,0,0)
(0,0,0)
(0,0,0)
(0,0,0)
(0,0,0)
(0,0,0)
(0,0,0)
(0,0,0)
(0,0,0)
(0,0,0)
(0,0,0)
(0,0,0)
(0,0,0)
(0,0,0)
(0,0,0)
(0,0,0)
(0,0,0)
(0,0,0)
(0,0,0)
(0,0,0)
(0,0,0)
(0,0,0)
(0,0,0)
(0,0,0)
(0,0,0)
(0,0,0)
(0,0,0)
(0,0,0)
(0,0,0)
(0,0,0)
(0,0,0)
(0,0,0)
(0,0,0)
(0,0,0)
(0,0,0)
(0,0,0)
(0,0,0)
(0,0,0)
(0,0,0)
(0,0,0)
(0,0,0)
(0,0,0)
(0,0,0)
(0,0,0)
(0,0,0)
(0,0,0)
(0,0,0)
(0,0,0)
(0,0,0)
(0,0,0)
(0,0,0)
(0,0,0)
(0,0,0)
(0,0,0)
(0,0,0)
(0,0,0)
(0,0,0)
(0,0,0)
(0,0,0)
(0,0,0)
(0,0,0)
(0,0,0)
(0,0,0)
(0,0,0)
(0,0,0)
(0,0,0)
(0,0,0)
(0,0,0)
(0,0,0)
(0,0,0)
(-161231.861486102,85796.2312343801,75435.6302517207)
(-170520.59591173,82264.1186171455,163692.107546305)
(-191971.602040772,74862.8393527581,280800.87023432)
(-232467.149421441,63278.4752288113,449989.544426955)
(-305590.082082652,47672.5324253643,707907.09408425)
(-436956.955796858,29719.3167430915,1115144.73313801)
(-674933.187942049,13425.218958329,1776652.70212175)
(-1105037.22185,3451.3534908881,2878238.5704809)
(-1822662.1836871,117.267878601173,4700783.48628938)
(-2539621.13775555,-201.206002252825,7240605.83004724)
(0,0,0)
(0,0,0)
(0,0,0)
(0,0,0)
(0,0,0)
(0,0,0)
(-170520.027164338,184357.62689259,71958.6315061254)
(-179888.455454143,177717.584022591,156393.621554829)
(-201683.077411057,163669.862583543,269269.675735097)
(-243149.677983505,141286.056840435,434411.772106983)
(-318319.098631017,110423.774116203,689979.629047151)
(-452834.985855436,73713.9914457833,1098819.94019989)
(-693429.770230812,39022.6345499507,1766652.29483908)
(-1121895.57583204,17070.9279271017,2874928.29623484)
(-1833911.17270709,8424.70878464803,4700532.02803592)
(-2544882.27204752,4316.30075602363,7240896.79332511)
(0,0,0)
(0,0,0)
(0,0,0)
(0,0,0)
(0,0,0)
(0,0,0)
(-191790.078717679,310836.038597626,65311.6670126427)
(-201307.62955556,301902.406353403,142434.474237393)
(-223801.563779929,282899.834337513,247006.066263356)
(-267359.399093905,252027.928470582,403623.593727116)
(-347344.15356646,208053.258830351,653338.262579417)
(-490199.096266406,153113.258435016,1064138.09185659)
(-739044.806823654,97510.0316742235,1744695.50155599)
(-1163888.8401179,59323.9283119158,2866331.34128905)
(-1860958.58765531,39148.9021036948,4696565.73562535)
(-2557127.87288294,21229.9816550371,7236779.92760933)
(0,0,0)
(0,0,0)
(0,0,0)
(0,0,0)
(0,0,0)
(0,0,0)
(-231340.971416302,485828.222245166,56348.7877687642)
(-241017.33230478,475836.515399931,123432.011027018)
(-264399.718750013,454537.484775231,216194.079339306)
(-310986.972298133,419514.947220559,359694.032887453)
(-398913.228473312,368213.470694141,598447.049496981)
(-557794.514104357,300771.796244182,1008583.02579217)
(-826371.597032551,225883.914011801,1706580.74048715)
(-1245116.51384248,164751.704304669,2846269.47833682)
(-1910520.45827519,117111.282626498,4678827.55608915)
(-2578738.80276437,63037.6834480821,7215758.65706061)
(0,0,0)
(0,0,0)
(0,0,0)
(0,0,0)
(0,0,0)
(0,0,0)
(-302245.242356315,741707.306186669,46366.1584148095)
(-311907.178153273,731980.547435034,102129.304532976)
(-335773.135598261,711302.171565043,181137.753341428)
(-384913.814887082,677182.176831841,308384.338617227)
(-481041.490198144,626601.188611042,531038.110898476)
(-659777.023265674,557821.534400919,933765.396007388)
(-959411.409718754,473530.060175679,1645530.65956226)
(-1368786.62142013,380335.808224946,2798733.17706213)
(-1982509.60199351,273395.880535889,4624958.18114632)
(-2609963.17144274,144922.738400147,7153036.29763698)
(0,0,0)
(0,0,0)
(0,0,0)
(0,0,0)
(0,0,0)
(0,0,0)
(-430398.045778111,1135425.98823224,36679.363732548)
(-439580.571249138,1126792.58204674,81447.9003699735)
(-462659.449265991,1108397.24338571,147012.277815302)
(-511324.676086024,1077696.14207049,257822.988662677)
(-608489.215486466,1030609.32035204,462304.072408152)
(-790654.56720553,961202.848775792,849577.325238828)
(-1091237.54258988,861862.303735545,1552482.62426886)
(-1482042.63750444,722913.326755746,2691947.7432425)
(-2060579.45153927,529276.465442185,4496646.60987554)
(-2649297.3374978,282530.364218872,7008336.32155446)
(0,0,0)
(0,0,0)
(0,0,0)
(0,0,0)
(0,0,0)
(0,0,0)
(-665705.994895428,1773056.96384709,28075.0192805738)
(-673831.889451915,1765651.49361669,63047.997162555)
(-694556.339473817,1749669.52199201,116332.058030077)
(-739006.162855533,1722254.5168542,210779.846101898)
(-829262.502604034,1677638.35326324,393013.315794731)
(-1000452.57645512,1604332.9461061,750335.79491953)
(-1282589.33679546,1481095.19377707,1413692.24167348)
(-1637965.28936683,1276038.63463892,2498532.22315715)
(-2176949.6379624,954703.976840452,4250054.34972121)
(-2713503.37881968,520160.593154744,6725927.49960512)
(0,0,0)
(0,0,0)
(0,0,0)
(0,0,0)
(0,0,0)
(0,0,0)
(-1096039.04514164,2848450.7679495,20645.2410392298)
(-1102531.35907056,2841771.68459757,47056.4091289129)
(-1119230.52582849,2826965.45882393,88990.9981254916)
(-1155391.04948963,2800339.18577992,166297.37868939)
(-1229577.00974145,2753668.81663417,319843.925059906)
(-1371915.94160889,2668872.1896749,627220.623099977)
(-1608228.5761202,2507720.68182853,1208823.71116871)
(-1895922.38639945,2203332.58662486,2177452.14558222)
(-2388119.61782501,1704545.65095428,3815730.0892934)
(-2836196.02785528,966144.710005462,6205942.00029791)
(0,0,0)
(0,0,0)
(0,0,0)
(0,0,0)
(0,0,0)
(0,0,0)
(-1816512.53118193,4651086.63595071,13876.6631806888)
(-1820951.41669909,4644433.64559782,32166.1188795489)
(-1832304.10559329,4629085.9868086,62349.6964881261)
(-1856662.38890733,4599656.30632623,119694.964849126)
(-1905689.7992759,4543929.54845978,235124.032299407)
(-1997829.44618432,4435594.41825856,466231.249900071)
(-2152535.2370836,4221787.18913291,904699.979679303)
(-2382313.51004931,3811376.24789917,1678969.82845432)
(-2777484.47041453,3083371.04988707,3077628.89993598)
(-3050145.16211135,1853850.52206913,5240068.24998369)
(0,0,0)
(0,0,0)
(0,0,0)
(0,0,0)
(0,0,0)
(0,0,0)
(-2536767.19687661,7180799.22084593,7054.61198142358)
(-2539003.70352573,7173918.44543346,16573.5156715083)
(-2544658.09371534,7157607.13604173,32710.4601537572)
(-2556638.10822444,7125137.27280544,63867.6018990304)
(-2580374.89541433,7061382.35213599,126789.693637197)
(-2624759.81586218,6934603.391768,252540.535989931)
(-2702183.17110737,6681995.84409383,494515.052136374)
(-2832602.02998373,6187249.72308673,951243.606932495)
(-3049452.07905632,5235652.34910635,1848414.38676949)
(-3071088.50608488,3386866.34445491,3386487.07046862)
(0,0,0)
(0,0,0)
(0,0,0)
(0,0,0)
(0,0,0)
(0,0,0)
(0,0,0)
(0,0,0)
(0,0,0)
(0,0,0)
(0,0,0)
(0,0,0)
(0,0,0)
(0,0,0)
(0,0,0)
(0,0,0)
(0,0,0)
(0,0,0)
(0,0,0)
(0,0,0)
(0,0,0)
(0,0,0)
(0,0,0)
(0,0,0)
(0,0,0)
(0,0,0)
(0,0,0)
(0,0,0)
(0,0,0)
(0,0,0)
(0,0,0)
(0,0,0)
(0,0,0)
(0,0,0)
(0,0,0)
(0,0,0)
(0,0,0)
(0,0,0)
(0,0,0)
(0,0,0)
(0,0,0)
(0,0,0)
(0,0,0)
(0,0,0)
(0,0,0)
(0,0,0)
(0,0,0)
(0,0,0)
(0,0,0)
(0,0,0)
(0,0,0)
(0,0,0)
(0,0,0)
(0,0,0)
(0,0,0)
(0,0,0)
(0,0,0)
(0,0,0)
(0,0,0)
(0,0,0)
(0,0,0)
(0,0,0)
(0,0,0)
(0,0,0)
(0,0,0)
(0,0,0)
(0,0,0)
(0,0,0)
(0,0,0)
(0,0,0)
(0,0,0)
(0,0,0)
(0,0,0)
(0,0,0)
(0,0,0)
(0,0,0)
(0,0,0)
(0,0,0)
(0,0,0)
(0,0,0)
(0,0,0)
(0,0,0)
(0,0,0)
(0,0,0)
(0,0,0)
(0,0,0)
(0,0,0)
(0,0,0)
(0,0,0)
(0,0,0)
(0,0,0)
(0,0,0)
(0,0,0)
(0,0,0)
(0,0,0)
(0,0,0)
(0,0,0)
(0,0,0)
(0,0,0)
(0,0,0)
(0,0,0)
(0,0,0)
(23817828.8707396,76451.5309324602,66190.1480444246)
(23802303.3497058,72833.6114380537,142235.002191454)
(23766647.1578628,65116.5747377138,240202.078752637)
(23700072.072841,52606.4743478664,376758.793344795)
(23581398.8475888,34982.5634748768,576489.711401012)
(23370133.1836472,13892.2654448537,877209.71771454)
(22982378.2230839,-5025.91852720996,1346626.63641825)
(22216040.9503625,-13382.7079563373,2160633.58336459)
(20486934.0501251,-11110.1665026142,3983849.92725761)
(15791132.4453935,-5448.22713980746,9780246.98245084)
(0,0,0)
(0,0,0)
(0,0,0)
(0,0,0)
(0,0,0)
(0,0,0)
(23801968.9688189,163085.10195462,62579.8441971924)
(23786423.0554024,156258.868756934,134545.487224385)
(23750449.7251266,141526.915598199,227704.755028779)
(23682584.1498178,117112.097077186,359167.715700666)
(23560643.0354313,81472.9783809475,555417.577934826)
(23343453.737868,36445.5233610583,858278.007497793)
(22949770.229448,-6518.25687387758,1338272.75736823)
(22186632.2496757,-24866.1327313976,2162930.76783811)
(20468651.0037988,-18589.2493374664,3989550.08536944)
(15783122.8018572,-7931.60129370317,9785730.79682115)
(0,0,0)
(0,0,0)
(0,0,0)
(0,0,0)
(0,0,0)
(0,0,0)
(23766061.7338524,271168.167426955,55767.5331600698)
(23750463.6467342,262072.34530324,119885.191526568)
(23713769.470662,242197.457926905,203346.025958535)
(23642895.0919951,208347.284135742,323558.759013536)
(23512482.3341332,156472.912442761,510434.748454574)
(23277495.0267884,85558.2633237974,815330.296639577)
(22861310.888548,10232.6055781669,1319926.15001844)
(22105456.6225154,-21840.9295292014,2169257.8953856)
(20421441.3471768,-10364.7127928374,4000335.83521132)
(15763548.5059102,-378.918693263356,9793809.18502031)
(0,0,0)
(0,0,0)
(0,0,0)
(0,0,0)
(0,0,0)
(0,0,0)
(23700154.2140932,414727.395690427,46647.9974295556)
(23684567.6399108,404805.125375199,100032.656344651)
(23646949.3654261,383042.928553947,169540.512744073)
(23571386.8254157,345509.125715158,271707.284653425)
(23425374.4859329,286047.043832939,439547.850059614)
(23150139.8769747,198823.500052122,740050.633454863)
(22664781.6177339,92923.3604561368,1287909.07501305)
(21920689.0542094,41137.2073061111,2180827.78132841)
(20326030.5581668,45133.3467333548,4010481.11656263)
(15726922.0356654,31786.3525543973,9794357.41808785)
(0,0,0)
(0,0,0)
(0,0,0)
(0,0,0)
(0,0,0)
(0,0,0)
(23584024.1363957,613460.770948776,36699.6571921392)
(23568771.4299112,604247.596707834,78280.9889975477)
(23530930.0519959,584326.10539079,131997.035769135)
(23451374.7628288,550684.35805451,212235.636916427)
(23287521.3874335,499105.545921235,352316.668399123)
(22951916.0868855,426981.621742861,634167.847759806)
(22311385.8981844,341814.598954597,1236181.71256074)
(21578113.4898193,267174.940461036,2184946.27936899)
(20176514.919061,195385.694902788,3997371.82134742)
(15672442.5205129,105589.556886177,9762865.33626252)
(0,0,0)
(0,0,0)
(0,0,0)
(0,0,0)
(0,0,0)
(0,0,0)
(23377186.4945979,900085.59211523,27493.0496600584)
(23362961.6646214,892519.80512018,58381.0165797341)
(23326917.7709147,876459.384632367,98372.9283599661)
(23248806.2115479,849957.63880132,160671.171181845)
(23083018.4179088,809786.238086792,280185.256823606)
(22737742.4511804,751420.385560873,549051.885822185)
(22089016.2812832,670614.707890291,1161700.36421595)
(21388108.8004975,567101.653391397,2113324.6244861)
(20049050.5900147,413012.498699359,3907770.19033816)
(15609921.8822236,218376.527691107,9657466.41101439)
(0,0,0)
(0,0,0)
(0,0,0)
(0,0,0)
(0,0,0)
(0,0,0)
(22993428.4207742,1342714.9110233,19938.6766248327)
(22981042.6105797,1336943.13688869,42343.2560272965)
(22949095.2685312,1324956.9140766,71896.5297807206)
(22878201.5183331,1305818.52844204,120530.370153902)
(22723603.7120518,1277281.27494601,221871.529841399)
(22393375.0230235,1232880.99913292,468285.727993245)
(21764097.8514525,1155545.78505835,1058369.87377977)
(21131538.4751111,1018178.02501056,1959492.1488853)
(19860278.372692,743612.712201624,3713366.335931)
(15503212.1120476,397492.810468542,9439236.97348898)
(0,0,0)
(0,0,0)
(0,0,0)
(0,0,0)
(0,0,0)
(0,0,0)
(22226387.3084486,2127845.89246357,14145.0761720116)
(22216629.6444735,2123247.57676813,30382.0439511085)
(22191193.9375609,2113768.00468283,52848.9011580759)
(22133919.7407197,2098944.59438029,92114.4562131479)
(22006510.89304,2077452.93238357,177557.307196523)
(21726324.5953424,2042894.44925699,391005.731323823)
(21175477.2149059,1963379.82126713,921168.315291459)
(20763015.4400761,1716914.54152062,1685196.3835083)
(19479707.9764311,1315164.92483108,3367518.98782517)
(15256381.4869843,752190.527349856,9041946.16730684)
(0,0,0)
(0,0,0)
(0,0,0)
(0,0,0)
(0,0,0)
(0,0,0)
(20492915.9548404,3930679.65960249,9440.15804133694)
(20486333.0168012,3926260.86213433,20844.8503775207)
(20469346.5935164,3916611.61163976,38052.9555134488)
(20431842.047783,3899513.39208447,70682.132321439)
(20352064.6567475,3869049.25983148,143033.76005262)
(20189761.3670601,3808461.36431001,311578.442957727)
(19897294.2430523,3671936.43306362,674894.76222796)
(19486569.9460488,3360919.71909799,1283708.53975505)
(18326977.064694,2811293.97186411,2804820.36881604)
(14505712.3580634,1832862.87421727,8289992.91297638)
(0,0,0)
(0,0,0)
(0,0,0)
(0,0,0)
(0,0,0)
(0,0,0)
(15793315.0105385,9717458.0490319,4841.81435791299)
(15790030.3061872,9712806.4114705,10964.6665113285)
(15781691.8051204,9702138.03255418,20790.7579638138)
(15763664.1943044,9681566.8093899,40137.4493321952)
(15726579.0225284,9641497.46398197,82437.7384415938)
(15653627.4588234,9559066.5976727,175147.641595934)
(15518640.0757196,9383865.45774479,364097.781290345)
(15260170.4597214,9019578.39426103,734369.02762483)
(14506278.7405508,8284919.27421706,1826715.31686733)
(11794930.2765277,6457834.40869556,6457427.41097893)
(0,0,0)
(0,0,0)
(0,0,0)
(0,0,0)
(0,0,0)
(0,0,0)
(0,0,0)
(0,0,0)
(0,0,0)
(0,0,0)
(0,0,0)
(0,0,0)
(0,0,0)
(0,0,0)
(0,0,0)
(0,0,0)
(0,0,0)
(0,0,0)
(0,0,0)
(0,0,0)
(0,0,0)
(0,0,0)
(0,0,0)
(0,0,0)
(0,0,0)
(0,0,0)
(0,0,0)
(0,0,0)
(0,0,0)
(0,0,0)
(0,0,0)
(0,0,0)
(0,0,0)
(0,0,0)
(0,0,0)
(0,0,0)
(0,0,0)
(0,0,0)
(0,0,0)
(0,0,0)
(0,0,0)
(0,0,0)
(0,0,0)
(0,0,0)
(0,0,0)
(0,0,0)
(0,0,0)
(0,0,0)
(0,0,0)
(0,0,0)
(0,0,0)
(0,0,0)
(0,0,0)
(0,0,0)
(0,0,0)
(0,0,0)
(0,0,0)
(0,0,0)
(0,0,0)
(0,0,0)
(0,0,0)
(0,0,0)
(0,0,0)
(0,0,0)
(0,0,0)
(0,0,0)
(0,0,0)
(0,0,0)
(0,0,0)
(0,0,0)
(0,0,0)
(0,0,0)
(0,0,0)
(0,0,0)
(0,0,0)
(0,0,0)
(0,0,0)
(0,0,0)
(0,0,0)
(0,0,0)
(0,0,0)
(0,0,0)
(0,0,0)
(0,0,0)
(0,0,0)
(0,0,0)
(0,0,0)
(0,0,0)
(0,0,0)
(0,0,0)
(0,0,0)
(0,0,0)
(0,0,0)
(0,0,0)
(0,0,0)
(0,0,0)
(0,0,0)
(0,0,0)
(0,0,0)
(0,0,0)
(0,0,0)
(0,0,0)
(-415080.281200797,60547.2344534884,50659.5062843227)
(-432197.755348742,56912.5812833445,106545.618852902)
(-470890.224687978,48899.8801574991,173480.710043713)
(-541272.318439625,35155.225120112,257967.465001761)
(-661802.060525311,14300.8004760339,365165.161437295)
(-863168.162785751,-12702.7883418956,489466.885009691)
(-1192646.20795039,-37565.8252859699,580354.730127469)
(-1714140.67910336,-42746.8717762813,431580.820167113)
(-2461907.14327788,-29364.1994108116,-711916.198221745)
(-3018038.21124125,-13429.7922714331,-6011018.16051788)
(0,0,0)
(0,0,0)
(0,0,0)
(0,0,0)
(0,0,0)
(0,0,0)
(-433246.460494408,127063.271052964,46996.9815112425)
(-450065.352053995,120187.626683823,98507.9323645419)
(-488344.277742248,104777.302388983,159722.101799368)
(-558810.505727739,77452.7641028299,237116.807159676)
(-681195.745451911,33404.6653672061,338149.311949174)
(-888017.343460165,-29394.1683543135,464609.362087151)
(-1225193.52134055,-94895.0378881117,575199.914275279)
(-1741625.23129085,-106001.152474773,445009.264737737)
(-2475668.00918968,-65787.9695871403,-695950.363299848)
(-3022881.34973613,-27512.2962222111,-5997566.11895827)
(0,0,0)
(0,0,0)
(0,0,0)
(0,0,0)
(0,0,0)
(0,0,0)
(-473695.972140996,204996.503582037,40122.0622618393)
(-489965.196909978,195922.457463194,83113.6639240807)
(-527579.917388525,175176.198187371,132361.744973611)
(-598763.582308513,136742.506804785,193028.265372711)
(-727494.252429464,69344.5158617089,275362.590238355)
(-955612.170407581,-41777.3383474428,399150.546224914)
(-1333979.0405666,-186284.760814877,564127.787063719)
(-1836820.70151292,-206579.842221392,485281.389635988)
(-2517432.26075116,-105748.577533117,-657586.8056925)
(-3036260.52582475,-37015.0467805069,-5969977.4346018)
(0,0,0)
(0,0,0)
(0,0,0)
(0,0,0)
(0,0,0)
(0,0,0)
(-545885.176355202,298307.310336328,31026.1724915824)
(-561316.789696373,288753.736436787,62376.9119225299)
(-597920.574441931,266809.129162393,93911.5096129625)
(-670616.143853416,225352.073857328,125602.500626929)
(-813734.088656482,148112.806929442,164240.372946004)
(-1104387.50720358,585.257012554192,254702.750561671)
(-1671950.79161465,-260460.777544961,543908.765437704)
(-2148444.60079018,-301445.450096222,586205.617109588)
(-2622100.47777903,-104407.572965708,-588706.762714432)
(-3064970.09255223,-22721.0128472257,-5932811.07963271)
(0,0,0)
(0,0,0)
(0,0,0)
(0,0,0)
(0,0,0)
(0,0,0)
(-667285.94042887,406463.161755925,21451.8142024621)
(-681475.1389985,398286.519206378,40463.1891400497)
(-716083.006410366,380133.16173729,52449.8037688229)
(-788815.38618393,347946.912909642,48342.7025267119)
(-948927.464943596,294515.241772723,16686.7088578956)
(-1359022.84434277,212832.941038955,-6324.45514282498)
(-2699666.1427704,119568.251449976,502996.145614459)
(-3202696.58900445,77271.6820869444,783386.681052488)
(-2827431.07054003,67999.0082350371,-506776.321749642)
(-3112068.62649896,43109.8920564236,-5909798.49084384)
(0,0,0)
(0,0,0)
(0,0,0)
(0,0,0)
(0,0,0)
(0,0,0)
(-867612.674567884,516256.38326068,13303.5364585083)
(-880059.630042338,510515.555838459,22393.3832876132)
(-911089.601032014,498524.463954574,20307.0418145419)
(-978757.173919563,479224.333580906,-5109.40459187072)
(-1134502.23911806,450296.33595858,-65072.2529534488)
(-1543700.87896641,407100.145705795,-99598.5386759955)
(-2819454.39257862,345851.03497529,460886.940457947)
(-3280402.22951306,310670.340910946,774296.900441993)
(-2923274.32893676,224375.106151365,-531456.689725514)
(-3159211.97403992,111781.080189833,-5952696.43279789)
(0,0,0)
(0,0,0)
(0,0,0)
(0,0,0)
(0,0,0)
(0,0,0)
(-1195228.73208215,575635.048731559,7576.07618292793)
(-1205494.59947948,572462.678107735,10463.7527702462)
(-1231598.15858843,566934.021897537,1045.21074421675)
(-1290592.97755621,561402.477662856,-34040.84865095)
(-1433650.67438651,560116.995763616,-108309.53322022)
(-1834517.86930496,565870.47177693,-160889.378165394)
(-3165601.45313259,567041.135980648,425917.414211812)
(-3591637.23692068,649791.595629814,688269.46032211)
(-3068179.77880565,363193.520347278,-643793.21357851)
(-3237003.58945758,150772.50292636,-6064271.34601257)
(0,0,0)
(0,0,0)
(0,0,0)
(0,0,0)
(0,0,0)
(0,0,0)
(-1718216.53584445,394152.804092207,4383.67772988882)
(-1725948.84061776,392743.219377206,4979.21034907761)
(-1745863.33742277,391674.924484142,-4406.82845643518)
(-1792154.66868408,396635.976514872,-35268.3291073241)
(-1910618.99277726,422842.530380753,-102566.389109582)
(-2278562.96951377,506248.087439146,-159758.851118258)
(-3732884.4980311,685158.393914904,508783.192681965)
(-3042485.83136482,440488.079083633,401885.569466552)
(-3183432.34736933,162478.599893046,-855961.597481165)
(-3357266.58905246,1566.17992943239,-6214809.60964998)
(0,0,0)
(0,0,0)
(0,0,0)
(0,0,0)
(0,0,0)
(0,0,0)
(-2468306.27671484,-769188.902013513,2861.52645836916)
(-2473349.89218298,-770281.819940029,3867.06355711475)
(-2486107.46946962,-771293.248377214,586.888201942902)
(-2514608.540292,-768956.07744379,-9072.88096688997)
(-2579916.31692715,-756743.244405543,-19208.5437084373)
(-2736068.11935609,-727981.394556722,19148.0135010586)
(-3077277.33460677,-707023.941579104,264199.515451522)
(-3188817.86689128,-865707.854155717,124080.85042836)
(-3481993.01951285,-1009559.7082031,-1016613.16847118)
(-3536926.21715627,-877990.749811431,-6216120.0747132)
(0,0,0)
(0,0,0)
(0,0,0)
(0,0,0)
(0,0,0)
(0,0,0)
(-3022884.43658841,-6076273.42390957,1581.55782049018)
(-3025362.46034155,-6077651.41159562,2641.50480222626)
(-3031476.50014272,-6079992.31728783,2806.46777338091)
(-3044654.20801983,-6082603.92024718,3070.30169831934)
(-3072713.56613524,-6085614.8209171,9532.05567095548)
(-3131560.55807568,-6095134.79471643,40171.0615271427)
(-3240198.07930248,-6135366.4412312,105649.304998831)
(-3360939.6089861,-6241123.24868368,-19527.6429684015)
(-3538018.93738604,-6221784.06789681,-884708.016540438)
(-3414268.53100121,-5337407.13267753,-5337795.23734795)
(0,0,0)
(0,0,0)
(0,0,0)
(0,0,0)
(0,0,0)
(0,0,0)
(0,0,0)
(0,0,0)
(0,0,0)
(0,0,0)
(0,0,0)
(0,0,0)
(0,0,0)
(0,0,0)
(0,0,0)
(0,0,0)
(0,0,0)
(0,0,0)
(0,0,0)
(0,0,0)
(0,0,0)
(0,0,0)
(0,0,0)
(0,0,0)
(0,0,0)
(0,0,0)
(0,0,0)
(0,0,0)
(0,0,0)
(0,0,0)
(0,0,0)
(0,0,0)
(0,0,0)
(0,0,0)
(0,0,0)
(0,0,0)
(0,0,0)
(0,0,0)
(0,0,0)
(0,0,0)
(0,0,0)
(0,0,0)
(0,0,0)
(0,0,0)
(0,0,0)
(0,0,0)
(0,0,0)
(0,0,0)
(0,0,0)
(0,0,0)
(0,0,0)
(0,0,0)
(0,0,0)
(0,0,0)
(0,0,0)
(0,0,0)
(0,0,0)
(0,0,0)
(0,0,0)
(0,0,0)
(0,0,0)
(0,0,0)
(0,0,0)
(0,0,0)
(0,0,0)
(0,0,0)
(0,0,0)
(0,0,0)
(0,0,0)
(0,0,0)
(0,0,0)
(0,0,0)
(0,0,0)
(0,0,0)
(0,0,0)
(0,0,0)
(0,0,0)
(0,0,0)
(0,0,0)
(0,0,0)
(0,0,0)
(0,0,0)
(0,0,0)
(0,0,0)
(0,0,0)
(0,0,0)
(0,0,0)
(0,0,0)
(0,0,0)
(0,0,0)
(0,0,0)
(0,0,0)
(0,0,0)
(0,0,0)
(0,0,0)
(0,0,0)
(0,0,0)
(0,0,0)
(0,0,0)
(0,0,0)
(0,0,0)
(0,0,0)
(-490976.953538207,42407.1242844905,33489.5480529203)
(-505527.114001265,39064.2940743094,67754.6126311378)
(-537528.205337222,31470.7410449453,102921.852235439)
(-593301.256091895,17680.343550116,137270.446337591)
(-683316.238113721,-5007.64370798402,163792.26763399)
(-821981.831696413,-37495.1303641367,160101.066908792)
(-1021489.81509081,-70079.163516602,59023.8375658173)
(-1268920.40607304,-70219.0713175825,-315977.364146925)
(-1466862.15103751,-43134.6362781944,-1267887.72010907)
(-1274725.69124048,-18291.8252538368,-2992908.414856)
(0,0,0)
(0,0,0)
(0,0,0)
(0,0,0)
(0,0,0)
(0,0,0)
(-507507.224867338,86531.1995079629,30136.6891494552)
(-521235.733869955,80235.6538926721,60135.7111470532)
(-551430.399942982,65573.4808042124,89119.0935885235)
(-604213.836158228,37611.9670556411,114590.800513483)
(-690126.336154571,-12783.1480321472,131296.895540308)
(-824805.001394183,-96911.2647543589,127500.687864556)
(-1023001.37712924,-203635.018374986,58864.3985116358)
(-1262912.1579665,-201183.442992185,-288884.303138112)
(-1457104.64545822,-107561.027171592,-1243021.27597617)
(-1268691.01552278,-40909.3591155022,-2974594.0763279)
(0,0,0)
(0,0,0)
(0,0,0)
(0,0,0)
(0,0,0)
(0,0,0)
(-543561.567029651,132579.05841233,23817.7359842922)
(-555715.452850156,124364.444497999,45439.2013191385)
(-582394.527888001,104731.721115573,61095.5715072545)
(-629106.354025889,64876.43500512,64173.8752751546)
(-706419.15162822,-16881.6244612813,47197.2509030438)
(-835567.304713858,-190554.957568515,20796.0780234628)
(-1053893.78030305,-524268.688748338,61344.4881332671)
(-1263259.92901609,-518194.114391525,-195205.612964229)
(-1433479.59343484,-210421.040689371,-1176298.26676275)
(-1254073.96492366,-65751.7806820721,-2933642.40609728)
(0,0,0)
(0,0,0)
(0,0,0)
(0,0,0)
(0,0,0)
(0,0,0)
(-605612.283088505,176715.858997807,15590.3061478335)
(-615561.505440685,168412.011758685,25787.4546314643)
(-637120.867093266,148517.466148908,21202.0022494657)
(-673990.000995508,107060.299848663,-17608.005451987)
(-734599.194369393,12851.5871321334,-126476.111332487)
(-854438.993329063,-254101.530470773,-312878.052304748)
(-1288398.59320817,-1288198.70585156,67499.7663919896)
(-1356140.09371498,-1355664.62637472,112665.771299993)
(-1378619.91554882,-309728.459669069,-1031507.37195053)
(-1224631.30947708,-69833.5480427143,-2867764.38766505)
(0,0,0)
(0,0,0)
(0,0,0)
(0,0,0)
(0,0,0)
(0,0,0)
(-703922.93379283,206050.874687881,7301.97767388433)
(-711287.913687803,199604.696072532,5922.06804934168)
(-726414.794915538,185036.58376928,-20265.261065856)
(-748135.603659773,157941.814350161,-111826.558091508)
(-763432.302111644,108950.586321858,-393420.720113186)
(-687831.908149133,28227.5242487405,-1346940.71102635)
(7.69893818465529e-05,2.17262940678693e-05,-5.08887382744451e-05)