/*--------------------------------*- C++ -*----------------------------------*\
| =========                 |                                                 |
| \\      /  F ield         | foam-extend: Open Source CFD                    |
|  \\    /   O peration     | Version:     4.0                                |
|   \\  /    A nd           | Web:         http://www.foam-extend.org         |
|    \\/     M anipulation  |                                                 |
\*---------------------------------------------------------------------------*/
FoamFile
{
    version 2.0;
    format ascii;
    class volVectorField;
    location "677";
    object      H;
}
// * * * * * * * * * * * * * * * * * * * * * * * * * * * * * * * * * * * * * //

dimensions      [0 1 -1 0 0 0 0];

internalField   nonuniform List<vector>
4096
(
(0,0,0)
(0,0,0)
(0,0,0)
(0,0,0)
(0,0,0)
(0,0,0)
(0,0,0)
(0,0,0)
(0,0,0)
(0,0,0)
(0,0,0)
(0,0,0)
(0,0,0)
(0,0,0)
(0,0,0)
(0,0,0)
(0,0,0)
(0,0,0)
(0,0,0)
(0,0,0)
(0,0,0)
(0,0,0)
(0,0,0)
(0,0,0)
(0,0,0)
(0,0,0)
(0,0,0)
(0,0,0)
(0,0,0)
(0,0,0)
(0,0,0)
(0,0,0)
(0,0,0)
(0,0,0)
(0,0,0)
(0,0,0)
(0,0,0)
(0,0,0)
(0,0,0)
(0,0,0)
(0,0,0)
(0,0,0)
(0,0,0)
(0,0,0)
(0,0,0)
(0,0,0)
(0,0,0)
(0,0,0)
(0,0,0)
(0,0,0)
(0,0,0)
(0,0,0)
(0,0,0)
(0,0,0)
(0,0,0)
(0,0,0)
(0,0,0)
(0,0,0)
(0,0,0)
(0,0,0)
(0,0,0)
(0,0,0)
(0,0,0)
(0,0,0)
(0,0,0)
(0,0,0)
(0,0,0)
(0,0,0)
(0,0,0)
(0,0,0)
(0,0,0)
(0,0,0)
(0,0,0)
(0,0,0)
(0,0,0)
(0,0,0)
(0,0,0)
(0,0,0)
(0,0,0)
(0,0,0)
(0,0,0)
(0,0,0)
(0,0,0)
(0,0,0)
(0,0,0)
(0,0,0)
(0,0,0)
(0,0,0)
(0,0,0)
(0,0,0)
(0,0,0)
(0,0,0)
(0,0,0)
(0,0,0)
(0,0,0)
(0,0,0)
(0,0,0)
(0,0,0)
(0,0,0)
(0,0,0)
(0,0,0)
(0,0,0)
(0,0,0)
(0,0,0)
(0,0,0)
(0,0,0)
(0,0,0)
(0,0,0)
(0,0,0)
(0,0,0)
(0,0,0)
(0,0,0)
(0,0,0)
(0,0,0)
(0,0,0)
(0,0,0)
(0,0,0)
(0,0,0)
(0,0,0)
(0,0,0)
(0,0,0)
(0,0,0)
(0,0,0)
(0,0,0)
(0,0,0)
(0,0,0)
(0,0,0)
(0,0,0)
(0,0,0)
(0,0,0)
(0,0,0)
(0,0,0)
(0,0,0)
(0,0,0)
(0,0,0)
(0,0,0)
(0,0,0)
(0,0,0)
(0,0,0)
(0,0,0)
(0,0,0)
(0,0,0)
(0,0,0)
(0,0,0)
(0,0,0)
(0,0,0)
(0,0,0)
(0,0,0)
(0,0,0)
(0,0,0)
(0,0,0)
(0,0,0)
(0,0,0)
(0,0,0)
(0,0,0)
(0,0,0)
(0,0,0)
(0,0,0)
(0,0,0)
(0,0,0)
(0,0,0)
(0,0,0)
(0,0,0)
(0,0,0)
(0,0,0)
(0,0,0)
(0,0,0)
(0,0,0)
(0,0,0)
(0,0,0)
(0,0,0)
(0,0,0)
(0,0,0)
(0,0,0)
(0,0,0)
(0,0,0)
(0,0,0)
(0,0,0)
(0,0,0)
(0,0,0)
(0,0,0)
(0,0,0)
(0,0,0)
(0,0,0)
(0,0,0)
(0,0,0)
(0,0,0)
(0,0,0)
(0,0,0)
(0,0,0)
(0,0,0)
(0,0,0)
(0,0,0)
(0,0,0)
(0,0,0)
(0,0,0)
(0,0,0)
(0,0,0)
(0,0,0)
(0,0,0)
(0,0,0)
(0,0,0)
(0,0,0)
(0,0,0)
(0,0,0)
(0,0,0)
(0,0,0)
(0,0,0)
(0,0,0)
(0,0,0)
(0,0,0)
(0,0,0)
(0,0,0)
(0,0,0)
(0,0,0)
(0,0,0)
(0,0,0)
(0,0,0)
(0,0,0)
(0,0,0)
(0,0,0)
(0,0,0)
(0,0,0)
(0,0,0)
(0,0,0)
(0,0,0)
(0,0,0)
(0,0,0)
(0,0,0)
(0,0,0)
(0,0,0)
(0,0,0)
(0,0,0)
(0,0,0)
(0,0,0)
(0,0,0)
(0,0,0)
(0,0,0)
(0,0,0)
(0,0,0)
(0,0,0)
(0,0,0)
(0,0,0)
(0,0,0)
(0,0,0)
(0,0,0)
(0,0,0)
(0,0,0)
(0,0,0)
(0,0,0)
(0,0,0)
(0,0,0)
(0,0,0)
(0,0,0)
(0,0,0)
(0,0,0)
(0,0,0)
(0,0,0)
(0,0,0)
(0,0,0)
(0,0,0)
(0,0,0)
(0,0,0)
(0,0,0)
(0,0,0)
(0,0,0)
(0,0,0)
(0,0,0)
(0,0,0)
(0,0,0)
(0,0,0)
(0,0,0)
(0,0,0)
(0,0,0)
(0,0,0)
(0,0,0)
(0,0,0)
(0,0,0)
(0,0,0)
(0,0,0)
(0,0,0)
(0,0,0)
(0,0,0)
(0,0,0)
(0,0,0)
(0,0,0)
(0,0,0)
(0,0,0)
(0,0,0)
(0,0,0)
(0,0,0)
(0,0,0)
(0,0,0)
(0,0,0)
(0,0,0)
(0,0,0)
(0,0,0)
(0,0,0)
(0,0,0)
(0,0,0)
(0,0,0)
(0,0,0)
(0,0,0)
(0,0,0)
(0,0,0)
(0,0,0)
(0,0,0)
(0,0,0)
(0,0,0)
(0,0,0)
(0,0,0)
(0,0,0)
(0,0,0)
(0,0,0)
(0,0,0)
(0,0,0)
(0,0,0)
(0,0,0)
(0,0,0)
(0,0,0)
(0,0,0)
(0,0,0)
(0,0,0)
(0,0,0)
(0,0,0)
(0,0,0)
(0,0,0)
(0,0,0)
(0,0,0)
(0,0,0)
(0,0,0)
(0,0,0)
(0,0,0)
(0,0,0)
(0,0,0)
(0,0,0)
(0,0,0)
(0,0,0)
(0,0,0)
(0,0,0)
(0,0,0)
(0,0,0)
(0,0,0)
(0,0,0)
(0,0,0)
(0,0,0)
(0,0,0)
(0,0,0)
(0,0,0)
(0,0,0)
(0,0,0)
(0,0,0)
(0,0,0)
(0,0,0)
(0,0,0)
(0,0,0)
(0,0,0)
(0,0,0)
(0,0,0)
(0,0,0)
(0,0,0)
(0,0,0)
(0,0,0)
(0,0,0)
(0,0,0)
(0,0,0)
(0,0,0)
(0,0,0)
(0,0,0)
(0,0,0)
(0,0,0)
(0,0,0)
(0,0,0)
(0,0,0)
(0,0,0)
(0,0,0)
(0,0,0)
(0,0,0)
(0,0,0)
(0,0,0)
(0,0,0)
(0,0,0)
(0,0,0)
(0,0,0)
(0,0,0)
(0,0,0)
(0,0,0)
(0,0,0)
(0,0,0)
(0,0,0)
(0,0,0)
(0,0,0)
(0,0,0)
(0,0,0)
(0,0,0)
(0,0,0)
(0,0,0)
(0,0,0)
(0,0,0)
(0,0,0)
(0,0,0)
(0,0,0)
(0,0,0)
(0,0,0)
(0,0,0)
(0,0,0)
(0,0,0)
(0,0,0)
(0,0,0)
(0,0,0)
(0,0,0)
(0,0,0)
(0,0,0)
(0,0,0)
(0,0,0)
(0,0,0)
(0,0,0)
(0,0,0)
(0,0,0)
(0,0,0)
(0,0,0)
(0,0,0)
(0,0,0)
(0,0,0)
(0,0,0)
(0,0,0)
(0,0,0)
(0,0,0)
(0,0,0)
(0,0,0)
(0,0,0)
(0,0,0)
(0,0,0)
(0,0,0)
(0,0,0)
(0,0,0)
(0,0,0)
(0,0,0)
(0,0,0)
(0,0,0)
(0,0,0)
(0,0,0)
(0,0,0)
(0,0,0)
(0,0,0)
(0,0,0)
(0,0,0)
(0,0,0)
(0,0,0)
(0,0,0)
(0,0,0)
(0,0,0)
(0,0,0)
(0,0,0)
(0,0,0)
(0,0,0)
(0,0,0)
(0,0,0)
(0,0,0)
(0,0,0)
(0,0,0)
(0,0,0)
(0,0,0)
(0,0,0)
(0,0,0)
(0,0,0)
(0,0,0)
(0,0,0)
(0,0,0)
(0,0,0)
(0,0,0)
(0,0,0)
(0,0,0)
(0,0,0)
(0,0,0)
(0,0,0)
(0,0,0)
(0,0,0)
(0,0,0)
(0,0,0)
(0,0,0)
(0,0,0)
(0,0,0)
(0,0,0)
(0,0,0)
(0,0,0)
(0,0,0)
(0,0,0)
(0,0,0)
(0,0,0)
(0,0,0)
(0,0,0)
(0,0,0)
(0,0,0)
(0,0,0)
(0,0,0)
(0,0,0)
(0,0,0)
(0,0,0)
(0,0,0)
(0,0,0)
(0,0,0)
(0,0,0)
(0,0,0)
(0,0,0)
(0,0,0)
(0,0,0)
(0,0,0)
(0,0,0)
(0,0,0)
(0,0,0)
(0,0,0)
(0,0,0)
(0,0,0)
(0,0,0)
(0,0,0)
(0,0,0)
(0,0,0)
(0,0,0)
(0,0,0)
(0,0,0)
(0,0,0)
(0,0,0)
(0,0,0)
(0,0,0)
(0,0,0)
(0,0,0)
(0,0,0)
(0,0,0)
(0,0,0)
(0,0,0)
(0,0,0)
(0,0,0)
(0,0,0)
(0,0,0)
(0,0,0)
(0,0,0)
(0,0,0)
(0,0,0)
(0,0,0)
(0,0,0)
(0,0,0)
(0,0,0)
(0,0,0)
(0,0,0)
(0,0,0)
(0,0,0)
(0,0,0)
(0,0,0)
(0,0,0)
(0,0,0)
(0,0,0)
(0,0,0)
(0,0,0)
(0,0,0)
(0,0,0)
(0,0,0)
(0,0,0)
(0,0,0)
(0,0,0)
(0,0,0)
(0,0,0)
(0,0,0)
(0,0,0)
(0,0,0)
(0,0,0)
(0,0,0)
(0,0,0)
(0,0,0)
(0,0,0)
(0,0,0)
(0,0,0)
(0,0,0)
(0,0,0)
(0,0,0)
(0,0,0)
(0,0,0)
(0,0,0)
(0,0,0)
(0,0,0)
(0,0,0)
(0,0,0)
(0,0,0)
(0,0,0)
(0,0,0)
(0,0,0)
(0,0,0)
(0,0,0)
(0,0,0)
(0,0,0)
(0,0,0)
(0,0,0)
(0,0,0)
(0,0,0)
(0,0,0)
(0,0,0)
(0,0,0)
(0,0,0)
(0,0,0)
(0,0,0)
(0,0,0)
(0,0,0)
(0,0,0)
(0,0,0)
(0,0,0)
(0,0,0)
(0,0,0)
(0,0,0)
(0,0,0)
(0,0,0)
(0,0,0)
(0,0,0)
(0,0,0)
(0,0,0)
(0,0,0)
(0,0,0)
(0,0,0)
(0,0,0)
(0,0,0)
(0,0,0)
(0,0,0)
(0,0,0)
(0,0,0)
(0,0,0)
(0,0,0)
(0,0,0)
(0,0,0)
(0,0,0)
(0,0,0)
(0,0,0)
(0,0,0)
(0,0,0)
(0,0,0)
(0,0,0)
(0,0,0)
(0,0,0)
(0,0,0)
(0,0,0)
(0,0,0)
(0,0,0)
(0,0,0)
(0,0,0)
(0,0,0)
(0,0,0)
(0,0,0)
(0,0,0)
(0,0,0)
(0,0,0)
(0,0,0)
(0,0,0)
(0,0,0)
(0,0,0)
(0,0,0)
(0,0,0)
(0,0,0)
(0,0,0)
(0,0,0)
(0,0,0)
(0,0,0)
(0,0,0)
(0,0,0)
(0,0,0)
(0,0,0)
(0,0,0)
(0,0,0)
(0,0,0)
(0,0,0)
(0,0,0)
(0,0,0)
(0,0,0)
(0,0,0)
(0,0,0)
(0,0,0)
(0,0,0)
(0,0,0)
(0,0,0)
(0,0,0)
(0,0,0)
(0,0,0)
(0,0,0)
(0,0,0)
(0,0,0)
(0,0,0)
(0,0,0)
(0,0,0)
(0,0,0)
(0,0,0)
(0,0,0)
(0,0,0)
(0,0,0)
(0,0,0)
(0,0,0)
(0,0,0)
(0,0,0)
(0,0,0)
(0,0,0)
(0,0,0)
(0,0,0)
(0,0,0)
(0,0,0)
(0,0,0)
(0,0,0)
(0,0,0)
(0,0,0)
(0,0,0)
(0,0,0)
(0,0,0)
(0,0,0)
(0,0,0)
(0,0,0)
(0,0,0)
(0,0,0)
(0,0,0)
(0,0,0)
(0,0,0)
(0,0,0)
(0,0,0)
(0,0,0)
(0,0,0)
(0,0,0)
(0,0,0)
(0,0,0)
(0,0,0)
(0,0,0)
(0,0,0)
(0,0,0)
(0,0,0)
(0,0,0)
(0,0,0)
(0,0,0)
(0,0,0)
(0,0,0)
(0,0,0)
(0,0,0)
(0,0,0)
(0,0,0)
(0,0,0)
(0,0,0)
(0,0,0)
(0,0,0)
(0,0,0)
(0,0,0)
(0,0,0)
(0,0,0)
(0,0,0)
(0,0,0)
(0,0,0)
(0,0,0)
(0,0,0)
(0,0,0)
(0,0,0)
(0,0,0)
(0,0,0)
(0,0,0)
(0,0,0)
(0,0,0)
(0,0,0)
(0,0,0)
(0,0,0)
(0,0,0)
(0,0,0)
(0,0,0)
(0,0,0)
(0,0,0)
(0,0,0)
(0,0,0)
(0,0,0)
(0,0,0)
(0,0,0)
(0,0,0)
(0,0,0)
(0,0,0)
(0,0,0)
(0,0,0)
(0,0,0)
(0,0,0)
(0,0,0)
(0,0,0)
(0,0,0)
(0,0,0)
(0,0,0)
(0,0,0)
(0,0,0)
(0,0,0)
(0,0,0)
(0,0,0)
(0,0,0)
(0,0,0)
(0,0,0)
(0,0,0)
(0,0,0)
(0,0,0)
(0,0,0)
(0,0,0)
(0,0,0)
(0,0,0)
(0,0,0)
(0,0,0)
(0,0,0)
(0,0,0)
(0,0,0)
(0,0,0)
(0,0,0)
(0,0,0)
(0,0,0)
(0,0,0)
(0,0,0)
(0,0,0)
(0,0,0)
(0,0,0)
(0,0,0)
(0,0,0)
(0,0,0)
(0,0,0)
(0,0,0)
(0,0,0)
(0,0,0)
(0,0,0)
(0,0,0)
(9.80376120541982e-14,-1.02338594232341e-11,9.40275099937e-12)
(4.68296302496739e-13,-2.15517856341473e-11,9.14349550273213e-12)
(9.64846056196683e-13,-3.69557226312018e-11,8.7814307063391e-12)
(8.52862858958037e-13,-6.10718685258531e-11,8.33093149652146e-12)
(1.8198331663165e-12,-9.83241122119854e-11,7.13448480062399e-12)
(3.6972861812274e-12,-1.56226432922683e-10,5.29273879805808e-12)
(4.86825772585412e-12,-2.48585683342748e-10,2.99391064858356e-12)
(6.76961528023915e-12,-4.00701773567813e-10,1.31769702312847e-12)
(7.35298203573562e-12,-6.50825124581867e-10,3.90909461630636e-13)
(7.37864174835207e-12,-1.00024978055545e-09,5.68253160336073e-14)
(0,0,0)
(0,0,0)
(0,0,0)
(0,0,0)
(0,0,0)
(0,0,0)
(-1.00300077530398e-12,-1.00813107487293e-11,2.22687534068553e-11)
(-9.05812011162013e-13,-2.11265009513469e-11,2.17634758613458e-11)
(2.44254729184765e-13,-3.61066050571105e-11,2.06357196143247e-11)
(7.62367250975162e-13,-5.97138478481158e-11,1.90204815181518e-11)
(2.1037557588855e-12,-9.66097402078999e-11,1.62320903041239e-11)
(5.13000862849148e-12,-1.54281973231629e-10,1.18112816862567e-11)
(8.48059224234898e-12,-2.47190843744305e-10,7.01326229848636e-12)
(1.22273656007865e-11,-4.00054269048394e-10,4.03544770484831e-12)
(1.41942427748353e-11,-6.51289125873343e-10,2.4125342943128e-12)
(1.41440245728355e-11,-1.00109557036524e-09,1.23605699366853e-12)
(0,0,0)
(0,0,0)
(0,0,0)
(0,0,0)
(0,0,0)
(0,0,0)
(-2.25558438305212e-12,-9.56088696178663e-12,3.99064766300315e-11)
(-1.37239585974815e-12,-1.98248863054809e-11,3.88427566752048e-11)
(2.94559925711968e-13,-3.41198209885262e-11,3.6959256873511e-11)
(1.1662778828757e-12,-5.66630645683643e-11,3.39318662559986e-11)
(2.38052547456944e-12,-9.22968445941341e-11,2.93207775851536e-11)
(5.6112197786619e-12,-1.49430752582016e-10,2.27545593202656e-11)
(1.01924126073816e-11,-2.43766615283681e-10,1.58675400719245e-11)
(1.42797591203872e-11,-3.98400078925578e-10,1.11543148100686e-11)
(1.71503086880356e-11,-6.50880639108323e-10,7.63320499592946e-12)
(1.71414850806933e-11,-1.00105953157966e-09,3.96847727717346e-12)
(0,0,0)
(0,0,0)
(0,0,0)
(0,0,0)
(0,0,0)
(0,0,0)
(-1.82607573162343e-12,-8.58709458782909e-12,6.53990639439622e-11)
(-1.77240446996576e-12,-1.74603956924659e-11,6.38873999078143e-11)
(-1.39058866456423e-12,-3.01066989138625e-11,6.14014704572771e-11)
(-9.53300851859545e-13,-5.08343331703787e-11,5.75118467370836e-11)
(6.03384048280515e-13,-8.47293078485127e-11,5.19626586937921e-11)
(4.19528301127448e-12,-1.41312862747144e-10,4.43013514604434e-11)
(1.03884250996725e-11,-2.37794957980627e-10,3.58785217330111e-11)
(1.50758067748916e-11,-3.94979315747519e-10,2.8014376546756e-11)
(1.82943204657421e-11,-6.48177906215205e-10,2.0175321828764e-11)
(1.83883047680371e-11,-9.9849590348956e-10,1.09673639646495e-11)
(0,0,0)
(0,0,0)
(0,0,0)
(0,0,0)
(0,0,0)
(0,0,0)
(-1.81215492786305e-12,-7.06231655099386e-12,1.02348287163225e-10)
(-2.77350397073652e-12,-1.43584119069059e-11,1.00358273560281e-10)
(-3.51490772435024e-12,-2.49816417353151e-11,9.7703330173062e-11)
(-4.23437816621239e-12,-4.36062753731165e-11,9.4194079203067e-11)
(-2.44093363440295e-12,-7.4795948205277e-11,8.85567103317909e-11)
(2.32930089413587e-12,-1.30110040677593e-10,8.10878140422063e-11)
(9.91822294264737e-12,-2.2809752268181e-10,7.25764724798706e-11)
(1.46761692716851e-11,-3.88145015476795e-10,5.89531096443766e-11)
(1.75630013361837e-11,-6.40629819546976e-10,4.21949999346756e-11)
(1.81703069791536e-11,-9.89651964416945e-10,2.24012109668341e-11)
(0,0,0)
(0,0,0)
(0,0,0)
(0,0,0)
(0,0,0)
(0,0,0)
(-2.79170605262039e-12,-5.00203166097846e-12,1.57555346808069e-10)
(-4.86840225636037e-12,-1.08823015422979e-11,1.55714750275388e-10)
(-6.01498587856537e-12,-1.9912478855454e-11,1.53122242145299e-10)
(-7.17043660183741e-12,-3.60872508870303e-11,1.49850524711643e-10)
(-5.49708634100151e-12,-6.41960311867685e-11,1.44565277126391e-10)
(-4.57442091853274e-13,-1.17813134508098e-10,1.37148423108474e-10)
(6.67750322027551e-12,-2.15872738547275e-10,1.25889462274766e-10)
(1.15592941506526e-11,-3.74384405304507e-10,1.05518171336221e-10)
(1.36434614730119e-11,-6.23191683773826e-10,7.66465742005816e-11)
(1.41430634029675e-11,-9.69742011774391e-10,4.10229663740023e-11)
(0,0,0)
(0,0,0)
(0,0,0)
(0,0,0)
(0,0,0)
(0,0,0)
(-4.61636819108822e-12,-2.84856087023968e-12,2.45347624446687e-10)
(-8.61465383386962e-12,-7.5236340931928e-12,2.44354215086928e-10)
(-1.01203343872156e-11,-1.52533008685171e-11,2.42522359137234e-10)
(-1.03465271615957e-11,-2.92336593985258e-11,2.39558739787039e-10)
(-7.607110577866e-12,-5.44199291431987e-11,2.3454669448959e-10)
(-2.27737162245351e-12,-1.04084316392256e-10,2.25715124710749e-10)
(3.47904530328204e-12,-1.97462438849729e-10,2.0850489381025e-10)
(8.0043519262658e-12,-3.48646058213129e-10,1.80029239988676e-10)
(9.77734288078566e-12,-5.90084840480466e-10,1.34655795698657e-10)
(9.44779540988939e-12,-9.31462348041557e-10,7.37072793141521e-11)
(0,0,0)
(0,0,0)
(0,0,0)
(0,0,0)
(0,0,0)
(0,0,0)
(-6.03195366191312e-12,-1.90874064399855e-12,3.94099121480951e-10)
(-1.16733742414844e-11,-5.72870926044117e-12,3.93364540815547e-10)
(-1.37473141989126e-11,-1.16553198890283e-11,3.91399181475855e-10)
(-1.32667200442204e-11,-2.32629184398413e-11,3.8808097058683e-10)
(-9.7233303821975e-12,-4.54404581837524e-11,3.82318339078187e-10)
(-3.88087065722705e-12,-8.93312552293213e-11,3.71634972208876e-10)
(8.0491109983726e-13,-1.70008170771338e-10,3.49530099998924e-10)
(4.56358776133384e-12,-3.04845621028986e-10,3.07822029591619e-10)
(6.21519533598183e-12,-5.3066066940145e-10,2.38373766172359e-10)
(5.58470494221113e-12,-8.59643005883493e-10,1.35451908325037e-10)
(0,0,0)
(0,0,0)
(0,0,0)
(0,0,0)
(0,0,0)
(0,0,0)
(-8.17385866872322e-12,-1.34275401865358e-12,6.42208433058421e-10)
(-1.48537315850943e-11,-4.05443665407805e-12,6.4159441584323e-10)
(-1.71520859286494e-11,-8.09118038421681e-12,6.39370937864563e-10)
(-1.59920734614311e-11,-1.67742727701544e-11,6.35763801867496e-10)
(-1.21450990339134e-11,-3.40614862513957e-11,6.2852442439346e-10)
(-5.62650840746315e-12,-6.74999209008033e-11,6.14082002509686e-10)
(-1.62246011033762e-12,-1.27767591193327e-10,5.85138235983312e-10)
(1.83196109063248e-12,-2.35267642317951e-10,5.29382498207669e-10)
(4.36944852739081e-12,-4.28122666130596e-10,4.283120477951e-10)
(3.65988120140804e-12,-7.25424034560797e-10,2.57323914309846e-10)
(0,0,0)
(0,0,0)
(0,0,0)
(0,0,0)
(0,0,0)
(0,0,0)
(-9.56723068027143e-12,-1.06604385655827e-12,9.91643322586198e-10)
(-1.69722200485075e-11,-2.407895035684e-12,9.9015403028167e-10)
(-1.89307396566566e-11,-4.20782092449308e-12,9.87172099186574e-10)
(-1.7675633178277e-11,-8.82342260662862e-12,9.83714222673039e-10)
(-1.4680615614869e-11,-1.83790046622141e-11,9.75593985938757e-10)
(-7.88461225945965e-12,-3.68168743662915e-11,9.58232310172911e-10)
(-3.6759368876943e-12,-7.00101229860363e-11,9.23913508697428e-10)
(-4.03678785818196e-13,-1.33105982918291e-10,8.56413766401596e-10)
(3.68552334788253e-12,-2.56709891736911e-10,7.24194036968839e-10)
(3.70357259537862e-12,-4.68530540640918e-10,4.68140775991668e-10)
(0,0,0)
(0,0,0)
(0,0,0)
(0,0,0)
(0,0,0)
(0,0,0)
(0,0,0)
(0,0,0)
(0,0,0)
(0,0,0)
(0,0,0)
(0,0,0)
(0,0,0)
(0,0,0)
(0,0,0)
(0,0,0)
(0,0,0)
(0,0,0)
(0,0,0)
(0,0,0)
(0,0,0)
(0,0,0)
(0,0,0)
(0,0,0)
(0,0,0)
(0,0,0)
(0,0,0)
(0,0,0)
(0,0,0)
(0,0,0)
(0,0,0)
(0,0,0)
(0,0,0)
(0,0,0)
(0,0,0)
(0,0,0)
(0,0,0)
(0,0,0)
(0,0,0)
(0,0,0)
(0,0,0)
(0,0,0)
(0,0,0)
(0,0,0)
(0,0,0)
(0,0,0)
(0,0,0)
(0,0,0)
(0,0,0)
(0,0,0)
(0,0,0)
(0,0,0)
(0,0,0)
(0,0,0)
(0,0,0)
(0,0,0)
(0,0,0)
(0,0,0)
(0,0,0)
(0,0,0)
(0,0,0)
(0,0,0)
(0,0,0)
(0,0,0)
(0,0,0)
(0,0,0)
(0,0,0)
(0,0,0)
(0,0,0)
(0,0,0)
(0,0,0)
(0,0,0)
(0,0,0)
(0,0,0)
(0,0,0)
(0,0,0)
(0,0,0)
(0,0,0)
(0,0,0)
(0,0,0)
(0,0,0)
(0,0,0)
(0,0,0)
(0,0,0)
(0,0,0)
(0,0,0)
(0,0,0)
(0,0,0)
(0,0,0)
(0,0,0)
(0,0,0)
(0,0,0)
(0,0,0)
(0,0,0)
(0,0,0)
(0,0,0)
(0,0,0)
(0,0,0)
(0,0,0)
(0,0,0)
(0,0,0)
(0,0,0)
(2.04744434189975e-13,-1.97025473200283e-11,1.84422382696887e-11)
(4.05076416086246e-13,-4.19807779686348e-11,1.79987578152236e-11)
(5.66227691918405e-13,-7.13905583330313e-11,1.69118578756898e-11)
(6.91288877107742e-13,-1.14364252395371e-10,1.48829668942038e-11)
(1.94720716478982e-12,-1.79047954729584e-10,1.13752488534381e-11)
(4.05165463973209e-12,-2.78205074422177e-10,7.08664776617496e-12)
(5.14963175294174e-12,-4.35557431886239e-10,2.5221341579394e-12)
(7.04889832208927e-12,-6.99860338524041e-10,-2.34642945032899e-13)
(8.15106747266881e-12,-1.20169857997643e-09,-1.07023897643954e-12)
(8.28125687378461e-12,-2.34938529147614e-09,-7.60859795554102e-13)
(0,0,0)
(0,0,0)
(0,0,0)
(0,0,0)
(0,0,0)
(0,0,0)
(-1.0181470167378e-12,-1.91375719404171e-11,4.26671946462779e-11)
(-1.07967041000299e-12,-4.06149696063042e-11,4.1476982335217e-11)
(-1.27291243222905e-13,-6.91133490796053e-11,3.87193182139618e-11)
(4.9997518524746e-13,-1.1103722687138e-10,3.40487349691661e-11)
(2.21166876298698e-12,-1.74929507479486e-10,2.66774765308564e-11)
(5.07680736664346e-12,-2.73992918076136e-10,1.68237251125255e-11)
(8.03417837534818e-12,-4.33367687563218e-10,7.18866020744985e-12)
(1.21960888885663e-11,-6.9970567811639e-10,2.25821584755651e-12)
(1.49622333107625e-11,-1.20299055415848e-09,6.61780251168373e-13)
(1.53440427810619e-11,-2.35139075372309e-09,3.14876900244617e-13)
(0,0,0)
(0,0,0)
(0,0,0)
(0,0,0)
(0,0,0)
(0,0,0)
(-2.16565680218184e-12,-1.77857593502966e-11,7.49043654840104e-11)
(-1.85338667106729e-12,-3.73791523318785e-11,7.27082143443694e-11)
(-6.91171531431772e-13,-6.38640058129158e-11,6.862933284453e-11)
(-5.13648442580517e-14,-1.0344730022026e-10,6.1366150002152e-11)
(1.37920699379666e-12,-1.65100767302042e-10,5.0172292105146e-11)
(4.38034919209725e-12,-2.6424911682776e-10,3.5102927697132e-11)
(8.93398056613876e-12,-4.28431400701209e-10,1.99860508203421e-11)
(1.43801057564401e-11,-6.99266766960054e-10,1.24732268034303e-11)
(1.81123035135541e-11,-1.20418458617599e-09,8.46172451212517e-12)
(1.85463342675491e-11,-2.35282222813189e-09,4.69045105459497e-12)
(0,0,0)
(0,0,0)
(0,0,0)
(0,0,0)
(0,0,0)
(0,0,0)
(-1.83918973231205e-12,-1.53885696937517e-11,1.20312167260933e-10)
(-2.38845880498903e-12,-3.23348594142333e-11,1.17888971571076e-10)
(-2.62602212292487e-12,-5.5050596418141e-11,1.12860329458678e-10)
(-2.63217060583335e-12,-9.05213487938747e-11,1.04100108566872e-10)
(-1.66866836160898e-12,-1.48190557204879e-10,9.09762715957448e-11)
(1.41529066917464e-12,-2.46527964324983e-10,7.32840773562909e-11)
(8.55513498704069e-12,-4.18084675337991e-10,5.4122710572668e-11)
(1.60805612220711e-11,-6.97004966399228e-10,4.13640186682886e-11)
(1.9954191661859e-11,-1.20283997621239e-09,3.00207789486462e-11)
(2.05117296600846e-11,-2.35050963019796e-09,1.63682509948145e-11)
(0,0,0)
(0,0,0)
(0,0,0)
(0,0,0)
(0,0,0)
(0,0,0)
(-1.88242621493462e-12,-1.26253682865198e-11,1.85960219000871e-10)
(-3.59467094812635e-12,-2.62570718440078e-11,1.83060638700634e-10)
(-5.07481963422041e-12,-4.41336089515502e-11,1.77590388821531e-10)
(-6.1160337810146e-12,-7.39507862787902e-11,1.69504799299938e-10)
(-5.57195436330972e-12,-1.25220060831998e-10,1.57856160994681e-10)
(-1.45626371305538e-12,-2.19072759222006e-10,1.43927221631745e-10)
(1.13168016436511e-11,-3.9545931306807e-10,1.32218615051593e-10)
(1.7673668809128e-11,-6.88747744642861e-10,1.03461482533777e-10)
(1.99186545309041e-11,-1.19355704085624e-09,7.26303022353441e-11)
(2.0661565303225e-11,-2.33800992125366e-09,3.7960169858545e-11)
(0,0,0)
(0,0,0)
(0,0,0)
(0,0,0)
(0,0,0)
(0,0,0)
(-3.10458031067839e-12,-9.41968672647002e-12,2.82306568537539e-10)
(-5.63456157537615e-12,-1.97036066809705e-11,2.79150299531478e-10)
(-7.40244643184874e-12,-3.32701431418804e-11,2.73757524923398e-10)
(-8.73878050509288e-12,-5.73826530037894e-11,2.67025195313559e-10)
(-7.85633436664851e-12,-1.01999592907315e-10,2.58022960575963e-10)
(-2.92729937399219e-12,-1.92592359698166e-10,2.46144650160706e-10)
(8.63849446130639e-12,-3.77169010821646e-10,2.30155506410184e-10)
(1.46925441949089e-11,-6.6853034399818e-10,1.91044575598202e-10)
(1.6160226006331e-11,-1.16570480214613e-09,1.37242320659615e-10)
(1.68863660443463e-11,-2.30475231062941e-09,7.24723531698683e-11)
(0,0,0)
(0,0,0)
(0,0,0)
(0,0,0)
(0,0,0)
(0,0,0)
(-4.56277905756964e-12,-6.11627844130507e-12,4.31438914618386e-10)
(-8.57772271692824e-12,-1.35177632558655e-11,4.2948006155027e-10)
(-1.07546960165081e-11,-2.40173720421647e-11,4.26022897474701e-10)
(-1.130522282283e-11,-4.38535848877841e-11,4.21264860514759e-10)
(-7.75501175846873e-12,-8.14839281823313e-11,4.14728834463469e-10)
(1.79798115125721e-13,-1.63340591275096e-10,4.03217953394541e-10)
(4.50043104641802e-12,-3.46685606727317e-10,3.7159470373212e-10)
(9.57735903218563e-12,-6.24300140067903e-10,3.25361315037443e-10)
(1.13016881859565e-11,-1.10733114992252e-09,2.40325116223487e-10)
(1.13357325664089e-11,-2.23686831477142e-09,1.29802239455075e-10)
(0,0,0)
(0,0,0)
(0,0,0)
(0,0,0)
(0,0,0)
(0,0,0)
(-5.86335962185373e-12,-4.26557833225226e-12,6.88119322642749e-10)
(-1.13822875081561e-11,-9.86363276420812e-12,6.86496360500202e-10)
(-1.39932428146972e-11,-1.78569665103668e-11,6.83507659162174e-10)
(-1.39927342052655e-11,-3.51128295143724e-11,6.78977048055578e-10)
(-1.0418935445259e-11,-6.9773509669245e-11,6.71873515365292e-10)
(-3.60733277578861e-12,-1.4604252745423e-10,6.58412008365672e-10)
(2.72401929120606e-13,-3.00703432979401e-10,6.23813047443384e-10)
(4.43387246943706e-12,-5.41863725691485e-10,5.48053911724867e-10)
(6.59904991260785e-12,-9.99765071089099e-10,4.21986139966262e-10)
(6.81764194411597e-12,-2.11005284822171e-09,2.40111046151804e-10)
(0,0,0)
(0,0,0)
(0,0,0)
(0,0,0)
(0,0,0)
(0,0,0)
(-7.83655161562776e-12,-2.86361633354539e-12,1.1855912368679e-09)
(-1.42767952248201e-11,-6.81543023719172e-12,1.18392805439224e-09)
(-1.74283093913054e-11,-1.25354519687427e-11,1.18051812634228e-09)
(-1.67035461509196e-11,-2.61533744958855e-11,1.17501685129184e-09)
(-1.33851587393091e-11,-5.40152034763436e-11,1.16467991154466e-09)
(-7.36578841561152e-12,-1.12649715006093e-10,1.14324835918146e-09)
(-3.62419054197543e-12,-2.23423815165466e-10,1.0950321572517e-09)
(7.4075210353305e-13,-4.15288990481369e-10,9.95521338552186e-10)
(3.94480761889051e-12,-8.18379265922025e-10,8.17648975693206e-10)
(4.09030159163601e-12,-1.8712152844297e-09,5.10667850555569e-10)
(0,0,0)
(0,0,0)
(0,0,0)
(0,0,0)
(0,0,0)
(0,0,0)
(-9.14398223230183e-12,-1.81505988589972e-12,2.33265010977128e-09)
(-1.63981839890952e-11,-3.87310413125014e-12,2.33001665140993e-09)
(-1.96806840676157e-11,-6.61436806292474e-12,2.3253075284944e-09)
(-1.83788190506222e-11,-1.40971280703472e-11,2.31918972196647e-09)
(-1.5697944511239e-11,-2.97099119775843e-11,2.30680460022208e-09)
(-1.03826851502727e-11,-6.16734613174048e-11,2.27935543781911e-09)
(-6.18631757790674e-12,-1.2128167846525e-10,2.2205900748497e-09)
(-1.28993227133903e-12,-2.35785393066194e-10,2.10169631923605e-09)
(3.0288925881415e-12,-5.10422517357698e-10,1.86723153284663e-09)
(3.31380794616537e-12,-1.36010140603563e-09,1.3582878608158e-09)
(0,0,0)
(0,0,0)
(0,0,0)
(0,0,0)
(0,0,0)
(0,0,0)
(0,0,0)
(0,0,0)
(0,0,0)
(0,0,0)
(0,0,0)
(0,0,0)
(0,0,0)
(0,0,0)
(0,0,0)
(0,0,0)
(0,0,0)
(0,0,0)
(0,0,0)
(0,0,0)
(0,0,0)
(0,0,0)
(0,0,0)
(0,0,0)
(0,0,0)
(0,0,0)
(0,0,0)
(0,0,0)
(0,0,0)
(0,0,0)
(0,0,0)
(0,0,0)
(0,0,0)
(0,0,0)
(0,0,0)
(0,0,0)
(0,0,0)
(0,0,0)
(0,0,0)
(0,0,0)
(0,0,0)
(0,0,0)
(0,0,0)
(0,0,0)
(0,0,0)
(0,0,0)
(0,0,0)
(0,0,0)
(0,0,0)
(0,0,0)
(0,0,0)
(0,0,0)
(0,0,0)
(0,0,0)
(0,0,0)
(0,0,0)
(0,0,0)
(0,0,0)
(0,0,0)
(0,0,0)
(0,0,0)
(0,0,0)
(0,0,0)
(0,0,0)
(0,0,0)
(0,0,0)
(0,0,0)
(0,0,0)
(0,0,0)
(0,0,0)
(0,0,0)
(0,0,0)
(0,0,0)
(0,0,0)
(0,0,0)
(0,0,0)
(0,0,0)
(0,0,0)
(0,0,0)
(0,0,0)
(0,0,0)
(0,0,0)
(0,0,0)
(0,0,0)
(0,0,0)
(0,0,0)
(0,0,0)
(0,0,0)
(0,0,0)
(0,0,0)
(0,0,0)
(0,0,0)
(0,0,0)
(0,0,0)
(0,0,0)
(0,0,0)
(0,0,0)
(0,0,0)
(0,0,0)
(0,0,0)
(0,0,0)
(0,0,0)
(8.32495090677657e-14,-2.65698893923819e-11,2.67481643149354e-11)
(1.26167992782655e-13,-5.6828301450906e-11,2.58842802612537e-11)
(3.17909420171094e-13,-9.61809290397924e-11,2.35216991139774e-11)
(8.71981394363423e-13,-1.5093613731796e-10,1.91631114463313e-11)
(2.11736100162753e-12,-2.29543668672387e-10,1.27068674743876e-11)
(4.40401190220884e-12,-3.4449746758817e-10,4.99801377608138e-12)
(5.7166645325332e-12,-5.14058161796494e-10,-2.30225765283036e-12)
(7.72983394597644e-12,-7.58906302183624e-10,-5.21039724708025e-12)
(9.13366247363534e-12,-1.10473534391758e-09,-4.78591546055304e-12)
(9.52585932523275e-12,-1.52269218039015e-09,-2.74956930590876e-12)
(0,0,0)
(0,0,0)
(0,0,0)
(0,0,0)
(0,0,0)
(0,0,0)
(-1.17974729559345e-12,-2.56800390521823e-11,6.05375435907406e-11)
(-1.5578235633552e-12,-5.48702174021239e-11,5.83678146277952e-11)
(-7.06051265390767e-13,-9.25989193476105e-11,5.3049639982874e-11)
(2.81306972706544e-13,-1.45312228099925e-10,4.37940664494147e-11)
(2.23668000393771e-12,-2.22569804213533e-10,3.01545442646451e-11)
(4.96807102337639e-12,-3.38301737373238e-10,1.22174865543893e-11)
(8.02833587224922e-12,-5.12858230601968e-10,-5.24850238954897e-12)
(1.33536133300008e-11,-7.61255815701771e-10,-9.97388737769952e-12)
(1.65031686787316e-11,-1.10815269518275e-09,-7.44281347765732e-12)
(1.70903940902284e-11,-1.52651894379541e-09,-3.50403575096891e-12)
(0,0,0)
(0,0,0)
(0,0,0)
(0,0,0)
(0,0,0)
(0,0,0)
(-2.36669531952459e-12,-2.3681287971502e-11,1.03091478988002e-10)
(-2.81879808810921e-12,-4.98686190083212e-11,9.94671456689964e-11)
(-2.24139808404445e-12,-8.37645500183892e-11,9.21878106462524e-11)
(-1.78345837369158e-12,-1.32207581205972e-10,7.88973698731656e-11)
(-4.6163869540074e-13,-2.05358208042386e-10,5.79527981937722e-11)
(1.77607356568487e-12,-3.22191424899269e-10,2.81240650900048e-11)
(6.10007922073582e-12,-5.09946410016197e-10,-4.81556099262496e-12)
(1.61298074864588e-11,-7.67214588852392e-10,-8.78100633174971e-12)
(2.05389670077459e-11,-1.11477901086183e-09,-3.54093756429112e-12)
(2.0924187388039e-11,-1.53196570551581e-09,-2.70498543477637e-13)
(0,0,0)
(0,0,0)
(0,0,0)
(0,0,0)
(0,0,0)
(0,0,0)
(-2.17919545029839e-12,-2.02704752128245e-11,1.61213721566222e-10)
(-3.43760426210535e-12,-4.22994022032565e-11,1.57201714283579e-10)
(-4.78278869802787e-12,-6.99533833819255e-11,1.48637976453278e-10)
(-6.07889614994367e-12,-1.10722912511971e-10,1.3318145818113e-10)
(-6.94697049478936e-12,-1.74894034259637e-10,1.08282752828496e-10)
(-6.87854764991483e-12,-2.88303308575114e-10,7.08098318341456e-11)
(-1.31153537875597e-12,-5.01332601071121e-10,2.03681485756918e-11)
(1.91665791850499e-11,-7.78875193482038e-10,1.82985357240839e-11)
(2.43237842597947e-11,-1.12375327573526e-09,1.99160394972725e-11)
(2.43802717106224e-11,-1.53621694558254e-09,1.28616968641178e-11)
(0,0,0)
(0,0,0)
(0,0,0)
(0,0,0)
(0,0,0)
(0,0,0)
(-2.18852747456803e-12,-1.61984339739618e-11,2.42630998095147e-10)
(-4.67788623227405e-12,-3.31006893383786e-11,2.38060568418049e-10)
(-7.85269592210961e-12,-5.32881284627182e-11,2.289680439144e-10)
(-1.10355287510659e-11,-8.34440051834534e-11,2.14647436349426e-10)
(-1.48634829241575e-11,-1.3210708725599e-10,1.94166447725083e-10)
(-1.62280566573458e-11,-2.23752258140818e-10,1.71642886191792e-10)
(2.17836319148365e-11,-4.40631018635002e-10,1.86424601387459e-10)
(2.82874484624413e-11,-7.90751754918787e-10,1.21799678595927e-10)
(2.67365481986922e-11,-1.1263862055308e-09,8.23118624337389e-11)
(2.53641245370809e-11,-1.52922494376629e-09,4.27447187662502e-11)
(0,0,0)
(0,0,0)
(0,0,0)
(0,0,0)
(0,0,0)
(0,0,0)
(-3.2517195898287e-12,-1.1685349345223e-11,3.54253350758053e-10)
(-6.42763039203537e-12,-2.35409978408928e-11,3.49752777714519e-10)
(-9.92288792208019e-12,-3.69569311370533e-11,3.41749667862372e-10)
(-1.32656138830045e-11,-5.70617872105284e-11,3.3119641137715e-10)
(-1.64936886770111e-11,-9.19265941916368e-11,3.18353036122503e-10)
(-1.61899240462452e-11,-1.75511147243485e-10,3.03890972285051e-10)
(1.72660211790736e-11,-4.43683168226628e-10,3.12077260858377e-10)
(2.42645952026119e-11,-7.81318417670291e-10,2.44392551385429e-10)
(2.25565412729544e-11,-1.1000988052707e-09,1.69580567623911e-10)
(2.14747233562533e-11,-1.49310052946164e-09,8.74930809042743e-11)
(0,0,0)
(0,0,0)
(0,0,0)
(0,0,0)
(0,0,0)
(0,0,0)
(-4.4546260981526e-12,-7.37756219266545e-12,5.12115514479308e-10)
(-8.77468913288954e-12,-1.50522732450497e-11,5.09468121508999e-10)
(-1.21570645887663e-11,-2.34449631980408e-11,5.0475271132065e-10)
(-1.35099521443303e-11,-3.59005591423678e-11,4.99786618871429e-10)
(-7.95454920273817e-12,-5.48061838201903e-11,4.98823046574725e-10)
(1.45049839564654e-11,-1.07634307118056e-10,5.04167593413541e-10)
(4.75164599342465e-12,-4.16639657404318e-10,4.39738185460087e-10)
(1.2177143469322e-11,-7.31946142559201e-10,4.23004012600482e-10)
(1.42584861211743e-11,-1.02943501404065e-09,2.94141279001255e-10)
(1.43225054718081e-11,-1.41143195145137e-09,1.51468115279292e-10)
(0,0,0)
(0,0,0)
(0,0,0)
(0,0,0)
(0,0,0)
(0,0,0)
(-5.64235947788158e-12,-4.86049257831712e-12,7.43668061232667e-10)
(-1.14417886972696e-11,-1.00346002846763e-11,7.41894400363567e-10)
(-1.47841462503603e-11,-1.57175280715791e-11,7.38431098646215e-10)
(-1.58486565325258e-11,-2.84979538492642e-11,7.35287137407049e-10)
(-1.27157346388464e-11,-5.62262359930999e-11,7.35067586613386e-10)
(-2.40118430184348e-12,-1.3771519117558e-10,7.38178498472504e-10)
(-1.24808016583683e-12,-3.75820218066986e-10,7.19933450030394e-10)
(3.92690901712939e-12,-6.05201733087361e-10,6.13990335837466e-10)
(7.08833856009661e-12,-8.90172388053442e-10,4.47607924519053e-10)
(8.09112430407365e-12,-1.26246730219961e-09,2.41402980243727e-10)
(0,0,0)
(0,0,0)
(0,0,0)
(0,0,0)
(0,0,0)
(0,0,0)
(-7.22192558801191e-12,-3.00324836106066e-12,1.08103894499097e-09)
(-1.38091932806434e-11,-6.62642177613374e-12,1.07937861065927e-09)
(-1.78481182464902e-11,-1.09063115532916e-11,1.07569676485997e-09)
(-1.84228528293526e-11,-2.34325912684281e-11,1.07103015531868e-09)
(-1.62588978743618e-11,-5.16624553538274e-11,1.06405865728271e-09)
(-1.01258401746037e-11,-1.20563238252964e-10,1.04884837542797e-09)
(-6.25550854276418e-12,-2.63779041389471e-10,1.00251591381788e-09)
(-8.90482452939372e-13,-4.37235773234617e-10,8.80778135814091e-10)
(2.96918419234151e-12,-6.83643329046508e-10,6.81788111098615e-10)
(3.64427375290209e-12,-1.02087250086164e-09,3.91398377917937e-10)
(0,0,0)
(0,0,0)
(0,0,0)
(0,0,0)
(0,0,0)
(0,0,0)
(-8.32558375718173e-12,-1.46160515620615e-12,1.49696313996943e-09)
(-1.556216520524e-11,-3.45007288304688e-12,1.49477212155452e-09)
(-2.01772456022778e-11,-5.79513460375064e-12,1.49017611160104e-09)
(-2.00908253771066e-11,-1.35678652400617e-11,1.4838445581576e-09)
(-1.79586940853709e-11,-3.08399692554867e-11,1.47178378350587e-09)
(-1.32907834986853e-11,-6.83765318147871e-11,1.44442027353935e-09)
(-8.57424042901299e-12,-1.37505543766592e-10,1.38048505224119e-09)