/*--------------------------------*- C++ -*----------------------------------*\
| =========                 |                                                 |
| \\      /  F ield         | foam-extend: Open Source CFD                    |
|  \\    /   O peration     | Version:     4.0                                |
|   \\  /    A nd           | Web:         http://www.foam-extend.org         |
|    \\/     M anipulation  |                                                 |
\*---------------------------------------------------------------------------*/
FoamFile
{
    version 2.0;
    format ascii;
    class volVectorField;
    location "1168";
    object      H;
}
// * * * * * * * * * * * * * * * * * * * * * * * * * * * * * * * * * * * * * //

dimensions      [0 1 -1 0 0 0 0];

internalField   nonuniform List<vector>
4096
(
(0,0,0)
(0,0,0)
(0,0,0)
(0,0,0)
(0,0,0)
(0,0,0)
(0,0,0)
(0,0,0)
(0,0,0)
(0,0,0)
(0,0,0)
(0,0,0)
(0,0,0)
(0,0,0)
(0,0,0)
(0,0,0)
(0,0,0)
(0,0,0)
(0,0,0)
(0,0,0)
(0,0,0)
(0,0,0)
(0,0,0)
(0,0,0)
(0,0,0)
(0,0,0)
(0,0,0)
(0,0,0)
(0,0,0)
(0,0,0)
(0,0,0)
(0,0,0)
(0,0,0)
(0,0,0)
(0,0,0)
(0,0,0)
(0,0,0)
(0,0,0)
(0,0,0)
(0,0,0)
(0,0,0)
(0,0,0)
(0,0,0)
(0,0,0)
(0,0,0)
(0,0,0)
(0,0,0)
(0,0,0)
(0,0,0)
(0,0,0)
(0,0,0)
(0,0,0)
(0,0,0)
(0,0,0)
(0,0,0)
(0,0,0)
(0,0,0)
(0,0,0)
(0,0,0)
(0,0,0)
(0,0,0)
(0,0,0)
(0,0,0)
(0,0,0)
(0,0,0)
(0,0,0)
(0,0,0)
(0,0,0)
(0,0,0)
(0,0,0)
(0,0,0)
(0,0,0)
(0,0,0)
(0,0,0)
(0,0,0)
(0,0,0)
(0,0,0)
(0,0,0)
(0,0,0)
(0,0,0)
(0,0,0)
(0,0,0)
(0,0,0)
(0,0,0)
(0,0,0)
(0,0,0)
(0,0,0)
(0,0,0)
(0,0,0)
(0,0,0)
(0,0,0)
(0,0,0)
(0,0,0)
(0,0,0)
(0,0,0)
(0,0,0)
(0,0,0)
(0,0,0)
(0,0,0)
(0,0,0)
(0,0,0)
(0,0,0)
(0,0,0)
(0,0,0)
(0,0,0)
(0,0,0)
(0,0,0)
(0,0,0)
(0,0,0)
(0,0,0)
(0,0,0)
(0,0,0)
(0,0,0)
(0,0,0)
(0,0,0)
(0,0,0)
(0,0,0)
(0,0,0)
(0,0,0)
(0,0,0)
(0,0,0)
(0,0,0)
(0,0,0)
(0,0,0)
(0,0,0)
(0,0,0)
(0,0,0)
(0,0,0)
(0,0,0)
(0,0,0)
(0,0,0)
(0,0,0)
(0,0,0)
(0,0,0)
(0,0,0)
(0,0,0)
(0,0,0)
(0,0,0)
(0,0,0)
(0,0,0)
(0,0,0)
(0,0,0)
(0,0,0)
(0,0,0)
(0,0,0)
(0,0,0)
(0,0,0)
(0,0,0)
(0,0,0)
(0,0,0)
(0,0,0)
(0,0,0)
(0,0,0)
(0,0,0)
(0,0,0)
(0,0,0)
(0,0,0)
(0,0,0)
(0,0,0)
(0,0,0)
(0,0,0)
(0,0,0)
(0,0,0)
(0,0,0)
(0,0,0)
(0,0,0)
(0,0,0)
(0,0,0)
(0,0,0)
(0,0,0)
(0,0,0)
(0,0,0)
(0,0,0)
(0,0,0)
(0,0,0)
(0,0,0)
(0,0,0)
(0,0,0)
(0,0,0)
(0,0,0)
(0,0,0)
(0,0,0)
(0,0,0)
(0,0,0)
(0,0,0)
(0,0,0)
(0,0,0)
(0,0,0)
(0,0,0)
(0,0,0)
(0,0,0)
(0,0,0)
(0,0,0)
(0,0,0)
(0,0,0)
(0,0,0)
(0,0,0)
(0,0,0)
(0,0,0)
(0,0,0)
(0,0,0)
(0,0,0)
(0,0,0)
(0,0,0)
(0,0,0)
(0,0,0)
(0,0,0)
(0,0,0)
(0,0,0)
(0,0,0)
(0,0,0)
(0,0,0)
(0,0,0)
(0,0,0)
(0,0,0)
(0,0,0)
(0,0,0)
(0,0,0)
(0,0,0)
(0,0,0)
(0,0,0)
(0,0,0)
(0,0,0)
(0,0,0)
(0,0,0)
(0,0,0)
(0,0,0)
(0,0,0)
(0,0,0)
(0,0,0)
(0,0,0)
(0,0,0)
(0,0,0)
(0,0,0)
(0,0,0)
(0,0,0)
(0,0,0)
(0,0,0)
(0,0,0)
(0,0,0)
(0,0,0)
(0,0,0)
(0,0,0)
(0,0,0)
(0,0,0)
(0,0,0)
(0,0,0)
(0,0,0)
(0,0,0)
(0,0,0)
(0,0,0)
(0,0,0)
(0,0,0)
(0,0,0)
(0,0,0)
(0,0,0)
(0,0,0)
(0,0,0)
(0,0,0)
(0,0,0)
(0,0,0)
(0,0,0)
(0,0,0)
(0,0,0)
(0,0,0)
(0,0,0)
(0,0,0)
(0,0,0)
(0,0,0)
(0,0,0)
(0,0,0)
(0,0,0)
(0,0,0)
(0,0,0)
(0,0,0)
(0,0,0)
(0,0,0)
(0,0,0)
(0,0,0)
(0,0,0)
(0,0,0)
(0,0,0)
(0,0,0)
(0,0,0)
(0,0,0)
(0,0,0)
(0,0,0)
(0,0,0)
(0,0,0)
(0,0,0)
(0,0,0)
(0,0,0)
(0,0,0)
(0,0,0)
(0,0,0)
(0,0,0)
(0,0,0)
(0,0,0)
(0,0,0)
(0,0,0)
(0,0,0)
(0,0,0)
(0,0,0)
(0,0,0)
(0,0,0)
(0,0,0)
(0,0,0)
(0,0,0)
(0,0,0)
(0,0,0)
(0,0,0)
(0,0,0)
(0,0,0)
(0,0,0)
(0,0,0)
(0,0,0)
(0,0,0)
(0,0,0)
(0,0,0)
(0,0,0)
(0,0,0)
(0,0,0)
(0,0,0)
(0,0,0)
(0,0,0)
(0,0,0)
(0,0,0)
(0,0,0)
(0,0,0)
(0,0,0)
(0,0,0)
(0,0,0)
(0,0,0)
(0,0,0)
(0,0,0)
(0,0,0)
(0,0,0)
(0,0,0)
(0,0,0)
(0,0,0)
(0,0,0)
(0,0,0)
(0,0,0)
(0,0,0)
(0,0,0)
(0,0,0)
(0,0,0)
(0,0,0)
(0,0,0)
(0,0,0)
(0,0,0)
(0,0,0)
(0,0,0)
(0,0,0)
(0,0,0)
(0,0,0)
(0,0,0)
(0,0,0)
(0,0,0)
(0,0,0)
(0,0,0)
(0,0,0)
(0,0,0)
(0,0,0)
(0,0,0)
(0,0,0)
(0,0,0)
(0,0,0)
(0,0,0)
(0,0,0)
(0,0,0)
(0,0,0)
(0,0,0)
(0,0,0)
(0,0,0)
(0,0,0)
(0,0,0)
(0,0,0)
(0,0,0)
(0,0,0)
(0,0,0)
(0,0,0)
(0,0,0)
(0,0,0)
(0,0,0)
(0,0,0)
(0,0,0)
(0,0,0)
(0,0,0)
(0,0,0)
(0,0,0)
(0,0,0)
(0,0,0)
(0,0,0)
(0,0,0)
(0,0,0)
(0,0,0)
(0,0,0)
(0,0,0)
(0,0,0)
(0,0,0)
(0,0,0)
(0,0,0)
(0,0,0)
(0,0,0)
(0,0,0)
(0,0,0)
(0,0,0)
(0,0,0)
(0,0,0)
(0,0,0)
(0,0,0)
(0,0,0)
(0,0,0)
(0,0,0)
(0,0,0)
(0,0,0)
(0,0,0)
(0,0,0)
(0,0,0)
(0,0,0)
(0,0,0)
(0,0,0)
(0,0,0)
(0,0,0)
(0,0,0)
(0,0,0)
(0,0,0)
(0,0,0)
(0,0,0)
(0,0,0)
(0,0,0)
(0,0,0)
(0,0,0)
(0,0,0)
(0,0,0)
(0,0,0)
(0,0,0)
(0,0,0)
(0,0,0)
(0,0,0)
(0,0,0)
(0,0,0)
(0,0,0)
(0,0,0)
(0,0,0)
(0,0,0)
(0,0,0)
(0,0,0)
(0,0,0)
(0,0,0)
(0,0,0)
(0,0,0)
(0,0,0)
(0,0,0)
(0,0,0)
(0,0,0)
(0,0,0)
(0,0,0)
(0,0,0)
(0,0,0)
(0,0,0)
(0,0,0)
(0,0,0)
(0,0,0)
(0,0,0)
(0,0,0)
(0,0,0)
(0,0,0)
(0,0,0)
(0,0,0)
(0,0,0)
(0,0,0)
(0,0,0)
(0,0,0)
(0,0,0)
(0,0,0)
(0,0,0)
(0,0,0)
(0,0,0)
(0,0,0)
(0,0,0)
(0,0,0)
(0,0,0)
(0,0,0)
(0,0,0)
(0,0,0)
(0,0,0)
(0,0,0)
(0,0,0)
(0,0,0)
(0,0,0)
(0,0,0)
(0,0,0)
(0,0,0)
(0,0,0)
(0,0,0)
(0,0,0)
(0,0,0)
(0,0,0)
(0,0,0)
(0,0,0)
(0,0,0)
(0,0,0)
(0,0,0)
(0,0,0)
(0,0,0)
(0,0,0)
(0,0,0)
(0,0,0)
(0,0,0)
(0,0,0)
(0,0,0)
(0,0,0)
(0,0,0)
(0,0,0)
(0,0,0)
(0,0,0)
(0,0,0)
(0,0,0)
(0,0,0)
(0,0,0)
(0,0,0)
(0,0,0)
(0,0,0)
(0,0,0)
(0,0,0)
(0,0,0)
(0,0,0)
(0,0,0)
(0,0,0)
(0,0,0)
(0,0,0)
(0,0,0)
(0,0,0)
(0,0,0)
(0,0,0)
(0,0,0)
(0,0,0)
(0,0,0)
(0,0,0)
(0,0,0)
(0,0,0)
(0,0,0)
(0,0,0)
(0,0,0)
(0,0,0)
(0,0,0)
(0,0,0)
(0,0,0)
(0,0,0)
(0,0,0)
(0,0,0)
(0,0,0)
(0,0,0)
(0,0,0)
(0,0,0)
(0,0,0)
(0,0,0)
(0,0,0)
(0,0,0)
(0,0,0)
(0,0,0)
(0,0,0)
(0,0,0)
(0,0,0)
(0,0,0)
(0,0,0)
(0,0,0)
(0,0,0)
(0,0,0)
(0,0,0)
(0,0,0)
(0,0,0)
(0,0,0)
(0,0,0)
(0,0,0)
(0,0,0)
(0,0,0)
(0,0,0)
(0,0,0)
(0,0,0)
(0,0,0)
(0,0,0)
(0,0,0)
(0,0,0)
(0,0,0)
(0,0,0)
(0,0,0)
(0,0,0)
(0,0,0)
(0,0,0)
(0,0,0)
(0,0,0)
(0,0,0)
(0,0,0)
(0,0,0)
(0,0,0)
(0,0,0)
(0,0,0)
(0,0,0)
(0,0,0)
(0,0,0)
(0,0,0)
(0,0,0)
(0,0,0)
(0,0,0)
(0,0,0)
(0,0,0)
(0,0,0)
(0,0,0)
(0,0,0)
(0,0,0)
(0,0,0)
(0,0,0)
(0,0,0)
(0,0,0)
(0,0,0)
(0,0,0)
(0,0,0)
(0,0,0)
(0,0,0)
(0,0,0)
(0,0,0)
(0,0,0)
(0,0,0)
(0,0,0)
(0,0,0)
(0,0,0)
(0,0,0)
(0,0,0)
(0,0,0)
(0,0,0)
(0,0,0)
(0,0,0)
(0,0,0)
(0,0,0)
(0,0,0)
(0,0,0)
(0,0,0)
(0,0,0)
(0,0,0)
(0,0,0)
(0,0,0)
(0,0,0)
(0,0,0)
(0,0,0)
(0,0,0)
(0,0,0)
(0,0,0)
(0,0,0)
(0,0,0)
(0,0,0)
(0,0,0)
(0,0,0)
(0,0,0)
(0,0,0)
(0,0,0)
(0,0,0)
(0,0,0)
(0,0,0)
(0,0,0)
(0,0,0)
(0,0,0)
(0,0,0)
(0,0,0)
(0,0,0)
(0,0,0)
(0,0,0)
(0,0,0)
(0,0,0)
(0,0,0)
(0,0,0)
(0,0,0)
(0,0,0)
(0,0,0)
(0,0,0)
(0,0,0)
(0,0,0)
(0,0,0)
(0,0,0)
(0,0,0)
(0,0,0)
(0,0,0)
(0,0,0)
(0,0,0)
(0,0,0)
(0,0,0)
(0,0,0)
(0,0,0)
(0,0,0)
(0,0,0)
(0,0,0)
(0,0,0)
(0,0,0)
(0,0,0)
(0,0,0)
(0,0,0)
(0,0,0)
(0,0,0)
(0,0,0)
(0,0,0)
(0,0,0)
(0,0,0)
(0,0,0)
(0,0,0)
(0,0,0)
(0,0,0)
(0,0,0)
(0,0,0)
(0,0,0)
(0,0,0)
(0,0,0)
(0,0,0)
(0,0,0)
(0,0,0)
(0,0,0)
(0,0,0)
(0,0,0)
(0,0,0)
(0,0,0)
(0,0,0)
(0,0,0)
(0,0,0)
(0,0,0)
(0,0,0)
(0,0,0)
(0,0,0)
(0,0,0)
(0,0,0)
(0,0,0)
(0,0,0)
(0,0,0)
(0,0,0)
(0,0,0)
(0,0,0)
(0,0,0)
(0,0,0)
(0,0,0)
(0,0,0)
(0,0,0)
(0,0,0)
(0,0,0)
(0,0,0)
(0,0,0)
(0,0,0)
(0,0,0)
(0,0,0)
(0,0,0)
(0,0,0)
(0,0,0)
(0,0,0)
(0,0,0)
(0,0,0)
(0,0,0)
(0,0,0)
(0,0,0)
(0,0,0)
(0,0,0)
(0,0,0)
(0,0,0)
(0,0,0)
(0,0,0)
(0,0,0)
(0,0,0)
(0,0,0)
(0,0,0)
(0,0,0)
(0,0,0)
(0,0,0)
(0,0,0)
(0,0,0)
(0,0,0)
(0,0,0)
(0,0,0)
(0,0,0)
(0,0,0)
(0,0,0)
(0,0,0)
(0,0,0)
(0,0,0)
(0,0,0)
(0,0,0)
(0,0,0)
(0,0,0)
(0,0,0)
(0,0,0)
(0,0,0)
(0,0,0)
(0,0,0)
(0,0,0)
(0,0,0)
(0,0,0)
(0,0,0)
(0,0,0)
(0,0,0)
(0,0,0)
(0,0,0)
(0,0,0)
(0,0,0)
(0,0,0)
(0,0,0)
(0,0,0)
(0,0,0)
(0,0,0)
(0,0,0)
(0,0,0)
(0,0,0)
(0,0,0)
(0,0,0)
(0,0,0)
(0,0,0)
(0,0,0)
(0,0,0)
(0,0,0)
(0,0,0)
(0,0,0)
(0,0,0)
(0,0,0)
(4.31550930085819e-13,8.50585199267275e-12,-9.7774608012874e-12)
(6.97079000678101e-13,1.81167388851198e-11,-9.42769991470843e-12)
(9.61029611510644e-15,3.17666565913105e-11,-8.33903817183172e-12)
(-1.20150916934141e-12,5.06804029170721e-11,-7.04995891412379e-12)
(-2.72464954075312e-12,8.08849028876427e-11,-5.36873378021846e-12)
(-3.22014377716375e-12,1.28879896518179e-10,-3.26514547260572e-12)
(-2.75357626053874e-12,2.05843065860191e-10,-1.20517887788558e-12)
(-1.77187332850937e-12,3.3444792229686e-10,-5.40298452629316e-13)
(2.7722137159914e-13,5.50643202295483e-10,-5.34654377633927e-13)
(1.12416425176009e-12,8.52210886249878e-10,-1.79189724149863e-13)
(0,0,0)
(0,0,0)
(0,0,0)
(0,0,0)
(0,0,0)
(0,0,0)
(2.62456037004384e-12,8.26263467452451e-12,-2.11018167525402e-11)
(2.83651667491083e-12,1.74304057445425e-11,-2.02418874995871e-11)
(1.26699430443189e-12,3.08714850105598e-11,-1.82116410920034e-11)
(-8.71584996712398e-13,4.92402064072883e-11,-1.53472861759109e-11)
(-2.99949883817971e-12,7.86991621850648e-11,-1.21065459267701e-11)
(-4.06388883600263e-12,1.26781280071356e-10,-8.17247047194506e-12)
(-3.58681028491449e-12,2.05164189337921e-10,-4.15180590562738e-12)
(-3.05175803980444e-12,3.34718652907177e-10,-2.34673240073482e-12)
(-1.29025498742744e-12,5.51384497881194e-10,-1.98779851997761e-12)
(2.89946381790664e-13,8.53223215769682e-10,-1.30660218208057e-12)
(0,0,0)
(0,0,0)
(0,0,0)
(0,0,0)
(0,0,0)
(0,0,0)
(3.24570173928506e-12,7.58336767272753e-12,-3.57446229015497e-11)
(3.47420418022641e-12,1.5764002046307e-11,-3.43046167587986e-11)
(2.44630924703989e-12,2.83631847146746e-11,-3.14434626813021e-11)
(1.04063311424068e-12,4.61376405044662e-11,-2.73541913480218e-11)
(-7.02858445681877e-13,7.47748705376509e-11,-2.27406069200908e-11)
(-2.59992510867434e-12,1.22887186620268e-10,-1.71380105657715e-11)
(-2.49298934580924e-12,2.03560746884476e-10,-1.15673111190507e-11)
(-2.59558924009692e-12,3.34984416595419e-10,-7.83089394777163e-12)
(-2.62101400452738e-12,5.52053192721618e-10,-5.57126659619918e-12)
(-1.79807547760788e-12,8.5383685401448e-10,-2.9728296557212e-12)
(0,0,0)
(0,0,0)
(0,0,0)
(0,0,0)
(0,0,0)
(0,0,0)
(3.54866525052135e-12,6.17346689928636e-12,-5.60115781521163e-11)
(4.38148661563911e-12,1.29462910908407e-11,-5.42543129163874e-11)
(4.54610880841904e-12,2.41469668697089e-11,-5.10973778906616e-11)
(4.73792432539909e-12,4.10324525308357e-11,-4.66809185122146e-11)
(3.47443838219335e-12,6.87909927662593e-11,-4.12644631503424e-11)
(5.22099526748713e-13,1.16649416842219e-10,-3.47322333757846e-11)
(-1.52063487637773e-12,1.99477909710263e-10,-2.80560365753032e-11)
(-3.38840941162525e-12,3.33721919125606e-10,-2.11664387136874e-11)
(-5.49962222147927e-12,5.50911038668423e-10,-1.4743972093032e-11)
(-6.21182564347299e-12,8.52438325559597e-10,-7.58488305661461e-12)
(0,0,0)
(0,0,0)
(0,0,0)
(0,0,0)
(0,0,0)
(0,0,0)
(3.6205619665888e-12,4.77748646014009e-12,-8.59747325983794e-11)
(5.7937240764379e-12,1.0206896648146e-11,-8.42514817551543e-11)
(7.24252312919253e-12,1.94955584362457e-11,-8.15943763909562e-11)
(8.6438339517043e-12,3.47703981197065e-11,-7.77388021181153e-11)
(7.364085038998e-12,6.11612670502425e-11,-7.24554838772816e-11)
(3.72751501321558e-12,1.08278956597418e-10,-6.61009429455434e-11)
(-1.06058248491339e-12,1.91930064688332e-10,-5.88696364566407e-11)
(-4.90622797978199e-12,3.28796276706527e-10,-4.68869007437549e-11)
(-8.49591106830147e-12,5.45474837226908e-10,-3.28379318172993e-11)
(-9.82900364189681e-12,8.46317132191152e-10,-1.70719470834079e-11)
(0,0,0)
(0,0,0)
(0,0,0)
(0,0,0)
(0,0,0)
(0,0,0)
(4.10306708916463e-12,3.13741830555109e-12,-1.31561795785328e-10)
(7.33189650122582e-12,7.5561266760931e-12,-1.3001373501785e-10)
(9.77601959333053e-12,1.48791710741798e-11,-1.27989892844889e-10)
(1.09560029214723e-11,2.82996692261304e-11,-1.25226537023475e-10)
(9.28822336979202e-12,5.29350374663531e-11,-1.209023281995e-10)
(5.47738302334921e-12,9.89709077036307e-11,-1.14112614906768e-10)
(-1.19621372083236e-13,1.82460061086179e-10,-1.03880758825078e-10)
(-4.8656683485001e-12,3.1753533283521e-10,-8.69189895437588e-11)
(-8.8470499971808e-12,5.31453952634654e-10,-6.28368480254908e-11)
(-1.17268956104787e-11,8.30281356506559e-10,-3.32717455959196e-11)
(0,0,0)
(0,0,0)
(0,0,0)
(0,0,0)
(0,0,0)
(0,0,0)
(4.65916975157189e-12,1.5193472860618e-12,-2.06862128411893e-10)
(8.65109660551661e-12,5.26659565233537e-12,-2.0597639222597e-10)
(1.14154288689735e-11,1.13020491899926e-11,-2.04553686573932e-10)
(1.21348182391784e-11,2.28707010647585e-11,-2.02412749348603e-10)
(9.72357190658653e-12,4.46544566255711e-11,-1.98387547385239e-10)
(5.20061453133364e-12,8.71497435196426e-11,-1.90272780736591e-10)
(5.94456785985527e-13,1.66638608011374e-10,-1.75229406659877e-10)
(-3.91576947420882e-12,2.95425163272411e-10,-1.5119650357766e-10)
(-7.7220761517542e-12,5.02960970297665e-10,-1.12612068079193e-10)
(-1.20900912929388e-11,7.97070522917069e-10,-6.11732110263926e-11)
(0,0,0)
(0,0,0)
(0,0,0)
(0,0,0)
(0,0,0)
(0,0,0)
(4.86690848033447e-12,7.08781539381092e-13,-3.36593015730022e-10)
(9.13254311551826e-12,3.75306449100197e-12,-3.35773119350996e-10)
(1.28891794303102e-11,8.71006419457384e-12,-3.34282929609396e-10)
(1.34857017828823e-11,1.83226747205945e-11,-3.31871795525014e-10)
(1.09233189184786e-11,3.70184922088239e-11,-3.26899183939632e-10)
(6.1302248898143e-12,7.45287068970813e-11,-3.16618997164961e-10)
(1.26204541339596e-12,1.43278257051705e-10,-2.96732008362794e-10)
(-2.46813224543266e-12,2.58165141973184e-10,-2.60795999203832e-10)
(-5.0550573405972e-12,4.52377092622589e-10,-2.01481063776884e-10)
(-9.49733617945277e-12,7.35714321716149e-10,-1.14006900296477e-10)
(0,0,0)
(0,0,0)
(0,0,0)
(0,0,0)
(0,0,0)
(0,0,0)
(5.36643468658847e-12,6.65254061253726e-13,-5.53393981421152e-10)
(9.01705161289813e-12,2.92770688327576e-12,-5.5227342433079e-10)
(1.29988085502849e-11,6.60449393838326e-12,-5.50282192140067e-10)
(1.30251044982884e-11,1.36061244200135e-11,-5.46781587882682e-10)
(1.03492353354583e-11,2.77126755349738e-11,-5.40271775238645e-10)
(6.44025895588496e-12,5.61586679122968e-11,-5.26767471684192e-10)
(2.63699653993544e-12,1.0773645343528e-10,-5.00461589823112e-10)
(-1.45897427876881e-12,1.99695251769538e-10,-4.51590358179956e-10)
(-4.44839188207354e-12,3.65617115733807e-10,-3.65089973209135e-10)
(-7.90565376299587e-12,6.21397394675009e-10,-2.19369339677043e-10)
(0,0,0)
(0,0,0)
(0,0,0)
(0,0,0)
(0,0,0)
(0,0,0)
(5.78990361153615e-12,5.85054598109844e-13,-8.55413595068042e-10)
(9.09805762608672e-12,1.71655984998111e-12,-8.5418497256352e-10)
(1.40094638816613e-11,3.51033679035149e-12,-8.52107287648928e-10)
(1.41915887241575e-11,7.43455520947172e-12,-8.48131831355276e-10)
(1.13089266500459e-11,1.50870062000918e-11,-8.40312697734733e-10)
(8.09313590563672e-12,3.04429822738818e-11,-8.24593407798016e-10)
(4.17300924387064e-12,5.89300188596692e-11,-7.93823350926348e-10)
(-1.1138845712495e-12,1.13248565803901e-10,-7.34441831983952e-10)
(-4.45644108923825e-12,2.19694360047967e-10,-6.20838644730848e-10)
(-5.78201840024961e-12,4.01534861336934e-10,-4.01562099699915e-10)
(0,0,0)
(0,0,0)
(0,0,0)
(0,0,0)
(0,0,0)
(0,0,0)
(0,0,0)
(0,0,0)
(0,0,0)
(0,0,0)
(0,0,0)
(0,0,0)
(0,0,0)
(0,0,0)
(0,0,0)
(0,0,0)
(0,0,0)
(0,0,0)
(0,0,0)
(0,0,0)
(0,0,0)
(0,0,0)
(0,0,0)
(0,0,0)
(0,0,0)
(0,0,0)
(0,0,0)
(0,0,0)
(0,0,0)
(0,0,0)
(0,0,0)
(0,0,0)
(0,0,0)
(0,0,0)
(0,0,0)
(0,0,0)
(0,0,0)
(0,0,0)
(0,0,0)
(0,0,0)
(0,0,0)
(0,0,0)
(0,0,0)
(0,0,0)
(0,0,0)
(0,0,0)
(0,0,0)
(0,0,0)
(0,0,0)
(0,0,0)
(0,0,0)
(0,0,0)
(0,0,0)
(0,0,0)
(0,0,0)
(0,0,0)
(0,0,0)
(0,0,0)
(0,0,0)
(0,0,0)
(0,0,0)
(0,0,0)
(0,0,0)
(0,0,0)
(0,0,0)
(0,0,0)
(0,0,0)
(0,0,0)
(0,0,0)
(0,0,0)
(0,0,0)
(0,0,0)
(0,0,0)
(0,0,0)
(0,0,0)
(0,0,0)
(0,0,0)
(0,0,0)
(0,0,0)
(0,0,0)
(0,0,0)
(0,0,0)
(0,0,0)
(0,0,0)
(0,0,0)
(0,0,0)
(0,0,0)
(0,0,0)
(0,0,0)
(0,0,0)
(0,0,0)
(0,0,0)
(0,0,0)
(0,0,0)
(0,0,0)
(0,0,0)
(0,0,0)
(0,0,0)
(0,0,0)
(0,0,0)
(0,0,0)
(0,0,0)
(3.25007361659049e-13,1.6383969724256e-11,-1.78904723341479e-11)
(2.94750398374338e-13,3.50814989624092e-11,-1.70309744987306e-11)
(-3.84297380842291e-13,6.02110562216031e-11,-1.50476882833024e-11)
(-1.44253779347619e-12,9.41960302179206e-11,-1.22578521109915e-11)
(-2.64249714579226e-12,1.46279749577993e-10,-8.5082252329672e-12)
(-3.18149392499536e-12,2.28456370014119e-10,-4.2428094751714e-12)
(-2.73958016342653e-12,3.60443296971885e-10,-8.27713897519943e-13)
(-2.04824801404822e-12,5.85623111551379e-10,4.60607745239126e-13)
(-8.19538867708076e-13,1.01886813068138e-09,5.1469812217008e-13)
(-6.73549927311255e-14,2.01067036588667e-09,4.89901921529273e-13)
(0,0,0)
(0,0,0)
(0,0,0)
(0,0,0)
(0,0,0)
(0,0,0)
(2.44389811888726e-12,1.55916799984943e-11,-3.89154316647797e-11)
(2.47267396556795e-12,3.34346829725369e-11,-3.69888678162602e-11)
(9.10939684229617e-13,5.78477403432004e-11,-3.31282257024115e-11)
(-1.00975934303624e-12,9.11211483198945e-11,-2.73511370204651e-11)
(-3.00928264557768e-12,1.4227223699972e-10,-1.99502347165287e-11)
(-4.19045995121877e-12,2.25025534762019e-10,-1.12983670744819e-11)
(-3.7884413363775e-12,3.5947187160923e-10,-3.50337068768104e-12)
(-3.67645560871301e-12,5.86331187938519e-10,-2.5325870704628e-13)
(-2.64014616533049e-12,1.02019025110603e-09,-1.3005201466032e-14)
(-1.63029404489872e-12,2.01233511091171e-09,-1.33931191121529e-13)
(0,0,0)
(0,0,0)
(0,0,0)
(0,0,0)
(0,0,0)
(0,0,0)
(3.21559636997615e-12,1.42167425665187e-11,-6.57018699107287e-11)
(3.43076105819689e-12,3.0105497154205e-11,-6.28125262529732e-11)
(2.57325575873373e-12,5.23915031351613e-11,-5.76853982394829e-11)
(1.53223665993978e-12,8.40645545996616e-11,-4.98380642799295e-11)
(-3.21577028658394e-13,1.33750137564545e-10,-3.93905409063654e-11)
(-1.93285477739577e-12,2.17147171558903e-10,-2.67121995752495e-11)
(-2.1465693429261e-12,3.56714051465794e-10,-1.43533302306272e-11)
(-3.59271912186444e-12,5.87708105172719e-10,-8.58674314726779e-12)
(-4.07729689195463e-12,1.02241851737839e-09,-6.4350055968945e-12)
(-3.37237667858553e-12,2.01438786393095e-09,-3.64412211503313e-12)
(0,0,0)
(0,0,0)
(0,0,0)
(0,0,0)
(0,0,0)
(0,0,0)
(3.18738045393791e-12,1.16128081880072e-11,-1.01866927804094e-10)
(3.96394603260826e-12,2.48105831776325e-11,-9.9015226766419e-11)
(4.78105786342877e-12,4.40393660364683e-11,-9.36575515843947e-11)
(5.58352337465875e-12,7.30832967312104e-11,-8.48030821794993e-11)
(4.57193432364236e-12,1.20397262309088e-10,-7.2494157072778e-11)
(2.21636297109478e-12,2.03207915819971e-10,-5.75983962172621e-11)
(-8.62387716110482e-13,3.49495090411537e-10,-4.2324249586767e-11)
(-4.88523361325152e-12,5.88051260942385e-10,-3.21272838282427e-11)
(-7.22250981616873e-12,1.0228298444834e-09,-2.35075575009152e-11)
(-7.67551533156676e-12,2.01376139634679e-09,-1.26957581813759e-11)
(0,0,0)
(0,0,0)
(0,0,0)
(0,0,0)
(0,0,0)
(0,0,0)
(3.53737927795225e-12,8.98590364683729e-12,-1.54544604180901e-10)
(5.78738868428986e-12,1.9174356464576e-11,-1.52063926276998e-10)
(8.00333621841282e-12,3.42489848002698e-11,-1.47505033895444e-10)
(9.83124460445246e-12,5.92821424256466e-11,-1.39557104046486e-10)
(9.23577369117312e-12,1.02259036072967e-10,-1.28440018561273e-10)
(5.80425741805363e-12,1.81427278289388e-10,-1.16537504601367e-10)
(-3.57331459559912e-12,3.31535769043639e-10,-1.07289275285048e-10)
(-7.69425303486044e-12,5.82443683134275e-10,-8.32486923661575e-11)
(-1.02410112098816e-11,1.01594755413712e-09,-5.8030812429228e-11)
(-1.08651750410298e-11,2.00439838079488e-09,-3.03039608006867e-11)
(0,0,0)
(0,0,0)
(0,0,0)
(0,0,0)
(0,0,0)
(0,0,0)
(4.17307734117587e-12,6.4680372171838e-12,-2.34084588079151e-10)
(7.59758535202366e-12,1.40425969236136e-11,-2.31815680876811e-10)
(1.05897856561036e-11,2.49843677365612e-11,-2.28274152497726e-10)
(1.20607622588653e-11,4.57385720453319e-11,-2.2261441302563e-10)
(1.07790909178475e-11,8.42088071309172e-11,-2.14257230629127e-10)
(7.06669112565373e-12,1.61430478693315e-10,-2.02983580841171e-10)
(-1.25993757860781e-12,3.19128379961803e-10,-1.88251555989285e-10)
(-6.8376403039685e-12,5.66156490287849e-10,-1.56784467367218e-10)
(-9.9191700897146e-12,9.93081182026326e-10,-1.12517181666235e-10)
(-1.17878076166012e-11,1.97702891351572e-09,-5.9298575008786e-11)
(0,0,0)
(0,0,0)
(0,0,0)
(0,0,0)
(0,0,0)
(0,0,0)
(4.5839993123296e-12,4.32019580876012e-12,-3.6249177251262e-10)
(8.74192211481121e-12,1.01669262724055e-11,-3.61007994942574e-10)
(1.18664766390638e-11,1.83139160526642e-11,-3.58510593372464e-10)
(1.26576426199771e-11,3.49650073751542e-11,-3.54732799334763e-10)
(9.24476967469072e-12,6.73364922443703e-11,-3.48874716242211e-10)
(2.7782770771996e-12,1.37037028826399e-10,-3.38011331548863e-10)
(-7.80953366006551e-14,2.91900537801269e-10,-3.10084213011595e-10)
(-5.24018367340715e-12,5.27574190766194e-10,-2.71454861768908e-10)
(-8.57705552979474e-12,9.4297299300101e-10,-2.00254970662021e-10)
(-1.19071011180438e-11,1.91921503141789e-09,-1.07823045164317e-10)
(0,0,0)
(0,0,0)
(0,0,0)
(0,0,0)
(0,0,0)
(0,0,0)
(4.09053957943561e-12,2.97171477162925e-12,-5.86595902098732e-10)
(8.46771098164504e-12,7.61144069518327e-12,-5.85317895871575e-10)
(1.258361560212e-11,1.43856604549265e-11,-5.83098249308991e-10)
(1.32296404980812e-11,2.84486880703786e-11,-5.79311188199109e-10)
(9.94894881763907e-12,5.77506023037666e-11,-5.72655922147722e-10)
(4.61327507244122e-12,1.22343111440383e-10,-5.59312962480019e-10)
(8.67839870858966e-13,2.52858701083998e-10,-5.27873569570515e-10)
(-3.31317746883923e-12,4.57599162491322e-10,-4.63002760603822e-10)
(-5.76924393209029e-12,8.51459731899803e-10,-3.56419792018448e-10)
(-9.18730943521312e-12,1.81093218895068e-09,-2.02609515932688e-10)
(0,0,0)
(0,0,0)
(0,0,0)
(0,0,0)
(0,0,0)
(0,0,0)
(4.32607705937046e-12,2.04894065009576e-12,-1.01940912503796e-09)
(8.23696645547027e-12,5.64979696419719e-12,-1.01768870485421e-09)
(1.25923614409336e-11,1.09901793202806e-11,-1.01474675460646e-09)
(1.26868610647948e-11,2.17921617324227e-11,-1.00925728389718e-09)
(9.47060111589696e-12,4.48930639737875e-11,-9.99122176412136e-10)
(5.85006273320452e-12,9.40967019908495e-11,-9.78472215479991e-10)
(2.57219947239256e-12,1.87917705678192e-10,-9.35000519882673e-10)
(-1.51267328395638e-12,3.5134048185058e-10,-8.49160366603356e-10)
(-4.24626972838629e-12,6.9802947993301e-10,-6.97961460459819e-10)
(-7.41246010169641e-12,1.60735030119833e-09,-4.36622608644503e-10)
(0,0,0)
(0,0,0)
(0,0,0)
(0,0,0)
(0,0,0)
(0,0,0)
(5.14633570512484e-12,1.11264556058066e-12,-2.01133003601628e-09)
(8.73693256147475e-12,3.07973834911003e-12,-2.00907546515232e-09)
(1.35443443783601e-11,5.8219558241264e-12,-2.00525990658937e-09)
(1.38070103130876e-11,1.18872958679244e-11,-1.99848441728372e-09)
(1.06766429134172e-11,2.46339792335049e-11,-1.98562684906005e-09)
(7.76606130784668e-12,5.12727399704583e-11,-1.96018625077838e-09)
(3.72150916113693e-12,1.02181527304618e-10,-1.90835188511219e-09)
(-1.46850602044354e-12,2.00174525371637e-10,-1.80562401517384e-09)
(-4.0386260722054e-12,4.36524404561648e-10,-1.60550947014501e-09)
(-5.80925676318829e-12,1.16977748483785e-09,-1.16959397893172e-09)
(0,0,0)
(0,0,0)
(0,0,0)
(0,0,0)
(0,0,0)
(0,0,0)
(0,0,0)
(0,0,0)
(0,0,0)
(0,0,0)
(0,0,0)
(0,0,0)
(0,0,0)
(0,0,0)
(0,0,0)
(0,0,0)
(0,0,0)
(0,0,0)
(0,0,0)
(0,0,0)
(0,0,0)
(0,0,0)
(0,0,0)
(0,0,0)
(0,0,0)
(0,0,0)
(0,0,0)
(0,0,0)
(0,0,0)
(0,0,0)
(0,0,0)
(0,0,0)
(0,0,0)
(0,0,0)
(0,0,0)
(0,0,0)
(0,0,0)
(0,0,0)
(0,0,0)
(0,0,0)
(0,0,0)
(0,0,0)
(0,0,0)
(0,0,0)
(0,0,0)
(0,0,0)
(0,0,0)
(0,0,0)
(0,0,0)
(0,0,0)
(0,0,0)
(0,0,0)
(0,0,0)
(0,0,0)
(0,0,0)
(0,0,0)
(0,0,0)
(0,0,0)
(0,0,0)
(0,0,0)
(0,0,0)
(0,0,0)
(0,0,0)
(0,0,0)
(0,0,0)
(0,0,0)
(0,0,0)
(0,0,0)
(0,0,0)
(0,0,0)
(0,0,0)
(0,0,0)
(0,0,0)
(0,0,0)
(0,0,0)
(0,0,0)
(0,0,0)
(0,0,0)
(0,0,0)
(0,0,0)
(0,0,0)
(0,0,0)
(0,0,0)
(0,0,0)
(0,0,0)
(0,0,0)
(0,0,0)
(0,0,0)
(0,0,0)
(0,0,0)
(0,0,0)
(0,0,0)
(0,0,0)
(0,0,0)
(0,0,0)
(0,0,0)
(0,0,0)
(0,0,0)
(0,0,0)
(0,0,0)
(0,0,0)
(0,0,0)
(2.57799252124136e-13,2.24962574821793e-11,-2.31246257758764e-11)
(-4.17198276583257e-14,4.61838317596261e-11,-2.16650253759742e-11)
(-8.1081767433763e-13,7.89760336721895e-11,-1.90936369009267e-11)
(-2.11728277300563e-12,1.23301366286822e-10,-1.49981810355853e-11)
(-2.90040032580418e-12,1.87649754475761e-10,-9.52021054731812e-12)
(-3.16575425027922e-12,2.82544192305903e-10,-2.87784423008539e-12)
(-3.05647644394558e-12,4.23347990574685e-10,2.82075173546509e-12)
(-2.81041477814685e-12,6.29299437450321e-10,4.60096919097905e-12)
(-2.11686309182456e-12,9.25447262321445e-10,3.53765908536952e-12)
(-1.24219809599482e-12,1.28537963726926e-09,1.97045855805911e-12)
(0,0,0)
(0,0,0)
(0,0,0)
(0,0,0)
(0,0,0)
(0,0,0)
(1.8922717026866e-12,2.09278824952052e-11,-5.09796906046767e-11)
(1.94121766937286e-12,4.37143919158977e-11,-4.82081459042202e-11)
(5.90088209959863e-13,7.52588134990212e-11,-4.3019124740958e-11)
(-1.35406792650478e-12,1.18271451589604e-10,-3.44621499896816e-11)
(-3.13905085191097e-12,1.81292787987834e-10,-2.25179794116365e-11)
(-4.10709313488561e-12,2.77521390321347e-10,-7.58417099631136e-12)
(-4.28073317493131e-12,4.23026322303131e-10,6.34098128818419e-12)
(-5.29362634679445e-12,6.32330951893404e-10,9.33208263113802e-12)
(-4.74748644859098e-12,9.28985881899817e-10,6.35297916591797e-12)
(-3.81697825494626e-12,1.28893163263581e-09,2.93779885996225e-12)
(0,0,0)
(0,0,0)
(0,0,0)
(0,0,0)
(0,0,0)
(0,0,0)
(2.93018709013149e-12,1.86088812745486e-11,-8.55070185614123e-11)
(3.59854702197271e-12,3.88232358374731e-11,-8.19117742878607e-11)
(3.07805889805415e-12,6.69561661827373e-11,-7.4955242807776e-11)
(2.06597115465364e-12,1.0686636435233e-10,-6.30590091072571e-11)
(3.52956895568669e-13,1.66832590490871e-10,-4.51416953009429e-11)
(-3.52468383526473e-13,2.64523567908587e-10,-2.0747916802821e-11)
(-6.94195370970579e-13,4.22102035701873e-10,6.05802617397412e-12)
(-6.08761244236258e-12,6.39293791627783e-10,8.20330596524324e-12)
(-7.27950747856041e-12,9.36003725027987e-10,2.77091425276802e-12)
(-6.39003120992089e-12,1.2947350598828e-09,-5.20497591633338e-14)
(0,0,0)
(0,0,0)
(0,0,0)
(0,0,0)
(0,0,0)
(0,0,0)
(2.96258395689688e-12,1.53029494552495e-11,-1.32710779799498e-10)
(4.24249756429946e-12,3.1694423806575e-11,-1.29119737828788e-10)
(5.71696969441157e-12,5.47535929124199e-11,-1.21624644979962e-10)
(7.07575257321149e-12,8.91546017957615e-11,-1.08148283885447e-10)
(7.8143997047702e-12,1.42573611087676e-10,-8.70885751971403e-11)
(8.72285387126394e-12,2.37393558122846e-10,-5.60305493033331e-11)
(6.89996789312353e-12,4.16939614117787e-10,-1.43514876637019e-11)
(-7.89738213288095e-12,6.512648215476e-10,-1.37815495778416e-11)
(-1.11520187890764e-11,9.44775278927808e-10,-1.60156305807545e-11)
(-1.10082579608425e-11,1.29946528393381e-09,-1.07985504057825e-11)
(0,0,0)
(0,0,0)
(0,0,0)
(0,0,0)
(0,0,0)
(0,0,0)
(3.5745678041959e-12,1.19501713436513e-11,-1.98410682009878e-10)
(6.36025584364217e-12,2.40366907357865e-11,-1.95023347459316e-10)
(9.32002343285541e-12,4.0763114439685e-11,-1.88187414640912e-10)
(1.2257729499135e-11,6.71613297036082e-11,-1.76130819800579e-10)
(1.53834886743205e-11,1.08197809205968e-10,-1.58670795695022e-10)
(1.65528276972206e-11,1.84608411536422e-10,-1.39869030766636e-10)
(-1.52065084326206e-11,3.65608875284699e-10,-1.53915586070223e-10)
(-1.66249401258973e-11,6.6318511654708e-10,-9.81205892343752e-11)
(-1.51014907264761e-11,9.48152616580178e-10,-6.61810145984995e-11)
(-1.37996685631214e-11,1.29418771203972e-09,-3.47849710917086e-11)
(0,0,0)
(0,0,0)
(0,0,0)
(0,0,0)
(0,0,0)
(0,0,0)
(4.05201154731328e-12,8.82404290916705e-12,-2.91558540007905e-10)
(7.93172762418894e-12,1.69512677425822e-11,-2.88373558447437e-10)
(1.16004978675694e-11,2.75583594955268e-11,-2.83010121507265e-10)
(1.44771445334029e-11,4.59883926754055e-11,-2.74825020485589e-10)
(1.63777560157392e-11,7.6514719854916e-11,-2.63249229431982e-10)
(1.6728116140815e-11,1.48682169999607e-10,-2.49438205896474e-10)
(-5.49918403990702e-12,3.81574135024979e-10,-2.50726068388271e-10)
(-1.25226264839169e-11,6.57011695648931e-10,-1.98352030000171e-10)
(-1.30295877215666e-11,9.27267397586577e-10,-1.38031989103668e-10)
(-1.32725005277163e-11,1.26460119037926e-09,-7.1264985028666e-11)
(0,0,0)
(0,0,0)
(0,0,0)
(0,0,0)
(0,0,0)
(0,0,0)
(4.44870277972093e-12,6.19257889638078e-12,-4.27379915202222e-10)
(8.80000612225302e-12,1.14244339636727e-11,-4.25015509868526e-10)
(1.20169381985079e-11,1.76455371936294e-11,-4.21642545871676e-10)
(1.33158788326652e-11,2.87802835387248e-11,-4.18282349740485e-10)
(7.96727492191092e-12,4.59435384081996e-11,-4.17060599282735e-10)
(-1.0454924074199e-11,9.14660686817768e-11,-4.20330702488034e-10)
(3.34390138191644e-13,3.47599853511217e-10,-3.64271678196845e-10)
(-6.46504650568225e-12,6.12728324598824e-10,-3.49820324210767e-10)
(-9.49571992602385e-12,8.67568458713973e-10,-2.43077928707608e-10)
(-1.14473038151384e-11,1.196488201582e-09,-1.2502799624577e-10)
(0,0,0)
(0,0,0)
(0,0,0)
(0,0,0)
(0,0,0)
(0,0,0)
(3.73530747404204e-12,4.42707116107485e-12,-6.29100841859229e-10)
(8.20970814981196e-12,8.29107385276409e-12,-6.27451353904967e-10)
(1.21920356265264e-11,1.31343548438486e-11,-6.25156340275639e-10)
(1.32309007853477e-11,2.35463617518979e-11,-6.22715435939308e-10)
(9.46352747953167e-12,4.74517793255387e-11,-6.21829552484203e-10)
(1.4202916123656e-12,1.15851763510234e-10,-6.22738101518832e-10)
(9.38026310607561e-13,3.13284287523854e-10,-6.05664467506912e-10)
(-3.63746541455464e-12,5.06728388703893e-10,-5.14731122050557e-10)
(-6.14926805086214e-12,7.50907044143098e-10,-3.75133553572651e-10)
(-8.21493761524773e-12,1.07148708348385e-09,-2.02238466215174e-10)
(0,0,0)
(0,0,0)
(0,0,0)
(0,0,0)
(0,0,0)
(0,0,0)
(3.54195196469801e-12,2.97184481798984e-12,-9.21927809305218e-10)
(7.86507482267725e-12,6.23962252908682e-12,-9.20285176075996e-10)
(1.2271114227935e-11,1.04344885707945e-11,-9.17469445814017e-10)
(1.24566194441001e-11,2.0199627001242e-11,-9.12962609307799e-10)
(9.0797249247051e-12,4.38856564112562e-11,-9.05790341116262e-10)
(5.20232915632489e-12,1.00731273883018e-10,-8.90323631385775e-10)
(2.46822456640265e-12,2.19935127095853e-10,-8.49025271843654e-10)
(-1.54562294887711e-12,3.66877201949185e-10,-7.45151896313927e-10)
(-4.08004617208737e-12,5.77935186328778e-10,-5.77268412884975e-10)
(-6.46225238586442e-12,8.68291663826336e-10,-3.31691117929582e-10)
(0,0,0)
(0,0,0)
(0,0,0)
(0,0,0)
(0,0,0)
(0,0,0)
(4.00441040140399e-12,1.66668319640415e-12,-1.28236886915788e-09)
(8.00111234719243e-12,3.68078555984966e-12,-1.28007716478595e-09)
(1.25908108972773e-11,6.07362315426985e-12,-1.27564152216356e-09)
(1.28367379566889e-11,1.19603524643497e-11,-1.26886130718097e-09)
(9.87002386578925e-12,2.60566414298603e-11,-1.25680289256699e-09)
(7.20443561166338e-12,5.68139554517086e-11,-1.23114506513484e-09)
(3.17516652787354e-12,1.14810435693047e-10,-1.17518432073348e-09)