/*--------------------------------*- C++ -*----------------------------------*\
| =========                 |                                                 |
| \\      /  F ield         | foam-extend: Open Source CFD                    |
|  \\    /   O peration     | Version:     4.0                                |
|   \\  /    A nd           | Web:         http://www.foam-extend.org         |
|    \\/     M anipulation  |                                                 |
\*---------------------------------------------------------------------------*/
FoamFile
{
    version 2.0;
    format ascii;
    class volVectorField;
    location "2690";
    object      E;
}
// * * * * * * * * * * * * * * * * * * * * * * * * * * * * * * * * * * * * * //

dimensions      [0 1 -1 0 0 0 0];

internalField   nonuniform List<vector>
4096
(
(0,0,0)
(0,0,0)
(0,0,0)
(0,0,0)
(0,0,0)
(0,0,0)
(0,0,0)
(0,0,0)
(0,0,0)
(0,0,0)
(0,0,0)
(0,0,0)
(0,0,0)
(0,0,0)
(0,0,0)
(0,0,0)
(0,0,0)
(0,0,0)
(0,0,0)
(0,0,0)
(0,0,0)
(0,0,0)
(0,0,0)
(0,0,0)
(0,0,0)
(0,0,0)
(0,0,0)
(0,0,0)
(0,0,0)
(0,0,0)
(0,0,0)
(0,0,0)
(0,0,0)
(0,0,0)
(0,0,0)
(0,0,0)
(0,0,0)
(0,0,0)
(0,0,0)
(0,0,0)
(0,0,0)
(0,0,0)
(0,0,0)
(0,0,0)
(0,0,0)
(0,0,0)
(0,0,0)
(0,0,0)
(0,0,0)
(0,0,0)
(0,0,0)
(0,0,0)
(0,0,0)
(0,0,0)
(0,0,0)
(0,0,0)
(0,0,0)
(0,0,0)
(0,0,0)
(0,0,0)
(0,0,0)
(0,0,0)
(0,0,0)
(0,0,0)
(0,0,0)
(0,0,0)
(0,0,0)
(0,0,0)
(0,0,0)
(0,0,0)
(0,0,0)
(0,0,0)
(0,0,0)
(0,0,0)
(0,0,0)
(0,0,0)
(0,0,0)
(0,0,0)
(0,0,0)
(0,0,0)
(0,0,0)
(0,0,0)
(0,0,0)
(0,0,0)
(0,0,0)
(0,0,0)
(0,0,0)
(0,0,0)
(0,0,0)
(0,0,0)
(0,0,0)
(0,0,0)
(0,0,0)
(0,0,0)
(0,0,0)
(0,0,0)
(0,0,0)
(0,0,0)
(0,0,0)
(0,0,0)
(0,0,0)
(0,0,0)
(0,0,0)
(0,0,0)
(0,0,0)
(0,0,0)
(0,0,0)
(0,0,0)
(0,0,0)
(0,0,0)
(0,0,0)
(0,0,0)
(0,0,0)
(0,0,0)
(0,0,0)
(0,0,0)
(0,0,0)
(0,0,0)
(0,0,0)
(0,0,0)
(0,0,0)
(0,0,0)
(0,0,0)
(0,0,0)
(0,0,0)
(0,0,0)
(0,0,0)
(0,0,0)
(0,0,0)
(0,0,0)
(0,0,0)
(0,0,0)
(0,0,0)
(0,0,0)
(0,0,0)
(0,0,0)
(0,0,0)
(0,0,0)
(0,0,0)
(0,0,0)
(0,0,0)
(0,0,0)
(0,0,0)
(0,0,0)
(0,0,0)
(0,0,0)
(0,0,0)
(0,0,0)
(0,0,0)
(0,0,0)
(0,0,0)
(0,0,0)
(0,0,0)
(0,0,0)
(0,0,0)
(0,0,0)
(0,0,0)
(0,0,0)
(0,0,0)
(0,0,0)
(0,0,0)
(0,0,0)
(0,0,0)
(0,0,0)
(0,0,0)
(0,0,0)
(0,0,0)
(0,0,0)
(0,0,0)
(0,0,0)
(0,0,0)
(0,0,0)
(0,0,0)
(0,0,0)
(0,0,0)
(0,0,0)
(0,0,0)
(0,0,0)
(0,0,0)
(0,0,0)
(0,0,0)
(0,0,0)
(0,0,0)
(0,0,0)
(0,0,0)
(0,0,0)
(0,0,0)
(0,0,0)
(0,0,0)
(0,0,0)
(0,0,0)
(0,0,0)
(0,0,0)
(0,0,0)
(0,0,0)
(0,0,0)
(0,0,0)
(0,0,0)
(0,0,0)
(0,0,0)
(0,0,0)
(0,0,0)
(0,0,0)
(0,0,0)
(0,0,0)
(0,0,0)
(0,0,0)
(0,0,0)
(0,0,0)
(0,0,0)
(0,0,0)
(0,0,0)
(0,0,0)
(0,0,0)
(0,0,0)
(0,0,0)
(0,0,0)
(0,0,0)
(0,0,0)
(0,0,0)
(0,0,0)
(0,0,0)
(0,0,0)
(0,0,0)
(0,0,0)
(0,0,0)
(0,0,0)
(0,0,0)
(0,0,0)
(0,0,0)
(0,0,0)
(0,0,0)
(0,0,0)
(0,0,0)
(0,0,0)
(0,0,0)
(0,0,0)
(0,0,0)
(0,0,0)
(0,0,0)
(0,0,0)
(0,0,0)
(0,0,0)
(0,0,0)
(0,0,0)
(0,0,0)
(0,0,0)
(0,0,0)
(0,0,0)
(0,0,0)
(0,0,0)
(0,0,0)
(0,0,0)
(0,0,0)
(0,0,0)
(0,0,0)
(0,0,0)
(0,0,0)
(0,0,0)
(0,0,0)
(0,0,0)
(0,0,0)
(0,0,0)
(0,0,0)
(0,0,0)
(0,0,0)
(0,0,0)
(0,0,0)
(0,0,0)
(0,0,0)
(0,0,0)
(0,0,0)
(0,0,0)
(0,0,0)
(0,0,0)
(0,0,0)
(0,0,0)
(0,0,0)
(0,0,0)
(0,0,0)
(0,0,0)
(0,0,0)
(0,0,0)
(0,0,0)
(0,0,0)
(0,0,0)
(0,0,0)
(0,0,0)
(0,0,0)
(0,0,0)
(0,0,0)
(0,0,0)
(0,0,0)
(0,0,0)
(0,0,0)
(0,0,0)
(0,0,0)
(0,0,0)
(0,0,0)
(0,0,0)
(0,0,0)
(0,0,0)
(0,0,0)
(0,0,0)
(0,0,0)
(0,0,0)
(0,0,0)
(0,0,0)
(0,0,0)
(0,0,0)
(0,0,0)
(0,0,0)
(0,0,0)
(0,0,0)
(0,0,0)
(0,0,0)
(0,0,0)
(0,0,0)
(0,0,0)
(0,0,0)
(0,0,0)
(0,0,0)
(0,0,0)
(0,0,0)
(0,0,0)
(0,0,0)
(0,0,0)
(0,0,0)
(0,0,0)
(0,0,0)
(0,0,0)
(0,0,0)
(0,0,0)
(0,0,0)
(0,0,0)
(0,0,0)
(0,0,0)
(0,0,0)
(0,0,0)
(0,0,0)
(0,0,0)
(0,0,0)
(0,0,0)
(0,0,0)
(0,0,0)
(0,0,0)
(0,0,0)
(0,0,0)
(0,0,0)
(0,0,0)
(0,0,0)
(0,0,0)
(0,0,0)
(0,0,0)
(0,0,0)
(0,0,0)
(0,0,0)
(0,0,0)
(0,0,0)
(0,0,0)
(0,0,0)
(0,0,0)
(0,0,0)
(0,0,0)
(0,0,0)
(0,0,0)
(0,0,0)
(0,0,0)
(0,0,0)
(0,0,0)
(0,0,0)
(0,0,0)
(0,0,0)
(0,0,0)
(0,0,0)
(0,0,0)
(0,0,0)
(0,0,0)
(0,0,0)
(0,0,0)
(0,0,0)
(0,0,0)
(0,0,0)
(0,0,0)
(0,0,0)
(0,0,0)
(0,0,0)
(0,0,0)
(0,0,0)
(0,0,0)
(0,0,0)
(0,0,0)
(0,0,0)
(0,0,0)
(0,0,0)
(0,0,0)
(0,0,0)
(0,0,0)
(0,0,0)
(0,0,0)
(0,0,0)
(0,0,0)
(0,0,0)
(0,0,0)
(0,0,0)
(0,0,0)
(0,0,0)
(0,0,0)
(0,0,0)
(0,0,0)
(0,0,0)
(0,0,0)
(0,0,0)
(0,0,0)
(0,0,0)
(0,0,0)
(0,0,0)
(0,0,0)
(0,0,0)
(0,0,0)
(0,0,0)
(0,0,0)
(0,0,0)
(0,0,0)
(0,0,0)
(0,0,0)
(0,0,0)
(0,0,0)
(0,0,0)
(0,0,0)
(0,0,0)
(0,0,0)
(0,0,0)
(0,0,0)
(0,0,0)
(0,0,0)
(0,0,0)
(0,0,0)
(0,0,0)
(0,0,0)
(0,0,0)
(0,0,0)
(0,0,0)
(0,0,0)
(0,0,0)
(0,0,0)
(0,0,0)
(0,0,0)
(0,0,0)
(0,0,0)
(0,0,0)
(0,0,0)
(0,0,0)
(0,0,0)
(0,0,0)
(0,0,0)
(0,0,0)
(0,0,0)
(0,0,0)
(0,0,0)
(0,0,0)
(0,0,0)
(0,0,0)
(0,0,0)
(0,0,0)
(0,0,0)
(0,0,0)
(0,0,0)
(0,0,0)
(0,0,0)
(0,0,0)
(0,0,0)
(0,0,0)
(0,0,0)
(0,0,0)
(0,0,0)
(0,0,0)
(0,0,0)
(0,0,0)
(0,0,0)
(0,0,0)
(0,0,0)
(0,0,0)
(0,0,0)
(0,0,0)
(0,0,0)
(0,0,0)
(0,0,0)
(0,0,0)
(0,0,0)
(0,0,0)
(0,0,0)
(0,0,0)
(0,0,0)
(0,0,0)
(0,0,0)
(0,0,0)
(0,0,0)
(0,0,0)
(0,0,0)
(0,0,0)
(0,0,0)
(0,0,0)
(0,0,0)
(0,0,0)
(0,0,0)
(0,0,0)
(0,0,0)
(0,0,0)
(0,0,0)
(0,0,0)
(0,0,0)
(0,0,0)
(0,0,0)
(0,0,0)
(0,0,0)
(0,0,0)
(0,0,0)
(0,0,0)
(0,0,0)
(0,0,0)
(0,0,0)
(0,0,0)
(0,0,0)
(0,0,0)
(0,0,0)
(0,0,0)
(0,0,0)
(0,0,0)
(0,0,0)
(0,0,0)
(0,0,0)
(0,0,0)
(0,0,0)
(0,0,0)
(0,0,0)
(0,0,0)
(0,0,0)
(0,0,0)
(0,0,0)
(0,0,0)
(0,0,0)
(0,0,0)
(0,0,0)
(0,0,0)
(0,0,0)
(0,0,0)
(0,0,0)
(0,0,0)
(0,0,0)
(0,0,0)
(0,0,0)
(0,0,0)
(0,0,0)
(0,0,0)
(0,0,0)
(0,0,0)
(0,0,0)
(0,0,0)
(0,0,0)
(0,0,0)
(0,0,0)
(0,0,0)
(0,0,0)
(0,0,0)
(0,0,0)
(0,0,0)
(0,0,0)
(0,0,0)
(0,0,0)
(0,0,0)
(0,0,0)
(0,0,0)
(0,0,0)
(0,0,0)
(0,0,0)
(0,0,0)
(0,0,0)
(0,0,0)
(0,0,0)
(0,0,0)
(0,0,0)
(0,0,0)
(0,0,0)
(0,0,0)
(0,0,0)
(0,0,0)
(0,0,0)
(0,0,0)
(0,0,0)
(0,0,0)
(0,0,0)
(0,0,0)
(0,0,0)
(0,0,0)
(0,0,0)
(0,0,0)
(0,0,0)
(0,0,0)
(0,0,0)
(0,0,0)
(0,0,0)
(0,0,0)
(0,0,0)
(0,0,0)
(0,0,0)
(0,0,0)
(0,0,0)
(0,0,0)
(0,0,0)
(0,0,0)
(0,0,0)
(0,0,0)
(0,0,0)
(0,0,0)
(0,0,0)
(0,0,0)
(0,0,0)
(0,0,0)
(0,0,0)
(0,0,0)
(0,0,0)
(0,0,0)
(0,0,0)
(0,0,0)
(0,0,0)
(0,0,0)
(0,0,0)
(0,0,0)
(0,0,0)
(0,0,0)
(0,0,0)
(0,0,0)
(0,0,0)
(0,0,0)
(0,0,0)
(0,0,0)
(0,0,0)
(0,0,0)
(0,0,0)
(0,0,0)
(0,0,0)
(0,0,0)
(0,0,0)
(0,0,0)
(0,0,0)
(0,0,0)
(0,0,0)
(0,0,0)
(0,0,0)
(0,0,0)
(0,0,0)
(0,0,0)
(0,0,0)
(0,0,0)
(0,0,0)
(0,0,0)
(0,0,0)
(0,0,0)
(0,0,0)
(0,0,0)
(0,0,0)
(0,0,0)
(0,0,0)
(0,0,0)
(0,0,0)
(0,0,0)
(0,0,0)
(0,0,0)
(0,0,0)
(0,0,0)
(0,0,0)
(0,0,0)
(0,0,0)
(0,0,0)
(0,0,0)
(0,0,0)
(0,0,0)
(0,0,0)
(0,0,0)
(0,0,0)
(0,0,0)
(0,0,0)
(0,0,0)
(0,0,0)
(0,0,0)
(0,0,0)
(0,0,0)
(0,0,0)
(0,0,0)
(0,0,0)
(0,0,0)
(0,0,0)
(0,0,0)
(0,0,0)
(0,0,0)
(0,0,0)
(0,0,0)
(0,0,0)
(0,0,0)
(0,0,0)
(0,0,0)
(0,0,0)
(0,0,0)
(0,0,0)
(0,0,0)
(0,0,0)
(0,0,0)
(0,0,0)
(0,0,0)
(0,0,0)
(0,0,0)
(0,0,0)
(0,0,0)
(0,0,0)
(0,0,0)
(0,0,0)
(0,0,0)
(0,0,0)
(0,0,0)
(0,0,0)
(0,0,0)
(0,0,0)
(0,0,0)
(0,0,0)
(0,0,0)
(0,0,0)
(0,0,0)
(0,0,0)
(0,0,0)
(0,0,0)
(0,0,0)
(0,0,0)
(0,0,0)
(0,0,0)
(0,0,0)
(0,0,0)
(0,0,0)
(0,0,0)
(0,0,0)
(0,0,0)
(0,0,0)
(0,0,0)
(0,0,0)
(0,0,0)
(0,0,0)
(0,0,0)
(0,0,0)
(0,0,0)
(0,0,0)
(0,0,0)
(0,0,0)
(0,0,0)
(0,0,0)
(0,0,0)
(0,0,0)
(0,0,0)
(0,0,0)
(0,0,0)
(0,0,0)
(0,0,0)
(0,0,0)
(0,0,0)
(0,0,0)
(0,0,0)
(0,0,0)
(0,0,0)
(0,0,0)
(0,0,0)
(0,0,0)
(0,0,0)
(0,0,0)
(0,0,0)
(0,0,0)
(0,0,0)
(0,0,0)
(0,0,0)
(0,0,0)
(0,0,0)
(0,0,0)
(0,0,0)
(0,0,0)
(0,0,0)
(0,0,0)
(0,0,0)
(0,0,0)
(0,0,0)
(0,0,0)
(0,0,0)
(0,0,0)
(0,0,0)
(0,0,0)
(0,0,0)
(0,0,0)
(0,0,0)
(0,0,0)
(0,0,0)
(0,0,0)
(0,0,0)
(0,0,0)
(0,0,0)
(0,0,0)
(0,0,0)
(0,0,0)
(0,0,0)
(0,0,0)
(0,0,0)
(0,0,0)
(0,0,0)
(0,0,0)
(0,0,0)
(0,0,0)
(0,0,0)
(0,0,0)
(0,0,0)
(0,0,0)
(0,0,0)
(0,0,0)
(0,0,0)
(-203312.277041815,108133.589018876,95178.6880229381)
(-215035.324140551,103647.429885165,206566.582278324)
(-242199.2263558,94330.0611799285,354435.747454193)
(-293474.436168086,79719.9616350357,568190.221987253)
(-385916.785311258,60026.3066408943,894080.700657619)
(-551783.055239675,37374.5226706878,1408489.23322661)
(-852135.788281324,16820.5018927624,2243804.51961519)
(-1394899.72647029,4197.52079631442,3634506.72528919)
(-2300563.98490383,16.2135087741096,5935054.49668422)
(-3205353.36513518,-336.085918693114,9140743.94773817)
(0,0,0)
(0,0,0)
(0,0,0)
(0,0,0)
(0,0,0)
(0,0,0)
(-215078.643265642,232464.406096744,90747.8261877723)
(-226924.306757233,224006.302394124,197313.26043605)
(-254528.660273272,206301.852922045,339870.128967203)
(-306992.77147546,178080.573800826,548502.288276876)
(-401974.545002733,139110.074656781,871393.065263717)
(-571834.529914079,92767.6365008706,1387834.4813476)
(-875494.651750793,48987.3393818043,2231162.29560935)
(-1416207.29999861,21265.7059821281,3630301.41042209)
(-2314780.8806986,10403.7846991513,5934694.71993036)
(-3211996.16564643,5312.02625371812,9141042.77340434)
(0,0,0)
(0,0,0)
(0,0,0)
(0,0,0)
(0,0,0)
(0,0,0)
(-241951.523001116,392038.862099803,82377.0669980573)
(-253993.424430671,380682.60735416,179694.186468695)
(-282444.637420414,356686.348028182,311754.328782977)
(-337522.345765577,317747.834894237,509609.413455146)
(-438576.687721735,262244.792765883,825051.383067768)
(-618980.582968208,192868.158705593,1343931.44383125)
(-933096.795371556,122680.185905573,2203335.39267905)
(-1469263.39424255,74526.9516647569,3619337.54123893)
(-2348962.75815148,49143.1117657999,5929560.97232381)
(-3227479.60266111,26649.3204281825,9135703.28081048)
(0,0,0)
(0,0,0)
(0,0,0)
(0,0,0)
(0,0,0)
(0,0,0)
(-291978.585990143,612881.427624299,71136.0204656472)
(-304206.802245991,600228.625867934,155796.804197865)
(-333743.164324025,573333.236904055,272893.079646008)
(-392625.017739607,529116.525052478,454149.407227369)
(-503695.744993748,464374.971281092,755714.973705918)
(-704335.101645188,379233.698965181,1273684.53509151)
(-1043389.73949758,284715.896431293,2155038.56406336)
(-1571849.72976579,207614.150893341,3593801.09460054)
(-2411540.68190786,147569.391095181,5906915.49717896)
(-3254765.20800695,79434.9683740193,9108895.05724023)
(0,0,0)
(0,0,0)
(0,0,0)
(0,0,0)
(0,0,0)
(0,0,0)
(-381591.928864108,935889.243030743,58584.1134576586)
(-393775.810499631,923599.295981893,128989.253843327)
(-423893.074689464,897469.3951522,228746.170284647)
(-485957.824315472,854393.513855666,389427.00579693)
(-607361.226573723,790566.023918008,670597.179733734)
(-833074.818539906,703769.635248667,1179136.06199013)
(-1211365.99654128,597414.70007942,2077803.25488329)
(-1728009.68716869,479889.159847729,3533537.93309762)
(-2502444.39912733,345017.947974109,5838533.77534614)
(-3294187.74814222,182905.666699882,9029250.82516247)
(0,0,0)
(0,0,0)
(0,0,0)
(0,0,0)
(0,0,0)
(0,0,0)
(-543362.966334052,1432898.73993503,46353.4694297765)
(-554906.227899168,1421962.73477523,102896.258535598)
(-584035.963460926,1398690.39486588,185711.222282842)
(-645498.09745579,1359971.70223894,325631.131355345)
(-768174.106162871,1300570.24015026,583801.02128597)
(-998182.858850545,1213017.65088744,1072735.86449775)
(-1377656.09539363,1087691.19259818,1960115.46737261)
(-1870861.16618793,912432.284796441,3398433.50861184)
(-2600917.55335971,668138.771093494,5676230.23885221)
(-3343800.10173494,356686.695510411,8846249.31177655)
(0,0,0)
(0,0,0)
(0,0,0)
(0,0,0)
(0,0,0)
(0,0,0)
(-840333.07153725,2237803.77556653,35428.0359057447)
(-850540.687664178,2228350.45167016,79581.0066750066)
(-876678.849988864,2208085.34281611,146864.908713645)
(-932819.460391673,2173513.5548107,266142.516533568)
(-1046788.72528315,2117277.46960373,496224.012363243)
(-1262913.87064777,2024826.06933128,947329.464567182)
(-1619052.79534736,1869364.84097692,1784708.61153581)
(-2067521.86419588,1610646.86625712,3154015.894271)
(-2747674.61554135,1205120.57709495,5364708.70381084)
(-3424751.75589369,656624.173472723,8489522.98174232)
(0,0,0)
(0,0,0)
(0,0,0)
(0,0,0)
(0,0,0)
(0,0,0)
(-1383387.29912395,3595193.51842921,25997.5562612679)
(-1391566.06394994,3586614.75804407,59299.3138372978)
(-1412630.30377532,3567773.06061202,112241.89981672)
(-1458283.51526389,3534153.81555838,209885.154332906)
(-1551959.54196928,3475336.48186005,403785.684045861)
(-1731635.14649539,3368388.3221425,791858.577730014)
(-2029872.01234662,3165099.76449333,1525995.66656019)
(-2392897.72934014,2780981.98738212,2748558.27477535)
(-3014064.9667984,2151453.11436249,4816290.70430623)
(-3579554.09620482,1219486.15764989,7832982.81633382)
(0,0,0)
(0,0,0)
(0,0,0)
(0,0,0)
(0,0,0)
(0,0,0)
(-2292715.69216053,5870506.52862305,17402.6819666611)
(-2298339.32514744,5861928.45630978,40428.3088483911)
(-2312666.06767698,5842330.84696344,78536.5901738924)
(-2343355.25815793,5805062.84997518,150982.813915016)
(-2405231.36694678,5734753.93059973,296796.732122115)
(-2521504.95532673,5598118.644676,588571.364915345)
(-2716714.36928336,5328379.32228739,1142006.17640466)
(-3006687.35729542,4810437.95250304,2119237.5685792)
(-3505440.57670151,3891653.23934909,3884478.02029401)
(-3849561.26300403,2339872.93677325,6613652.50417469)
(0,0,0)
(0,0,0)
(0,0,0)
(0,0,0)
(0,0,0)
(0,0,0)
(-3201724.17781766,9063403.68144784,8827.02499288819)
(-3204568.85041821,9054519.43063303,20804.9010878601)
(-3211697.36418989,9033656.12017911,41176.9920621213)
(-3226763.94845833,8992465.72614395,80538.0643517233)
(-3256722.53567345,8911996.57825041,160017.952374515)
(-3312710.11761356,8752097.20145611,318749.513207944)
(-3410391.20093967,8433346.70235109,624173.334083878)
(-3574986.71642679,7808956.46651991,1200641.53649376)
(-3848666.94368239,6608022.82945466,2332938.89007052)
(-3875953.28570769,4274667.57817628,4274097.53437521)
(0,0,0)
(0,0,0)
(0,0,0)
(0,0,0)
(0,0,0)
(0,0,0)
(0,0,0)
(0,0,0)
(0,0,0)
(0,0,0)
(0,0,0)
(0,0,0)
(0,0,0)
(0,0,0)
(0,0,0)
(0,0,0)
(0,0,0)
(0,0,0)
(0,0,0)
(0,0,0)
(0,0,0)
(0,0,0)
(0,0,0)
(0,0,0)
(0,0,0)
(0,0,0)
(0,0,0)
(0,0,0)
(0,0,0)
(0,0,0)
(0,0,0)
(0,0,0)
(0,0,0)
(0,0,0)
(0,0,0)
(0,0,0)
(0,0,0)
(0,0,0)
(0,0,0)
(0,0,0)
(0,0,0)
(0,0,0)
(0,0,0)
(0,0,0)
(0,0,0)
(0,0,0)
(0,0,0)
(0,0,0)
(0,0,0)
(0,0,0)
(0,0,0)
(0,0,0)
(0,0,0)
(0,0,0)
(0,0,0)
(0,0,0)
(0,0,0)
(0,0,0)
(0,0,0)
(0,0,0)
(0,0,0)
(0,0,0)
(0,0,0)
(0,0,0)
(0,0,0)
(0,0,0)
(0,0,0)
(0,0,0)
(0,0,0)
(0,0,0)
(0,0,0)
(0,0,0)
(0,0,0)
(0,0,0)
(0,0,0)
(0,0,0)
(0,0,0)
(0,0,0)
(0,0,0)
(0,0,0)
(0,0,0)
(0,0,0)
(0,0,0)
(0,0,0)
(0,0,0)
(0,0,0)
(0,0,0)
(0,0,0)
(0,0,0)
(0,0,0)
(0,0,0)
(0,0,0)
(0,0,0)
(0,0,0)
(0,0,0)
(0,0,0)
(0,0,0)
(0,0,0)
(0,0,0)
(0,0,0)
(0,0,0)
(0,0,0)
(30059984.1647218,96384.6427239064,83517.8665371852)
(30040315.3111995,91802.7863852027,179563.395836665)
(29995175.3299818,82060.5262966761,303327.264226997)
(29910917.3957925,66242.244605669,475892.138685405)
(29760942.0468841,43963.34373122,728268.91378354)
(29494204.5783677,17314.4162861297,1108165.81491458)
(29004797.1018581,-6547.6482725989,1700979.52407234)
(28037658.8957653,-17107.4152500696,2728727.26811151)
(25855456.4916796,-14196.8457512043,5030102.58830409)
(19929157.6589007,-6972.73468015566,12345763.249973)
(0,0,0)
(0,0,0)
(0,0,0)
(0,0,0)
(0,0,0)
(0,0,0)
(30039914.1827364,205630.262104537,78960.5056420471)
(30020207.8406446,196971.005091746,169859.090558422)
(29974662.6694954,178379.097485773,287548.140625276)
(29888833.5714162,147535.8164707,453627.176893248)
(29734751.5625555,102476.778410924,701586.585680093)
(29460493.6832357,45589.3019288486,1084182.43791229)
(28963594.0466581,-8636.85176049053,1690381.89401604)
(28000483.7322251,-31799.8100015113,2731582.20756838)
(25832345.2188808,-23792.9289962425,5037251.1422586)
(19919034.1187288,-10180.4766188541,12352627.5508466)
(0,0,0)
(0,0,0)
(0,0,0)
(0,0,0)
(0,0,0)
(0,0,0)
(29994494.9750862,342029.523438416,70353.1916033312)
(29974736.2603471,330471.124327824,151322.338614171)
(29928331.2925235,305363.492376375,256760.964804363)
(29838759.4976382,262616.733683282,408597.155212755)
(29673975.1311006,197069.665417928,644651.400408163)
(29377212.2970058,107459.08125648,1029787.69213136)
(28851835.2581949,12330.8046180484,1667086.93321108)
(27897882.8066588,-28106.68229307,2739446.55562607)
(25772653.0175416,-13488.9078658561,5050725.70982716)
(19894272.5195133,-683.402657835606,12362675.4647165)
(0,0,0)
(0,0,0)
(0,0,0)
(0,0,0)
(0,0,0)
(0,0,0)
(29911118.5488594,523242.530813074,58888.8088004488)
(29891405.9822859,510642.007212919,126304.092408143)
(29843898.0259027,483151.348276922,214073.997305518)
(29748446.1964131,435736.496806368,343081.971054456)
(29563971.5464134,360638.126442707,555045.169647302)
(29216347.9908595,250454.381230342,934565.728193432)
(28603538.0787172,116698.256148503,1626469.40947291)
(27664451.2394196,51377.0813921186,2753883.62762709)
(25652130.4747625,56578.2616700595,5063344.2524454)
(19848004.2058798,39935.6844141674,12363154.7025115)
(0,0,0)
(0,0,0)
(0,0,0)
(0,0,0)
(0,0,0)
(0,0,0)
(29764345.3334766,774112.358619726,46391.8608773445)
(29745106.121482,762433.324527912,98917.5626053642)
(29697381.6707471,737260.780984693,166732.335485769)
(29596933.9769117,694783.567094944,267992.41499455)
(29389947.0680651,629675.948692573,444845.249130604)
(28966048.2612945,538604.410262974,800771.091288285)
(28157195.089756,431075.684161626,1561031.52800261)
(27231733.3291271,336964.195661653,2758900.34846198)
(25463284.6105131,246459.049359763,5046489.5021565)
(19779201.5259618,133228.366784645,12323006.4967066)
(0,0,0)
(0,0,0)
(0,0,0)
(0,0,0)
(0,0,0)
(0,0,0)
(29503205.0344531,1135972.3793345,34770.9295226305)
(29485338.3747904,1126353.05935429,73805.5430313502)
(29439896.2169561,1106030.89745389,124302.197169845)
(29341270.2669861,1072608.01536994,202908.335477789)
(29131913.3644112,1021936.96404322,353758.80057781)
(28695876.8079627,948281.347978398,693221.147073771)
(27876752.7924656,846265.232249672,1466821.66215123)
(26992179.0580055,715712.04899147,2668232.53565263)
(25302559.9842898,521324.241058645,4933088.75732891)
(19700359.6839609,275703.78361293,12189652.5058294)
(0,0,0)
(0,0,0)
(0,0,0)
(0,0,0)
(0,0,0)
(0,0,0)
(29018927.5550826,1694731.35784007,25179.345899281)
(29003387.3983821,1687333.91683771,53469.3533942482)
(28963129.9914815,1672118.37884631,90771.9815562425)
(28873608.6384326,1647992.86655425,152157.982572334)
(28678388.5330896,1612047.69532918,280068.943938332)
(28261426.929614,1556054.35717397,591154.085505553)
(27466948.2347726,1458448.14790923,1336169.09075063)
(26668670.8514856,1285147.49127781,2473739.88380755)
(25064566.2977731,938648.91106796,4687373.25150836)
(19565837.9066204,501803.591873829,11913882.7317581)
(0,0,0)
(0,0,0)
(0,0,0)
(0,0,0)
(0,0,0)
(0,0,0)
(28050972.7302453,2685779.4532156,17790.8262799145)
(28038688.7681328,2679817.26303219,38251.5990273023)
(28006616.7768597,2667716.34631585,66605.5019473891)
(27934309.9064547,2649008.82038058,116195.077427071)
(27773453.2632818,2621943.90023703,224085.018292673)
(27419747.8042282,2578386.21121067,493569.164557232)
(26724353.0529405,2478106.31302388,1162884.88518018)
(26203973.7055134,2167074.50614905,2127285.38647991)
(24584483.894242,1660007.78610328,4250576.60142889)
(19254420.5907438,949449.333733108,11412155.1236456)
(0,0,0)
(0,0,0)
(0,0,0)
(0,0,0)
(0,0,0)
(0,0,0)
(25863147.4542859,4961320.28055829,11794.9772356383)
(25854825.1280911,4955541.54894836,26105.189105684)
(25833385.2514356,4943140.94657994,47828.220753635)
(25786115.6425279,4921472.13663017,89092.9548428216)
(25685454.7190281,4883043.1786535,180506.541476064)
(25480655.1948975,4806636.842053,393294.711434315)
(25111542.761941,4634407.24815554,851935.596103078)
(24593225.8618359,4241902.15601308,1620393.67813253)
(23129746.7679709,3548216.39131769,3540196.67927043)
(18307054.9493795,2313337.70492588,10462891.0467188)
(0,0,0)
(0,0,0)
(0,0,0)
(0,0,0)
(0,0,0)
(0,0,0)
(19931964.7714905,12264801.5592121,6028.72306255223)
(19927811.1181267,12258709.098057,13680.1564336013)
(19917288.2809038,12244945.1923037,26089.2166409686)
(19894600.0812545,12218812.3656514,50583.9089316461)
(19847803.079347,12168277.0830213,104023.34056818)
(19755790.8515638,12064324.85547,221033.308998599)
(19585454.1206663,11843252.4943698,459541.692203076)
(19259250.3341133,11383489.9866027,926915.762098143)
(18307783.882559,10456300.8283187,2305579.44988046)
(14885901.1496901,8150375.07426718,8149886.59616597)
(0,0,0)
(0,0,0)
(0,0,0)
(0,0,0)
(0,0,0)
(0,0,0)
(0,0,0)
(0,0,0)
(0,0,0)
(0,0,0)
(0,0,0)
(0,0,0)
(0,0,0)
(0,0,0)
(0,0,0)
(0,0,0)
(0,0,0)
(0,0,0)
(0,0,0)
(0,0,0)
(0,0,0)
(0,0,0)
(0,0,0)
(0,0,0)
(0,0,0)
(0,0,0)
(0,0,0)
(0,0,0)
(0,0,0)
(0,0,0)
(0,0,0)
(0,0,0)
(0,0,0)
(0,0,0)
(0,0,0)
(0,0,0)
(0,0,0)
(0,0,0)
(0,0,0)
(0,0,0)
(0,0,0)
(0,0,0)
(0,0,0)
(0,0,0)
(0,0,0)
(0,0,0)
(0,0,0)
(0,0,0)
(0,0,0)
(0,0,0)
(0,0,0)
(0,0,0)
(0,0,0)
(0,0,0)
(0,0,0)
(0,0,0)
(0,0,0)
(0,0,0)
(0,0,0)
(0,0,0)
(0,0,0)
(0,0,0)
(0,0,0)
(0,0,0)
(0,0,0)
(0,0,0)
(0,0,0)
(0,0,0)
(0,0,0)
(0,0,0)
(0,0,0)
(0,0,0)
(0,0,0)
(0,0,0)
(0,0,0)
(0,0,0)
(0,0,0)
(0,0,0)
(0,0,0)
(0,0,0)
(0,0,0)
(0,0,0)
(0,0,0)
(0,0,0)
(0,0,0)
(0,0,0)
(0,0,0)
(0,0,0)
(0,0,0)
(0,0,0)
(0,0,0)
(0,0,0)
(0,0,0)
(0,0,0)
(0,0,0)
(0,0,0)
(0,0,0)
(0,0,0)
(0,0,0)
(0,0,0)
(0,0,0)
(0,0,0)
(-523581.957830968,76402.8955848359,63964.2759432268)
(-545283.203537298,71765.1447502742,134598.694905014)
(-594246.761196139,61614.4060742468,219207.4289841)
(-683305.630663324,44218.4708673107,326013.033547947)
(-835633.655744914,17838.3400743506,461551.44507791)
(-1089866.7566012,-16318.0581116723,618741.887133922)
(-1505728.58299963,-47710.7686238997,733779.38959093)
(-2163857.58411567,-54240.6400635965,546337.558510804)
(-3107484.74502895,-37278.3025833101,-896641.853222122)
(-3809223.70797231,-17073.0857520675,-7584386.35162158)
(0,0,0)
(0,0,0)
(0,0,0)
(0,0,0)
(0,0,0)
(0,0,0)
(-546541.92828481,160303.897225646,59356.1583556774)
(-567869.648506153,151545.992417367,124453.848814586)
(-616321.438187263,132061.237402484,201792.174144386)
(-705450.282621301,97489.925662778,299605.622361758)
(-860124.082936403,41760.6098069286,427360.047096315)
(-1121290.08560785,-37617.7047435499,587244.511547053)
(-1546891.86934347,-120354.054770506,727174.762670498)
(-2198635.90745306,-134366.173013088,563220.984273499)
(-3124923.58156893,-83461.8306681309,-876525.638216519)
(-3815388.45870526,-34929.1165157107,-7567445.9810434)
(0,0,0)
(0,0,0)
(0,0,0)
(0,0,0)
(0,0,0)
(0,0,0)
(-597712.071017093,258650.977566288,50661.0147381243)
(-618330.736625749,247091.947926125,104983.105177525)
(-665888.955851056,220878.571835217,167187.068094637)
(-755860.256071581,172289.434210074,243808.362232381)
(-918580.455547911,87060.6498042589,347864.957858806)
(-1206694.4622314,-53386.2459197517,504341.307247375)
(-1684418.23928679,-235970.747893081,713012.546826919)
(-2319049.79185678,-261572.173309165,613952.194613805)
(-3177809.09637996,-134056.585434273,-828189.887723031)
(-3832344.25522561,-46987.7855990529,-7532713.39492556)
(0,0,0)
(0,0,0)
(0,0,0)
(0,0,0)
(0,0,0)
(0,0,0)
(-689043.358737479,376420.419058344,39193.5150801701)
(-708582.187531763,364274.418928088,78800.2628711927)
(-754785.497061044,336573.106398475,118590.300247029)
(-846608.415650511,284177.871466237,158557.524029744)
(-1027497.89512373,186550.378456362,207338.285890008)
(-1394672.7683996,138.468068260603,321635.380136435)
(-2111545.90305419,-329660.183509735,687209.846499758)
(-2712938.77732408,-381398.549068218,741227.287977749)
(-3310151.02483385,-132346.020247468,-741400.72863731)
(-3868659.02651,-28922.0123551765,-7486002.22051618)
(0,0,0)
(0,0,0)
(0,0,0)
(0,0,0)
(0,0,0)
(0,0,0)
(-842468.304579012,512923.825765436,27111.2803238121)
(-860394.81496296,502564.046487898,51123.6381843126)
(-904011.649948457,479677.746480522,66213.3677730779)
(-995850.656650153,439051.957344497,60924.9644321416)
(-1198196.71301776,371553.114737893,20867.0582087325)
(-1716283.78854879,268349.817962122,-8211.19286655202)
(-3409827.34776263,150590.742625075,635361.367492503)
(-4044970.55126017,97364.1204649421,990103.627321968)
(-3569607.68790114,85663.4270209391,-638212.472556876)
(-3928166.60221862,54347.5490932789,-7457312.85684952)
(0,0,0)
(0,0,0)
(0,0,0)
(0,0,0)
(0,0,0)
(0,0,0)
(-1095413.67185387,651558.075300858,16785.5057470009)
(-1111053.74123371,644280.01450564,28262.70272872)
(-1150112.53750885,629158.70849882,25591.5441506494)
(-1235541.53873211,604834.826138246,-6578.46994971317)
(-1432279.56896048,568340.055639414,-82371.428504287)
(-1949127.29764088,513782.422036022,-125998.877999235)
(-3560333.95510715,436435.309918304,582044.35125554)
(-4142037.03809847,392136.646479314,978288.970320428)
(-3690228.0985529,283234.079834991,-669692.550675663)
(-3987537.96191492,141129.082843615,-7511775.38957478)
(0,0,0)
(0,0,0)
(0,0,0)
(0,0,0)
(0,0,0)
(0,0,0)
(-1508844.1527684,726604.065161259,9526.76696588577)
(-1521698.35400097,722555.633183181,13137.9496467441)
(-1554542.33507347,715563.681242981,1206.35243273697)
(-1629024.68273202,708609.864272556,-43134.3155616182)
(-1809696.6188926,707045.1394051,-136953.198369803)
(-2315906.78329552,714329.128932524,-203365.143381339)
(-3996706.80718057,715774.640227522,537751.617238024)
(-4534324.64571607,820326.755931516,869358.053962797)
(-3872626.22697456,458465.743172105,-811880.035651169)
(-4085506.75350199,190342.729008003,-7652947.97271792)
(0,0,0)
(0,0,0)
(0,0,0)
(0,0,0)
(0,0,0)
(0,0,0)
(-2168800.32643987,497725.700220348,5452.47060137414)
(-2178484.77018103,495840.538603814,6142.15246997654)
(-2203565.01821436,494422.128420136,-5733.45065775108)
(-2261998.24757103,500689.62230807,-44704.0056921485)
(-2411532.59659739,533787.929948718,-129659.887381111)
(-2876035.4619222,639118.488313973,-201864.931636981)
(-4712363.98820337,865052.72557371,642375.073136006)
(-3840168.63385591,556086.435651464,507558.781760773)
(-4017820.41467598,205094.873960922,-1079964.9911347)
(-4237172.83354072,1989.84586043542,-7843217.63472721)
(0,0,0)
(0,0,0)
(0,0,0)
(0,0,0)
(0,0,0)
(0,0,0)
(-3115471.37317604,-970344.322525644,3489.89918316589)
(-3121781.49356927,-971909.608253787,4647.7166763699)
(-3137866.77083388,-973382.911106836,505.827448198156)
(-3173779.48432372,-970502.938463775,-11605.4359529572)
(-3256141.75010674,-955092.330427277,-24327.6574667149)
(-3453126.29963826,-918765.457135857,24138.8314940329)
(-3883700.22421098,-892285.012901351,333520.605096314)
(-4024479.97797374,-1092622.78276798,156736.71230058)
(-4394534.23396229,-1274189.28405329,-1282897.07877669)
(-4463895.65432956,-1108092.91114984,-7845062.66908212)
(0,0,0)
(0,0,0)
(0,0,0)
(0,0,0)
(0,0,0)
(0,0,0)
(-3815320.47712689,-7668166.84495656,1908.82002369553)
(-3818389.56699417,-7670134.87552795,3135.82139405923)
(-3826095.78294502,-7673407.62064349,3345.643754837)
(-3842677.37325078,-7676850.51281793,3771.7215895332)
(-3878072.03997934,-7680622.76405956,11978.3235234522)
(-3952272.50750468,-7692593.39621461,50670.6706459591)
(-4089326.39487231,-7743350.44455431,133317.666812827)
(-4241738.42994711,-7876871.07937476,-24644.223544771)
(-4465254.35001944,-7852447.09940818,-1116547.12663616)
(-4309076.19815111,-6736204.07786849,-6736657.563101)
(0,0,0)
(0,0,0)
(0,0,0)
(0,0,0)
(0,0,0)
(0,0,0)
(0,0,0)
(0,0,0)
(0,0,0)
(0,0,0)
(0,0,0)
(0,0,0)
(0,0,0)
(0,0,0)
(0,0,0)
(0,0,0)
(0,0,0)
(0,0,0)
(0,0,0)
(0,0,0)
(0,0,0)
(0,0,0)
(0,0,0)
(0,0,0)
(0,0,0)
(0,0,0)
(0,0,0)
(0,0,0)
(0,0,0)
(0,0,0)
(0,0,0)
(0,0,0)
(0,0,0)
(0,0,0)
(0,0,0)
(0,0,0)
(0,0,0)
(0,0,0)
(0,0,0)
(0,0,0)
(0,0,0)
(0,0,0)
(0,0,0)
(0,0,0)
(0,0,0)
(0,0,0)
(0,0,0)
(0,0,0)
(0,0,0)
(0,0,0)
(0,0,0)
(0,0,0)
(0,0,0)
(0,0,0)
(0,0,0)
(0,0,0)
(0,0,0)
(0,0,0)
(0,0,0)
(0,0,0)
(0,0,0)
(0,0,0)
(0,0,0)
(0,0,0)
(0,0,0)
(0,0,0)
(0,0,0)
(0,0,0)
(0,0,0)
(0,0,0)
(0,0,0)
(0,0,0)
(0,0,0)
(0,0,0)
(0,0,0)
(0,0,0)
(0,0,0)
(0,0,0)
(0,0,0)
(0,0,0)
(0,0,0)
(0,0,0)
(0,0,0)
(0,0,0)
(0,0,0)
(0,0,0)
(0,0,0)
(0,0,0)
(0,0,0)
(0,0,0)
(0,0,0)
(0,0,0)
(0,0,0)
(0,0,0)
(0,0,0)
(0,0,0)
(0,0,0)
(0,0,0)
(0,0,0)
(0,0,0)
(0,0,0)
(0,0,0)
(-619461.978492079,53495.9281818778,42384.0924792349)
(-637860.564009541,49230.6613114783,85730.7916400034)
(-678321.274709145,39593.4264095021,130211.87874351)
(-748885.087578746,22126.3279083998,173665.007750529)
(-862689.839829626,-6554.02351260238,207275.215347841)
(-1037802.01762846,-47624.7134796481,202835.189854755)
(-1289626.69540243,-88810.0197671223,75543.3220246696)
(-1601846.49137568,-88978.1115442383,-397489.659171089)
(-1851530.80837354,-54688.1651119697,-1598755.4307145)
(-1608920.15624567,-23211.6228966632,-3775847.35954446)
(0,0,0)
(0,0,0)
(0,0,0)
(0,0,0)
(0,0,0)
(0,0,0)
(-640350.11082675,109165.923516271,38138.1872075469)
(-657694.047372931,101129.350096661,76063.8972891409)
(-695884.839628311,82549.0071282488,112671.718011445)
(-762696.018346897,47138.996297015,144904.785348421)
(-871349.763256701,-16574.9662830816,166151.408439195)
(-1041433.6126078,-122889.295875253,161559.517834752)
(-1291613.13911809,-257783.145128451,75253.9129707019)
(-1594333.62740862,-254693.281298111,-363333.197319868)
(-1839282.6852345,-136270.738920437,-1567391.51984582)
(-1601382.94805853,-51852.0787298189,-3752756.57465946)
(0,0,0)
(0,0,0)
(0,0,0)
(0,0,0)
(0,0,0)
(0,0,0)
(-685951.027608205,167263.997283581,30140.882823807)
(-701307.076934419,156796.656832554,57449.9163965818)
(-735039.097752546,131964.996089503,77184.0693368164)
(-794158.753458462,81555.3447409296,81066.2182797828)
(-891995.814703264,-21789.8860057312,59696.4971577829)
(-1055140.62811093,-241267.295096452,26520.6622584953)
(-1330863.93392224,-663004.403865426,78187.6156309143)
(-1595048.70756283,-655396.368948503,-245110.38101266)
(-1809639.14374201,-266360.106728247,-1483190.96584279)
(-1583007.2386979,-83292.6492381296,-3701087.41186221)
(0,0,0)
(0,0,0)
(0,0,0)
(0,0,0)
(0,0,0)
(0,0,0)
(-764468.774716557,222947.436988117,19741.9762745502)
(-777052.746351062,212403.872144215,32605.3197821937)
(-804256.109773287,187300.886009215,26740.0425747272)
(-850880.53677548,134917.292139154,-22349.7836985277)
(-927586.995084355,15854.1303392045,-159904.700082837)
(-1079085.76100575,-321427.327406237,-395331.675166902)
(-1627649.19652235,-1627862.94349888,85630.1579347085)
(-1713039.23050981,-1713350.49507497,143684.737246897)
(-1740617.91091201,-391776.156867952,-1300432.32653524)
(-1545898.08729346,-88433.7127440953,-3618052.20224587)
(0,0,0)
(0,0,0)
(0,0,0)
(0,0,0)
(0,0,0)
(0,0,0)
(-888691.07097451,259944.363228086,9225.8401555257)
(-898019.136698112,251797.725561006,7456.30847388797)
(-917042.347932734,233470.839923721,-25682.9474563366)
(-944477.441506746,199304.428745585,-141443.299206174)
(-963920.181872439,137402.793817995,-497268.49383029)
(-868568.919966,35421.3549516924,-1701832.04477102)
(4.94674745985462e-05,1.25318943865363e-05,-3.21517422537246e-05)