/*--------------------------------*- C++ -*----------------------------------*\
| =========                 |                                                 |
| \\      /  F ield         | foam-extend: Open Source Cstd::filesystem::create_directory();FD                    |
|  \\    /   O peration     | Version:     4.0                                |
|   \\  /    A nd           | Web:         http://www.foam-extend.org         |
|    \\/     M anipulation  |                                                 |
\*---------------------------------------------------------------------------*/
FoamFile
{
    version 2.0;
    format ascii;
    class volVectorField;
    location "Data/2354";
    object      H;
}
// * * * * * * * * * * * * * * * * * * * * * * * * * * * * * * * * * * * * * //

dimensions      [0 1 -1 0 0 0 0];

internalField   nonuniform List<vector>
4096
(
(0,0,0)
(0,0,0)
(0,0,0)
(0,0,0)
(0,0,0)
(0,0,0)
(0,0,0)
(0,0,0)
(0,0,0)
(0,0,0)
(0,0,0)
(0,0,0)
(0,0,0)
(0,0,0)
(0,0,0)
(0,0,0)
(0,0,0)
(0,0,0)
(0,0,0)
(0,0,0)
(0,0,0)
(0,0,0)
(0,0,0)
(0,0,0)
(0,0,0)
(0,0,0)
(0,0,0)
(0,0,0)
(0,0,0)
(0,0,0)
(0,0,0)
(0,0,0)
(0,0,0)
(0,0,0)
(0,0,0)
(0,0,0)
(0,0,0)
(0,0,0)
(0,0,0)
(0,0,0)
(0,0,0)
(0,0,0)
(0,0,0)
(0,0,0)
(0,0,0)
(0,0,0)
(0,0,0)
(0,0,0)
(0,0,0)
(0,0,0)
(0,0,0)
(0,0,0)
(0,0,0)
(0,0,0)
(0,0,0)
(0,0,0)
(0,0,0)
(0,0,0)
(0,0,0)
(0,0,0)
(0,0,0)
(0,0,0)
(0,0,0)
(0,0,0)
(0,0,0)
(0,0,0)
(0,0,0)
(0,0,0)
(0,0,0)
(0,0,0)
(0,0,0)
(0,0,0)
(0,0,0)
(0,0,0)
(0,0,0)
(0,0,0)
(0,0,0)
(0,0,0)
(0,0,0)
(0,0,0)
(0,0,0)
(0,0,0)
(0,0,0)
(0,0,0)
(0,0,0)
(0,0,0)
(0,0,0)
(0,0,0)
(0,0,0)
(0,0,0)
(0,0,0)
(0,0,0)
(0,0,0)
(0,0,0)
(0,0,0)
(0,0,0)
(0,0,0)
(0,0,0)
(0,0,0)
(0,0,0)
(0,0,0)
(0,0,0)
(0,0,0)
(0,0,0)
(0,0,0)
(0,0,0)
(0,0,0)
(0,0,0)
(0,0,0)
(0,0,0)
(0,0,0)
(0,0,0)
(0,0,0)
(0,0,0)
(0,0,0)
(0,0,0)
(0,0,0)
(0,0,0)
(0,0,0)
(0,0,0)
(0,0,0)
(0,0,0)
(0,0,0)
(0,0,0)
(0,0,0)
(0,0,0)
(0,0,0)
(0,0,0)
(0,0,0)
(0,0,0)
(0,0,0)
(0,0,0)
(0,0,0)
(0,0,0)
(0,0,0)
(0,0,0)
(0,0,0)
(0,0,0)
(0,0,0)
(0,0,0)
(0,0,0)
(0,0,0)
(0,0,0)
(0,0,0)
(0,0,0)
(0,0,0)
(0,0,0)
(0,0,0)
(0,0,0)
(0,0,0)
(0,0,0)
(0,0,0)
(0,0,0)
(0,0,0)
(0,0,0)
(0,0,0)
(0,0,0)
(0,0,0)
(0,0,0)
(0,0,0)
(0,0,0)
(0,0,0)
(0,0,0)
(0,0,0)
(0,0,0)
(0,0,0)
(0,0,0)
(0,0,0)
(0,0,0)
(0,0,0)
(0,0,0)
(0,0,0)
(0,0,0)
(0,0,0)
(0,0,0)
(0,0,0)
(0,0,0)
(0,0,0)
(0,0,0)
(0,0,0)
(0,0,0)
(0,0,0)
(0,0,0)
(0,0,0)
(0,0,0)
(0,0,0)
(0,0,0)
(0,0,0)
(0,0,0)
(0,0,0)
(0,0,0)
(0,0,0)
(0,0,0)
(0,0,0)
(0,0,0)
(0,0,0)
(0,0,0)
(0,0,0)
(0,0,0)
(0,0,0)
(0,0,0)
(0,0,0)
(0,0,0)
(0,0,0)
(0,0,0)
(0,0,0)
(0,0,0)
(0,0,0)
(0,0,0)
(0,0,0)
(0,0,0)
(0,0,0)
(0,0,0)
(0,0,0)
(0,0,0)
(0,0,0)
(0,0,0)
(0,0,0)
(0,0,0)
(0,0,0)
(0,0,0)
(0,0,0)
(0,0,0)
(0,0,0)
(0,0,0)
(0,0,0)
(0,0,0)
(0,0,0)
(0,0,0)
(0,0,0)
(0,0,0)
(0,0,0)
(0,0,0)
(0,0,0)
(0,0,0)
(0,0,0)
(0,0,0)
(0,0,0)
(0,0,0)
(0,0,0)
(0,0,0)
(0,0,0)
(0,0,0)
(0,0,0)
(0,0,0)
(0,0,0)
(0,0,0)
(0,0,0)
(0,0,0)
(0,0,0)
(0,0,0)
(0,0,0)
(0,0,0)
(0,0,0)
(0,0,0)
(0,0,0)
(0,0,0)
(0,0,0)
(0,0,0)
(0,0,0)
(0,0,0)
(0,0,0)
(0,0,0)
(0,0,0)
(0,0,0)
(0,0,0)
(0,0,0)
(0,0,0)
(0,0,0)
(0,0,0)
(0,0,0)
(0,0,0)
(0,0,0)
(0,0,0)
(0,0,0)
(0,0,0)
(0,0,0)
(0,0,0)
(0,0,0)
(0,0,0)
(0,0,0)
(0,0,0)
(0,0,0)
(0,0,0)
(0,0,0)
(0,0,0)
(0,0,0)
(0,0,0)
(0,0,0)
(0,0,0)
(0,0,0)
(0,0,0)
(0,0,0)
(0,0,0)
(0,0,0)
(0,0,0)
(0,0,0)
(0,0,0)
(0,0,0)
(0,0,0)
(0,0,0)
(0,0,0)
(0,0,0)
(0,0,0)
(0,0,0)
(0,0,0)
(0,0,0)
(0,0,0)
(0,0,0)
(0,0,0)
(0,0,0)
(0,0,0)
(0,0,0)
(0,0,0)
(0,0,0)
(0,0,0)
(0,0,0)
(0,0,0)
(0,0,0)
(0,0,0)
(0,0,0)
(0,0,0)
(0,0,0)
(0,0,0)
(0,0,0)
(0,0,0)
(0,0,0)
(0,0,0)
(0,0,0)
(0,0,0)
(0,0,0)
(0,0,0)
(0,0,0)
(0,0,0)
(0,0,0)
(0,0,0)
(0,0,0)
(0,0,0)
(0,0,0)
(0,0,0)
(0,0,0)
(0,0,0)
(0,0,0)
(0,0,0)
(0,0,0)
(0,0,0)
(0,0,0)
(0,0,0)
(0,0,0)
(0,0,0)
(0,0,0)
(0,0,0)
(0,0,0)
(0,0,0)
(0,0,0)
(0,0,0)
(0,0,0)
(0,0,0)
(0,0,0)
(0,0,0)
(0,0,0)
(0,0,0)
(0,0,0)
(0,0,0)
(0,0,0)
(0,0,0)
(0,0,0)
(0,0,0)
(0,0,0)
(0,0,0)
(0,0,0)
(0,0,0)
(0,0,0)
(0,0,0)
(0,0,0)
(0,0,0)
(0,0,0)
(0,0,0)
(0,0,0)
(0,0,0)
(0,0,0)
(0,0,0)
(0,0,0)
(0,0,0)
(0,0,0)
(0,0,0)
(0,0,0)
(0,0,0)
(0,0,0)
(0,0,0)
(0,0,0)
(0,0,0)
(0,0,0)
(0,0,0)
(0,0,0)
(0,0,0)
(0,0,0)
(0,0,0)
(0,0,0)
(0,0,0)
(0,0,0)
(0,0,0)
(0,0,0)
(0,0,0)
(0,0,0)
(0,0,0)
(0,0,0)
(0,0,0)
(0,0,0)
(0,0,0)
(0,0,0)
(0,0,0)
(0,0,0)
(0,0,0)
(0,0,0)
(0,0,0)
(0,0,0)
(0,0,0)
(0,0,0)
(0,0,0)
(0,0,0)
(0,0,0)
(0,0,0)
(0,0,0)
(0,0,0)
(0,0,0)
(0,0,0)
(0,0,0)
(0,0,0)
(0,0,0)
(0,0,0)
(0,0,0)
(0,0,0)
(0,0,0)
(0,0,0)
(0,0,0)
(0,0,0)
(0,0,0)
(0,0,0)
(0,0,0)
(0,0,0)
(0,0,0)
(0,0,0)
(0,0,0)
(0,0,0)
(0,0,0)
(0,0,0)
(0,0,0)
(0,0,0)
(0,0,0)
(0,0,0)
(0,0,0)
(0,0,0)
(0,0,0)
(0,0,0)
(0,0,0)
(0,0,0)
(0,0,0)
(0,0,0)
(0,0,0)
(0,0,0)
(0,0,0)
(0,0,0)
(0,0,0)
(0,0,0)
(0,0,0)
(0,0,0)
(0,0,0)
(0,0,0)
(0,0,0)
(0,0,0)
(0,0,0)
(0,0,0)
(0,0,0)
(0,0,0)
(0,0,0)
(0,0,0)
(0,0,0)
(0,0,0)
(0,0,0)
(0,0,0)
(0,0,0)
(0,0,0)
(0,0,0)
(0,0,0)
(0,0,0)
(0,0,0)
(0,0,0)
(0,0,0)
(0,0,0)
(0,0,0)
(0,0,0)
(0,0,0)
(0,0,0)
(0,0,0)
(0,0,0)
(0,0,0)
(0,0,0)
(0,0,0)
(0,0,0)
(0,0,0)
(0,0,0)
(0,0,0)
(0,0,0)
(0,0,0)
(0,0,0)
(0,0,0)
(0,0,0)
(0,0,0)
(0,0,0)
(0,0,0)
(0,0,0)
(0,0,0)
(0,0,0)
(0,0,0)
(0,0,0)
(0,0,0)
(0,0,0)
(0,0,0)
(0,0,0)
(0,0,0)
(0,0,0)
(0,0,0)
(0,0,0)
(0,0,0)
(0,0,0)
(0,0,0)
(0,0,0)
(0,0,0)
(0,0,0)
(0,0,0)
(0,0,0)
(0,0,0)
(0,0,0)
(0,0,0)
(0,0,0)
(0,0,0)
(0,0,0)
(0,0,0)
(0,0,0)
(0,0,0)
(0,0,0)
(0,0,0)
(0,0,0)
(0,0,0)
(0,0,0)
(0,0,0)
(0,0,0)
(0,0,0)
(0,0,0)
(0,0,0)
(0,0,0)
(0,0,0)
(0,0,0)
(0,0,0)
(0,0,0)
(0,0,0)
(0,0,0)
(0,0,0)
(0,0,0)
(0,0,0)
(0,0,0)
(0,0,0)
(0,0,0)
(0,0,0)
(0,0,0)
(0,0,0)
(0,0,0)
(0,0,0)
(0,0,0)
(0,0,0)
(0,0,0)
(0,0,0)
(0,0,0)
(0,0,0)
(0,0,0)
(0,0,0)
(0,0,0)
(0,0,0)
(0,0,0)
(0,0,0)
(0,0,0)
(0,0,0)
(0,0,0)
(0,0,0)
(0,0,0)
(0,0,0)
(0,0,0)
(0,0,0)
(0,0,0)
(0,0,0)
(0,0,0)
(0,0,0)
(0,0,0)
(0,0,0)
(0,0,0)
(0,0,0)
(0,0,0)
(0,0,0)
(0,0,0)
(0,0,0)
(0,0,0)
(0,0,0)
(0,0,0)
(0,0,0)
(0,0,0)
(0,0,0)
(0,0,0)
(0,0,0)
(0,0,0)
(0,0,0)
(0,0,0)
(0,0,0)
(0,0,0)
(0,0,0)
(0,0,0)
(0,0,0)
(0,0,0)
(0,0,0)
(0,0,0)
(0,0,0)
(0,0,0)
(0,0,0)
(0,0,0)
(0,0,0)
(0,0,0)
(0,0,0)
(0,0,0)
(0,0,0)
(0,0,0)
(0,0,0)
(0,0,0)
(0,0,0)
(0,0,0)
(0,0,0)
(0,0,0)
(0,0,0)
(0,0,0)
(0,0,0)
(0,0,0)
(0,0,0)
(0,0,0)
(0,0,0)
(0,0,0)
(0,0,0)
(0,0,0)
(0,0,0)
(0,0,0)
(0,0,0)
(0,0,0)
(0,0,0)
(0,0,0)
(0,0,0)
(0,0,0)
(0,0,0)
(0,0,0)
(0,0,0)
(0,0,0)
(0,0,0)
(0,0,0)
(0,0,0)
(0,0,0)
(0,0,0)
(0,0,0)
(0,0,0)
(0,0,0)
(0,0,0)
(0,0,0)
(0,0,0)
(0,0,0)
(0,0,0)
(0,0,0)
(0,0,0)
(0,0,0)
(0,0,0)
(0,0,0)
(0,0,0)
(0,0,0)
(0,0,0)
(0,0,0)
(0,0,0)
(0,0,0)
(0,0,0)
(0,0,0)
(0,0,0)
(0,0,0)
(0,0,0)
(0,0,0)
(0,0,0)
(0,0,0)
(0,0,0)
(0,0,0)
(0,0,0)
(0,0,0)
(0,0,0)
(0,0,0)
(0,0,0)
(0,0,0)
(0,0,0)
(0,0,0)
(0,0,0)
(0,0,0)
(0,0,0)
(0,0,0)
(0,0,0)
(0,0,0)
(0,0,0)
(0,0,0)
(0,0,0)
(0,0,0)
(0,0,0)
(0,0,0)
(0,0,0)
(0,0,0)
(0,0,0)
(0,0,0)
(0,0,0)
(0,0,0)
(0,0,0)
(0,0,0)
(0,0,0)
(0,0,0)
(0,0,0)
(0,0,0)
(0,0,0)
(0,0,0)
(0,0,0)
(0,0,0)
(0,0,0)
(0,0,0)
(0,0,0)
(0,0,0)
(0,0,0)
(0,0,0)
(0,0,0)
(0,0,0)
(0,0,0)
(0,0,0)
(0,0,0)
(0,0,0)
(0,0,0)
(0,0,0)
(0,0,0)
(0,0,0)
(0,0,0)
(0,0,0)
(0,0,0)
(0,0,0)
(0,0,0)
(0,0,0)
(0,0,0)
(0,0,0)
(0,0,0)
(0,0,0)
(0,0,0)
(0,0,0)
(0,0,0)
(0,0,0)
(0,0,0)
(0,0,0)
(0,0,0)
(0,0,0)
(0,0,0)
(0,0,0)
(0,0,0)
(0,0,0)
(0,0,0)
(0,0,0)
(0,0,0)
(0,0,0)
(0,0,0)
(0,0,0)
(0,0,0)
(0,0,0)
(0,0,0)
(0,0,0)
(0,0,0)
(0,0,0)
(0,0,0)
(0,0,0)
(0,0,0)
(0,0,0)
(0,0,0)
(0,0,0)
(0,0,0)
(0,0,0)
(0,0,0)
(0,0,0)
(0,0,0)
(0,0,0)
(0,0,0)
(0,0,0)
(0,0,0)
(0,0,0)
(0,0,0)
(0,0,0)
(0,0,0)
(0,0,0)
(0,0,0)
(0,0,0)
(0,0,0)
(0,0,0)
(0,0,0)
(0,0,0)
(0,0,0)
(0,0,0)
(0,0,0)
(0,0,0)
(0,0,0)
(0,0,0)
(0,0,0)
(0,0,0)
(0,0,0)
(0,0,0)
(0,0,0)
(0,0,0)
(0,0,0)
(0,0,0)
(0,0,0)
(1.13734993930103e-12,1.32069624863453e-11,-1.3487496755575e-11)
(2.62368308849942e-12,2.75995261781679e-11,-1.25174971949524e-11)
(2.7224010379169e-12,4.70988707689537e-11,-1.10186157275556e-11)
(3.61433469779639e-12,7.60326477415816e-11,-9.37527391505178e-12)
(4.58631058174098e-12,1.19500074574929e-10,-7.14440843118266e-12)
(5.79652138900709e-12,1.86371948399303e-10,-4.82146154966833e-12)
(5.32774986665316e-12,2.9692024331404e-10,-2.41767908113524e-12)
(4.74182689055931e-12,4.81521391659707e-10,-9.34925959375447e-13)
(4.0910709155072e-12,7.87714891211807e-10,-4.32238691994924e-13)
(3.83822883222144e-12,1.21441037945168e-09,-4.31167442056193e-13)
(0,0,0)
(0,0,0)
(0,0,0)
(0,0,0)
(0,0,0)
(0,0,0)
(2.67802747272991e-12,1.23689131614691e-11,-3.01787956907447e-11)
(5.438378576453e-12,2.6524355090723e-11,-2.87480448845034e-11)
(6.18685381258683e-12,4.57414597410598e-11,-2.60900268007213e-11)
(7.19086885235253e-12,7.39271625301468e-11,-2.28140569963018e-11)
(8.26874815446286e-12,1.17196682218961e-10,-1.81861281034868e-11)
(9.74835700183211e-12,1.84731440696051e-10,-1.28892395576582e-11)
(9.50393105330866e-12,2.9615244833294e-10,-7.81247790209979e-12)
(7.90040452772272e-12,4.81553410415073e-10,-4.71275553231421e-12)
(6.91537678490493e-12,7.88106519240252e-10,-3.11944393389529e-12)
(7.3096108200234e-12,1.21487409984541e-09,-1.84771732237208e-12)
(0,0,0)
(0,0,0)
(0,0,0)
(0,0,0)
(0,0,0)
(0,0,0)
(4.37779108978113e-12,1.12117165467712e-11,-5.20748618794858e-11)
(8.27567194648324e-12,2.45472289392139e-11,-5.02109485819859e-11)
(9.90908935185484e-12,4.2724650342217e-11,-4.65764368116469e-11)
(1.16227672459801e-11,6.93679365681698e-11,-4.1865825084191e-11)
(1.27456504304886e-11,1.117985929271e-10,-3.5234012511309e-11)
(1.37170953783476e-11,1.80029262210665e-10,-2.68279171971461e-11)
(1.42697392416572e-11,2.93458625452717e-10,-1.86273996098572e-11)
(1.27790053278752e-11,4.803470715821e-10,-1.31398138257927e-11)
(1.18841950714022e-11,7.87379467167254e-10,-9.23229481780091e-12)
(1.19402319590007e-11,1.21447241614456e-09,-5.15345893892851e-12)
(0,0,0)
(0,0,0)
(0,0,0)
(0,0,0)
(0,0,0)
(0,0,0)
(7.25409584468424e-12,9.69294426867936e-12,-8.24432862267611e-11)
(1.23434827765888e-11,2.15962756414343e-11,-8.0166491503863e-11)
(1.45004570860665e-11,3.79952697723593e-11,-7.65319888257197e-11)
(1.67139348930577e-11,6.24326768701015e-11,-7.11947750936025e-11)
(1.83749959451373e-11,1.02842192002965e-10,-6.31752688812264e-11)
(1.90966960998235e-11,1.71054051577542e-10,-5.25735751939217e-11)
(1.87830092406784e-11,2.87188032695923e-10,-4.14884165874386e-11)
(1.68507218692324e-11,4.76885410593706e-10,-3.21212782350706e-11)
(1.67475712210271e-11,7.8437152591626e-10,-2.32339713300857e-11)
(1.65849971199049e-11,1.21136516856084e-09,-1.26720039297754e-11)
(0,0,0)
(0,0,0)
(0,0,0)
(0,0,0)
(0,0,0)
(0,0,0)
(9.43738981261215e-12,8.14484478008892e-12,-1.25556122924355e-10)
(1.58038328656769e-11,1.84370898228816e-11,-1.23889954037469e-10)
(1.81785241758152e-11,3.22808398148318e-11,-1.20726504191006e-10)
(2.02650302635659e-11,5.37899369735213e-11,-1.15518873363588e-10)
(2.19450142527733e-11,9.08445960164355e-11,-1.07577659346861e-10)
(2.23069381707404e-11,1.57553437796405e-10,-9.72622209541425e-11)
(2.05870862746598e-11,2.75841442125693e-10,-8.53303333569149e-11)
(1.93357309242535e-11,4.69483302050654e-10,-6.86899991799687e-11)
(2.06489117043963e-11,7.76555900842293e-10,-4.91725959541923e-11)
(2.17021875991428e-11,1.20193937756359e-09,-2.60910269812566e-11)
(0,0,0)
(0,0,0)
(0,0,0)
(0,0,0)
(0,0,0)
(0,0,0)
(1.10393398754774e-11,7.15898891029495e-12,-1.92763093824829e-10)
(1.85204805081164e-11,1.52463792625067e-11,-1.91180342122907e-10)
(2.2271051125515e-11,2.6088999562758e-11,-1.88494806406687e-10)
(2.49799385260615e-11,4.41348052027625e-11,-1.84028836424693e-10)
(2.57904083855225e-11,7.74077698443186e-11,-1.76817586523019e-10)
(2.44207794592868e-11,1.41857779050924e-10,-1.66698242619657e-10)
(2.17887793864379e-11,2.6091672971821e-10,-1.51545642527723e-10)
(2.13746850535236e-11,4.53560377172599e-10,-1.27031528014803e-10)
(2.39691465511618e-11,7.57289000655967e-10,-9.26869590576427e-11)
(2.5707965337367e-11,1.17952012230076e-09,-4.93286897316301e-11)
(0,0,0)
(0,0,0)
(0,0,0)
(0,0,0)
(0,0,0)
(0,0,0)
(1.0361569509284e-11,6.12210029710931e-12,-3.01276573351484e-10)
(1.82298723380681e-11,1.22295852834919e-11,-2.99722372868033e-10)
(2.32714441189153e-11,2.0599650296654e-11,-2.97529561381676e-10)
(2.70338066712932e-11,3.52287703025922e-11,-2.93790081173574e-10)
(2.7668969504136e-11,6.45122432696415e-11,-2.87316498441336e-10)
(2.55411232722892e-11,1.23773563763659e-10,-2.7648662234706e-10)
(2.35709266142608e-11,2.37829320687685e-10,-2.55208512973815e-10)
(2.35570363331979e-11,4.22250076668423e-10,-2.20284564411657e-10)
(2.58557214963008e-11,7.17143043733403e-10,-1.6439303064153e-10)
(2.69154942321866e-11,1.13309166880475e-09,-8.93258930241588e-11)
(0,0,0)
(0,0,0)
(0,0,0)
(0,0,0)
(0,0,0)
(0,0,0)
(8.72506894526147e-12,5.03685165902245e-12,-4.81674251946453e-10)
(1.63496583828823e-11,9.4512697666243e-12,-4.80080743411603e-10)
(2.12713126794266e-11,1.56833317759616e-11,-4.77945572075073e-10)
(2.52114314257847e-11,2.78176950816469e-11,-4.74323565200636e-10)
(2.63704589056766e-11,5.37301351946865e-11,-4.67607332899173e-10)
(2.54037195728494e-11,1.05470878203818e-10,-4.54474286519957e-10)
(2.48022550153935e-11,2.039937117142e-10,-4.27077614499877e-10)
(2.49544904372465e-11,3.67914661410931e-10,-3.75274151940038e-10)
(2.64365611373266e-11,6.43695264514031e-10,-2.89605633491672e-10)
(2.77809435742209e-11,1.04504025649114e-09,-1.63763146828524e-10)
(0,0,0)
(0,0,0)
(0,0,0)
(0,0,0)
(0,0,0)
(0,0,0)
(7.04130623946747e-12,3.66862000824694e-12,-7.83172878536542e-10)
(1.37122973032917e-11,6.74948185296768e-12,-7.81885556805526e-10)
(1.78925435580913e-11,1.08643727767574e-11,-7.79563423400033e-10)
(2.15150948054841e-11,2.01249734602142e-11,-7.75428969360793e-10)
(2.40308857155632e-11,4.0214751216354e-11,-7.66874470106356e-10)
(2.49987507377647e-11,7.89935293701867e-11,-7.49221311838616e-10)
(2.52986352450145e-11,1.52705763392835e-10,-7.13386374049137e-10)
(2.5547506210244e-11,2.83095103727558e-10,-6.43998440989299e-10)
(2.73295723283503e-11,5.18412802844414e-10,-5.2015713777487e-10)
(2.89660791300394e-11,8.81677779250475e-10,-3.12251102830578e-10)
(0,0,0)
(0,0,0)
(0,0,0)
(0,0,0)
(0,0,0)
(0,0,0)
(5.88077847723236e-12,1.83667344164656e-12,-1.20694540105293e-09)
(1.12295112535581e-11,3.59107504787816e-12,-1.20580061225567e-09)
(1.57851220688227e-11,5.43341499331955e-12,-1.20291087729411e-09)
(2.00791801008673e-11,1.03057900597807e-11,-1.19818925771991e-09)
(2.31894390471727e-11,2.16183520700518e-11,-1.1886955585887e-09)
(2.44581960276143e-11,4.27555598491566e-11,-1.16782862230896e-09)
(2.4938544597363e-11,8.32204444018935e-11,-1.1253576893034e-09)
(2.54663353412125e-11,1.59736280748237e-10,-1.0418796322433e-09)
(2.84191613535673e-11,3.10720067599462e-10,-8.81279725360113e-10)
(3.07413189411689e-11,5.69312549863405e-10,-5.69745620131458e-10)
(0,0,0)
(0,0,0)
(0,0,0)
(0,0,0)
(0,0,0)
(0,0,0)
(0,0,0)
(0,0,0)
(0,0,0)
(0,0,0)
(0,0,0)
(0,0,0)
(0,0,0)
(0,0,0)
(0,0,0)
(0,0,0)
(0,0,0)
(0,0,0)
(0,0,0)
(0,0,0)
(0,0,0)
(0,0,0)
(0,0,0)
(0,0,0)
(0,0,0)
(0,0,0)
(0,0,0)
(0,0,0)
(0,0,0)
(0,0,0)
(0,0,0)
(0,0,0)
(0,0,0)
(0,0,0)
(0,0,0)
(0,0,0)
(0,0,0)
(0,0,0)
(0,0,0)
(0,0,0)
(0,0,0)
(0,0,0)
(0,0,0)
(0,0,0)
(0,0,0)
(0,0,0)
(0,0,0)
(0,0,0)
(0,0,0)
(0,0,0)
(0,0,0)
(0,0,0)
(0,0,0)
(0,0,0)
(0,0,0)
(0,0,0)
(0,0,0)
(0,0,0)
(0,0,0)
(0,0,0)
(0,0,0)
(0,0,0)
(0,0,0)
(0,0,0)
(0,0,0)
(0,0,0)
(0,0,0)
(0,0,0)
(0,0,0)
(0,0,0)
(0,0,0)
(0,0,0)
(0,0,0)
(0,0,0)
(0,0,0)
(0,0,0)
(0,0,0)
(0,0,0)
(0,0,0)
(0,0,0)
(0,0,0)
(0,0,0)
(0,0,0)
(0,0,0)
(0,0,0)
(0,0,0)
(0,0,0)
(0,0,0)
(0,0,0)
(0,0,0)
(0,0,0)
(0,0,0)
(0,0,0)
(0,0,0)
(0,0,0)
(0,0,0)
(0,0,0)
(0,0,0)
(0,0,0)
(0,0,0)
(0,0,0)
(0,0,0)
(1.00539970355076e-12,2.44864540214078e-11,-2.61668389571824e-11)
(2.19997270854442e-12,5.27714923035113e-11,-2.44814174073082e-11)
(2.43647025328733e-12,8.9277412672626e-11,-2.15020042222801e-11)
(3.48895442536519e-12,1.40457906566914e-10,-1.75013219467464e-11)
(4.56675605614164e-12,2.15917616694553e-10,-1.23865174133437e-11)
(5.03324662374625e-12,3.32916876554095e-10,-6.88431835634767e-12)
(4.61279172606487e-12,5.22297745483625e-10,-1.98144993274675e-12)
(4.2071208676867e-12,8.43015314153165e-10,4.24628636375438e-13)
(3.69837163675124e-12,1.45502827843176e-09,6.76484704626784e-13)
(2.94334099596843e-12,2.85429986848274e-09,1.66759956824943e-13)
(0,0,0)
(0,0,0)
(0,0,0)
(0,0,0)
(0,0,0)
(0,0,0)
(2.4044732811876e-12,2.31321636680857e-11,-5.81059489673035e-11)
(4.7574866441842e-12,5.03749254913662e-11,-5.5482723346154e-11)
(5.927693407017e-12,8.58319376450574e-11,-5.00547111688649e-11)
(7.12216592150631e-12,1.35838147849188e-10,-4.23714476843163e-11)
(8.36994890049275e-12,2.11025002932576e-10,-3.19911249655951e-11)
(9.3737738316451e-12,3.29103320130274e-10,-1.98855120700576e-11)
(9.09803156362985e-12,5.20842748461734e-10,-8.75343393276843e-12)
(7.51343176252421e-12,8.43940960391735e-10,-3.57640035284327e-12)
(6.37070224674156e-12,1.45690292978328e-09,-2.50900376498498e-12)
(5.86357719870112e-12,2.85652581636038e-09,-1.86959577647772e-12)
(0,0,0)
(0,0,0)
(0,0,0)
(0,0,0)
(0,0,0)
(0,0,0)
(4.03265007037388e-12,2.11230461216896e-11,-9.81141060139198e-11)
(7.59211347392944e-12,4.61039954773773e-11,-9.47158958608159e-11)
(9.92785819427077e-12,7.92217124815918e-11,-8.74008879910193e-11)
(1.19262143711747e-11,1.26210090648538e-10,-7.67193948585312e-11)
(1.32959560404071e-11,1.99469567610336e-10,-6.16391126853877e-11)
(1.44917884241806e-11,3.18726066540076e-10,-4.23296155278491e-11)
(1.5052746214397e-11,5.16622131168561e-10,-2.34741747465609e-11)
(1.23331473080848e-11,8.45031128570259e-10,-1.49259094785009e-11)
(1.081330044327e-11,1.45894315746434e-09,-1.14063615705741e-11)
(9.89402060361974e-12,2.85843059837795e-09,-6.96325116504882e-12)
(0,0,0)
(0,0,0)
(0,0,0)
(0,0,0)
(0,0,0)
(0,0,0)
(6.52540061037581e-12,1.8563124535086e-11,-1.53197227730458e-10)
(1.18681659169952e-11,4.02411648966049e-11,-1.4918436548893e-10)
(1.48776733114686e-11,6.93248241066252e-11,-1.41520760143214e-10)
(1.73371685772655e-11,1.11115946355076e-10,-1.29505745098242e-10)
(1.97708982443523e-11,1.79442716812499e-10,-1.11747803378898e-10)
(2.15121512745011e-11,2.98285163703069e-10,-8.77642768662551e-11)
(2.07624614585252e-11,5.05967023538493e-10,-6.21444269351483e-11)
(1.53655235074173e-11,8.44437969767253e-10,-4.70993184046646e-11)
(1.40012288951816e-11,1.45879210355993e-09,-3.52558183182212e-11)
(1.33387841882916e-11,2.85654456755166e-09,-1.98659844432029e-11)
(0,0,0)
(0,0,0)
(0,0,0)
(0,0,0)
(0,0,0)
(0,0,0)
(8.75707679552046e-12,1.55739384269898e-11,-2.29157212720994e-10)
(1.5831093579586e-11,3.37507211020671e-11,-2.25811328727682e-10)
(1.91627336004708e-11,5.71321548641533e-11,-2.18797420462631e-10)
(2.19789480175897e-11,9.19319863405466e-11,-2.07860284571109e-10)
(2.50664020321773e-11,1.51829426525263e-10,-1.91960844825218e-10)
(2.6070709318991e-11,2.65036788384588e-10,-1.7220540879938e-10)
(1.88714645052008e-11,4.79369797120737e-10,-1.54073737108976e-10)
(1.57412525767233e-11,8.35879999555101e-10,-1.19510252681555e-10)
(1.68342429177e-11,1.44921213466917e-09,-8.45169040759733e-11)
(1.80304158802453e-11,2.84258776453696e-09,-4.48810451081743e-11)
(0,0,0)
(0,0,0)
(0,0,0)
(0,0,0)
(0,0,0)
(0,0,0)
(1.04934767867416e-11,1.27924515979007e-11,-3.44558768662531e-10)
(1.88517387709099e-11,2.68272256149471e-11,-3.41580052372049e-10)
(2.329443040962e-11,4.42851628724144e-11,-3.35665554978165e-10)
(2.66747235245713e-11,7.17489155756233e-11,-3.27215240604252e-10)
(2.85665910568525e-11,1.23303378760623e-10,-3.14886045240769e-10)
(2.73523946545828e-11,2.32175977622948e-10,-2.98042660920967e-10)
(2.03620739041028e-11,4.56730568973196e-10,-2.74805436245615e-10)
(1.83404166005519e-11,8.11489582945943e-10,-2.28036357069517e-10)
(2.07568341476719e-11,1.41723171505391e-09,-1.64443350865092e-10)
(2.28077291019599e-11,2.80420723265832e-09,-8.70624068770782e-11)
(0,0,0)
(0,0,0)
(0,0,0)
(0,0,0)
(0,0,0)
(0,0,0)
(9.89261766391918e-12,1.04552978604892e-11,-5.28722570134004e-10)
(1.88153763685805e-11,2.08178277127943e-11,-5.26112311389478e-10)
(2.44482824315066e-11,3.35322054023399e-11,-5.21380194991885e-10)
(2.79712991599922e-11,5.43006369833111e-11,-5.15345662876464e-10)
(2.76212014848374e-11,9.70772185781672e-11,-5.0729493801073e-10)
(2.25656994589081e-11,1.94782120882934e-10,-4.92912474580571e-10)
(2.24825870256313e-11,4.17473063145307e-10,-4.52635615500549e-10)
(2.20009178204231e-11,7.56476777088868e-10,-3.95935780229682e-10)
(2.42363630980161e-11,1.34608816008925e-09,-2.92509110699776e-10)
(2.56410135221424e-11,2.72257095790935e-09,-1.57782002955731e-10)
(0,0,0)
(0,0,0)
(0,0,0)
(0,0,0)
(0,0,0)
(0,0,0)
(8.4997920611862e-12,8.14134674730084e-12,-8.4262601803691e-10)
(1.69162749600097e-11,1.56624475310671e-11,-8.39932503525961e-10)
(2.24682648041976e-11,2.53243091973858e-11,-8.35445616611513e-10)
(2.61879207457549e-11,4.30564679410195e-11,-8.30033505815875e-10)
(2.67527965047672e-11,8.27798807849441e-11,-8.22118490029545e-10)
(2.44843963864267e-11,1.73440482312138e-10,-8.05179588680923e-10)
(2.42867407769552e-11,3.61949850071549e-10,-7.61738672320863e-10)
(2.41055296720807e-11,6.55760105479202e-10,-6.68489731816334e-10)
(2.58765361439458e-11,1.21408864282744e-09,-5.14343680522591e-10)
(2.73802739857695e-11,2.56750381166194e-09,-2.92232272089547e-10)
(0,0,0)
(0,0,0)
(0,0,0)
(0,0,0)
(0,0,0)
(0,0,0)
(7.58593107505177e-12,5.55807582341599e-12,-1.44669749407988e-09)
(1.45485707028888e-11,1.08235808263121e-11,-1.44422790821718e-09)
(1.91890473022906e-11,1.78171632420648e-11,-1.43969795067364e-09)
(2.27797789514842e-11,3.20035463418978e-11,-1.43311928479879e-09)
(2.497412659414e-11,6.39075124458367e-11,-1.42094915052361e-09)
(2.54017824692975e-11,1.33331248143681e-10,-1.39459632701151e-09)
(2.53960211761169e-11,2.68740537360473e-10,-1.3353078501482e-09)
(2.50650259751255e-11,5.02021796277924e-10,-1.21306072020398e-09)
(2.71162726289918e-11,9.92513901567979e-10,-9.9593711083148e-10)
(2.90802056865754e-11,2.27623962868831e-09,-6.22100234446432e-10)
(0,0,0)
(0,0,0)
(0,0,0)
(0,0,0)
(0,0,0)
(0,0,0)
(6.57266312162176e-12,2.85312455882901e-12,-2.84126964751246e-09)
(1.19308513398759e-11,5.89644812898227e-12,-2.83923441316938e-09)
(1.6496917487942e-11,9.51632236103166e-12,-2.83457312936757e-09)
(2.08912710294379e-11,1.73703870439381e-11,-2.82686897534819e-09)
(2.39408548374714e-11,3.55761457902595e-11,-2.81151026325998e-09)
(2.4742822871197e-11,7.34208531426026e-11,-2.77802423997397e-09)
(2.46809319391487e-11,1.4612453579685e-10,-2.7062089901968e-09)
(2.46027092063076e-11,2.85025365367478e-10,-2.56079085750941e-09)
(2.76051237243777e-11,6.19093308377826e-10,-2.27586568667485e-09)
(3.03082486732045e-11,1.65481223431741e-09,-1.65599099105744e-09)
(0,0,0)
(0,0,0)
(0,0,0)
(0,0,0)
(0,0,0)
(0,0,0)
(0,0,0)
(0,0,0)
(0,0,0)
(0,0,0)
(0,0,0)
(0,0,0)
(0,0,0)
(0,0,0)
(0,0,0)
(0,0,0)
(0,0,0)
(0,0,0)
(0,0,0)
(0,0,0)
(0,0,0)
(0,0,0)
(0,0,0)
(0,0,0)
(0,0,0)
(0,0,0)
(0,0,0)
(0,0,0)
(0,0,0)
(0,0,0)
(0,0,0)
(0,0,0)
(0,0,0)
(0,0,0)
(0,0,0)
(0,0,0)
(0,0,0)
(0,0,0)
(0,0,0)
(0,0,0)
(0,0,0)
(0,0,0)
(0,0,0)
(0,0,0)
(0,0,0)
(0,0,0)
(0,0,0)
(0,0,0)
(0,0,0)
(0,0,0)
(0,0,0)
(0,0,0)
(0,0,0)
(0,0,0)
(0,0,0)
(0,0,0)
(0,0,0)
(0,0,0)
(0,0,0)
(0,0,0)
(0,0,0)
(0,0,0)
(0,0,0)
(0,0,0)
(0,0,0)
(0,0,0)
(0,0,0)
(0,0,0)
(0,0,0)
(0,0,0)
(0,0,0)
(0,0,0)
(0,0,0)
(0,0,0)
(0,0,0)
(0,0,0)
(0,0,0)
(0,0,0)
(0,0,0)
(0,0,0)
(0,0,0)
(0,0,0)
(0,0,0)
(0,0,0)
(0,0,0)
(0,0,0)
(0,0,0)
(0,0,0)
(0,0,0)
(0,0,0)
(0,0,0)
(0,0,0)
(0,0,0)
(0,0,0)
(0,0,0)
(0,0,0)
(0,0,0)
(0,0,0)
(0,0,0)
(0,0,0)
(0,0,0)
(0,0,0)
(6.74268506947093e-13,3.34348129091516e-11,-3.61987578501677e-11)
(1.61712633538355e-12,7.23016799212183e-11,-3.43625251639942e-11)
(1.88126300596876e-12,1.20764413911597e-10,-3.00539705959507e-11)
(2.99390861003237e-12,1.86195561822694e-10,-2.3595358780635e-11)
(3.95717076079449e-12,2.78115237659462e-10,-1.48252347297647e-11)
(3.94393462395212e-12,4.14944443710339e-10,-5.12565316385262e-12)
(3.66171017847549e-12,6.18033952063322e-10,3.0618132744326e-12)
(3.02961856089463e-12,9.12014355882996e-10,5.89292402227486e-12)
(2.33344503301554e-12,1.33185202226082e-09,4.54097910286064e-12)
(8.84153074960527e-13,1.84261184268581e-09,2.12670990324836e-12)
(0,0,0)
(0,0,0)
(0,0,0)
(0,0,0)
(0,0,0)
(0,0,0)
(1.79036520600283e-12,3.15807019922246e-11,-8.00764934234718e-11)
(3.60040448026316e-12,6.82591523043789e-11,-7.6879241661773e-11)
(4.85465508503061e-12,1.14622292767168e-10,-6.88799389210279e-11)
(6.36990040407962e-12,1.78013416263538e-10,-5.62712420222015e-11)
(7.81977132741888e-12,2.6923579118507e-10,-3.83210675754578e-11)
(8.61894928459998e-12,4.0788071045388e-10,-1.60892711532582e-11)
(8.14161527566806e-12,6.17137569641746e-10,4.91929207588881e-12)
(5.35586699759113e-12,9.1597390618685e-10,1.01071600405938e-11)
(3.69106657693544e-12,1.33635823102221e-09,6.19255934770976e-12)
(2.08919940493455e-12,1.84650790314715e-09,2.05343999023369e-12)
(0,0,0)
(0,0,0)
(0,0,0)
(0,0,0)
(0,0,0)
(0,0,0)
(3.19436150192373e-12,2.8392301937447e-11,-1.33019996751674e-10)
(6.13993618612333e-12,6.08416036294277e-11,-1.28699184423007e-10)
(9.14325343738831e-12,1.03103892764774e-10,-1.18387306591534e-10)
(1.19400764907531e-11,1.61342147742413e-10,-1.01015758473603e-10)
(1.40133096807779e-11,2.48443252302388e-10,-7.44323404881713e-11)
(1.60772504798861e-11,3.89124818445018e-10,-3.68048644109714e-11)
(1.71595885772289e-11,6.15517535752944e-10,4.71441149305717e-12)
(9.4067582020981e-12,9.25593105818262e-10,9.30614670349725e-12)
(6.52124394331699e-12,1.34531850322802e-09,1.88787127250306e-12)
(4.81680026409905e-12,1.85282234879526e-09,-1.62956358637449e-12)
(0,0,0)
(0,0,0)
(0,0,0)
(0,0,0)
(0,0,0)
(0,0,0)
(5.50172447623923e-12,2.44185538495611e-11,-2.02903951884745e-10)
(1.06950043671024e-11,5.15031878263984e-11,-1.97920870695736e-10)
(1.50553275081726e-11,8.6969396151952e-11,-1.86900178320658e-10)
(1.8763186871748e-11,1.35852374295282e-10,-1.67292048771462e-10)
(2.34006620194608e-11,2.12129810886925e-10,-1.3593364138398e-10)
(2.91406766614774e-11,3.49098015145534e-10,-8.64989348873871e-11)
(3.23145793460318e-11,6.08479957419507e-10,-1.93126726279557e-11)
(1.20799936335948e-11,9.427105144142e-10,-1.84727183480026e-11)
(8.19136391127636e-12,1.35786508818812e-09,-2.32737579188071e-11)
(7.42960275899541e-12,1.85881510115093e-09,-1.62556170778775e-11)
(0,0,0)
(0,0,0)
(0,0,0)
(0,0,0)
(0,0,0)
(0,0,0)
(8.19267963088644e-12,2.00667797191285e-11,-2.979717759387e-10)
(1.57406808025099e-11,4.17312450061713e-11,-2.9311124745404e-10)
(2.10725896996953e-11,6.80929432308214e-11,-2.82720716311325e-10)
(2.62625790368064e-11,1.03950099101164e-10,-2.65229865008799e-10)
(3.38370137718953e-11,1.60077277893661e-10,-2.38708806234574e-10)
(4.07998483892304e-11,2.70003014126876e-10,-2.05731262348761e-10)
(6.94720822448531e-12,5.35994981312897e-10,-2.11211605481852e-10)
(5.13832058023435e-12,9.59233531370683e-10,-1.36343286203116e-10)
(9.17880356690055e-12,1.3632176168921e-09,-9.41342448579105e-11)
(1.1529902650177e-11,1.8517148059952e-09,-5.02446281422318e-11)
(0,0,0)
(0,0,0)
(0,0,0)
(0,0,0)
(0,0,0)
(0,0,0)
(9.85191423398278e-12,1.57100166812131e-11,-4.31226776675785e-10)
(1.89466392788919e-11,3.18614051533578e-11,-4.27259483224099e-10)
(2.55970735055948e-11,4.93733621389966e-11,-4.19058753548967e-10)
(3.17938067547315e-11,7.20974500704271e-11,-4.06746974017449e-10)
(3.79493669184357e-11,1.10360664120521e-10,-3.89195487953296e-10)
(4.1509026719203e-11,2.10227190153602e-10,-3.66736026990379e-10)
(1.28505005565149e-11,5.3901899138415e-10,-3.63742074831208e-10)
(9.76021625255247e-12,9.46921320265176e-10,-2.86173508284947e-10)
(1.4519445124909e-11,1.33344323725528e-09,-2.00737007365341e-10)
(1.73815969729664e-11,1.81047779160316e-09,-1.04360881619346e-10)
(0,0,0)
(0,0,0)
(0,0,0)
(0,0,0)
(0,0,0)
(0,0,0)
(9.59631003329569e-12,1.22279255128564e-11,-6.25615021375993e-10)
(1.92386401519555e-11,2.38237020537592e-11,-6.22740148876887e-10)
(2.66216465212276e-11,3.45686695986882e-11,-6.17246435850799e-10)
(3.1164743336524e-11,4.60369867780516e-11,-6.11619085253555e-10)
(2.75360758482e-11,6.42879970168215e-11,-6.10329096663083e-10)
(3.63047894950668e-12,1.25384874084941e-10,-6.15783709863729e-10)
(2.13059648287453e-11,4.98193565881732e-10,-5.32774069429102e-10)
(1.92909198995035e-11,8.85297868739957e-10,-5.11621122491541e-10)
(2.15087726163274e-11,1.24821709390264e-09,-3.56809145695584e-10)
(2.29261568141414e-11,1.71324589223328e-09,-1.84121922387317e-10)
(0,0,0)
(0,0,0)
(0,0,0)
(0,0,0)
(0,0,0)
(0,0,0)
(8.38954847435656e-12,9.3034298163069e-12,-9.09582889599332e-10)
(1.72682547504735e-11,1.78152929295182e-11,-9.06857132252391e-10)
(2.45632999630438e-11,2.58973816458641e-11,-9.02532032067244e-10)
(2.93258265597415e-11,3.75060110467612e-11,-8.99122494502548e-10)
(2.86862634944861e-11,6.70266803481181e-11,-8.99687251180906e-10)
(2.11527141950448e-11,1.63762965747776e-10,-9.03545100621348e-10)
(2.42471129836286e-11,4.54005409692165e-10,-8.80495113055624e-10)
(2.36977875785129e-11,7.33096751476138e-10,-7.49548446870989e-10)
(2.53398689707607e-11,1.07946933795611e-09,-5.46546487872018e-10)
(2.64121848704158e-11,1.53262779271929e-09,-2.94671533690604e-10)
(0,0,0)
(0,0,0)
(0,0,0)
(0,0,0)
(0,0,0)
(0,0,0)
(7.82129647684426e-12,6.60203402796891e-12,-1.31975714365602e-09)
(1.49457458566301e-11,1.27758378073461e-11,-1.31682634741349e-09)
(2.09112223091847e-11,1.92821782470006e-11,-1.31190691316335e-09)
(2.52428039741469e-11,3.12921629316594e-11,-1.30620045510911e-09)
(2.69526697380696e-11,6.19961858776303e-11,-1.29828637983701e-09)
(2.60237006067882e-11,1.43716002374184e-10,-1.28028947660552e-09)
(2.57648927953835e-11,3.18495691225031e-10,-1.22424812066667e-09)
(2.49378475119935e-11,5.29721649162667e-10,-1.07504270503511e-09)
(2.66999894348609e-11,8.28634652073315e-10,-8.31549139201124e-10)
(2.84073656108925e-11,1.23928057891053e-09,-4.77150636197546e-10)
(0,0,0)
(0,0,0)
(0,0,0)
(0,0,0)
(0,0,0)
(0,0,0)
(7.39055333673889e-12,3.61138226120235e-12,-1.82523092453775e-09)
(1.31660156667421e-11,7.0890412683346e-12,-1.8223299210644e-09)
(1.83090858300494e-11,1.08361300541584e-11,-1.81668831610843e-09)
(2.29029459848799e-11,1.83282916556331e-11,-1.8084308715296e-09)
(2.60309773419355e-11,3.72800635084588e-11,-1.79386234404386e-09)
(2.6348426236131e-11,8.20203346833466e-11,-1.7613962018593e-09)
(2.53873350489623e-11,1.66386960924906e-10,-1.68416090517853e-09)
(2.47029037381613e-11,2.85386004553909e-10,-1.52042732109738e-09)
(2.68237364852299e-11,4.74425840107892e-10,-1.23649687861077e-09)