/*--------------------------------*- C++ -*----------------------------------*\
| =========                 |                                                 |
| \\      /  F ield         | foam-extend: Open Source CFD                    |
|  \\    /   O peration     | Version:     4.0                                |
|   \\  /    A nd           | Web:         http://www.foam-extend.org         |
|    \\/     M anipulation  |                                                 |
\*---------------------------------------------------------------------------*/
FoamFile
{
    version 2.0;
    format ascii;
    class volVectorField;
    location "Data/2903";
    object      E;
}
// * * * * * * * * * * * * * * * * * * * * * * * * * * * * * * * * * * * * * //

dimensions      [0 1 -1 0 0 0 0];

internalField   nonuniform List<vector>
4096
(
(0,0,0)
(0,0,0)
(0,0,0)
(0,0,0)
(0,0,0)
(0,0,0)
(0,0,0)
(0,0,0)
(0,0,0)
(0,0,0)
(0,0,0)
(0,0,0)
(0,0,0)
(0,0,0)
(0,0,0)
(0,0,0)
(0,0,0)
(0,0,0)
(0,0,0)
(0,0,0)
(0,0,0)
(0,0,0)
(0,0,0)
(0,0,0)
(0,0,0)
(0,0,0)
(0,0,0)
(0,0,0)
(0,0,0)
(0,0,0)
(0,0,0)
(0,0,0)
(0,0,0)
(0,0,0)
(0,0,0)
(0,0,0)
(0,0,0)
(0,0,0)
(0,0,0)
(0,0,0)
(0,0,0)
(0,0,0)
(0,0,0)
(0,0,0)
(0,0,0)
(0,0,0)
(0,0,0)
(0,0,0)
(0,0,0)
(0,0,0)
(0,0,0)
(0,0,0)
(0,0,0)
(0,0,0)
(0,0,0)
(0,0,0)
(0,0,0)
(0,0,0)
(0,0,0)
(0,0,0)
(0,0,0)
(0,0,0)
(0,0,0)
(0,0,0)
(0,0,0)
(0,0,0)
(0,0,0)
(0,0,0)
(0,0,0)
(0,0,0)
(0,0,0)
(0,0,0)
(0,0,0)
(0,0,0)
(0,0,0)
(0,0,0)
(0,0,0)
(0,0,0)
(0,0,0)
(0,0,0)
(0,0,0)
(0,0,0)
(0,0,0)
(0,0,0)
(0,0,0)
(0,0,0)
(0,0,0)
(0,0,0)
(0,0,0)
(0,0,0)
(0,0,0)
(0,0,0)
(0,0,0)
(0,0,0)
(0,0,0)
(0,0,0)
(0,0,0)
(0,0,0)
(0,0,0)
(0,0,0)
(0,0,0)
(0,0,0)
(0,0,0)
(0,0,0)
(0,0,0)
(0,0,0)
(0,0,0)
(0,0,0)
(0,0,0)
(0,0,0)
(0,0,0)
(0,0,0)
(0,0,0)
(0,0,0)
(0,0,0)
(0,0,0)
(0,0,0)
(0,0,0)
(0,0,0)
(0,0,0)
(0,0,0)
(0,0,0)
(0,0,0)
(0,0,0)
(0,0,0)
(0,0,0)
(0,0,0)
(0,0,0)
(0,0,0)
(0,0,0)
(0,0,0)
(0,0,0)
(0,0,0)
(0,0,0)
(0,0,0)
(0,0,0)
(0,0,0)
(0,0,0)
(0,0,0)
(0,0,0)
(0,0,0)
(0,0,0)
(0,0,0)
(0,0,0)
(0,0,0)
(0,0,0)
(0,0,0)
(0,0,0)
(0,0,0)
(0,0,0)
(0,0,0)
(0,0,0)
(0,0,0)
(0,0,0)
(0,0,0)
(0,0,0)
(0,0,0)
(0,0,0)
(0,0,0)
(0,0,0)
(0,0,0)
(0,0,0)
(0,0,0)
(0,0,0)
(0,0,0)
(0,0,0)
(0,0,0)
(0,0,0)
(0,0,0)
(0,0,0)
(0,0,0)
(0,0,0)
(0,0,0)
(0,0,0)
(0,0,0)
(0,0,0)
(0,0,0)
(0,0,0)
(0,0,0)
(0,0,0)
(0,0,0)
(0,0,0)
(0,0,0)
(0,0,0)
(0,0,0)
(0,0,0)
(0,0,0)
(0,0,0)
(0,0,0)
(0,0,0)
(0,0,0)
(0,0,0)
(0,0,0)
(0,0,0)
(0,0,0)
(0,0,0)
(0,0,0)
(0,0,0)
(0,0,0)
(0,0,0)
(0,0,0)
(0,0,0)
(0,0,0)
(0,0,0)
(0,0,0)
(0,0,0)
(0,0,0)
(0,0,0)
(0,0,0)
(0,0,0)
(0,0,0)
(0,0,0)
(0,0,0)
(0,0,0)
(0,0,0)
(0,0,0)
(0,0,0)
(0,0,0)
(0,0,0)
(0,0,0)
(0,0,0)
(0,0,0)
(0,0,0)
(0,0,0)
(0,0,0)
(0,0,0)
(0,0,0)
(0,0,0)
(0,0,0)
(0,0,0)
(0,0,0)
(0,0,0)
(0,0,0)
(0,0,0)
(0,0,0)
(0,0,0)
(0,0,0)
(0,0,0)
(0,0,0)
(0,0,0)
(0,0,0)
(0,0,0)
(0,0,0)
(0,0,0)
(0,0,0)
(0,0,0)
(0,0,0)
(0,0,0)
(0,0,0)
(0,0,0)
(0,0,0)
(0,0,0)
(0,0,0)
(0,0,0)
(0,0,0)
(0,0,0)
(0,0,0)
(0,0,0)
(0,0,0)
(0,0,0)
(0,0,0)
(0,0,0)
(0,0,0)
(0,0,0)
(0,0,0)
(0,0,0)
(0,0,0)
(0,0,0)
(0,0,0)
(0,0,0)
(0,0,0)
(0,0,0)
(0,0,0)
(0,0,0)
(0,0,0)
(0,0,0)
(0,0,0)
(0,0,0)
(0,0,0)
(0,0,0)
(0,0,0)
(0,0,0)
(0,0,0)
(0,0,0)
(0,0,0)
(0,0,0)
(0,0,0)
(0,0,0)
(0,0,0)
(0,0,0)
(0,0,0)
(0,0,0)
(0,0,0)
(0,0,0)
(0,0,0)
(0,0,0)
(0,0,0)
(0,0,0)
(0,0,0)
(0,0,0)
(0,0,0)
(0,0,0)
(0,0,0)
(0,0,0)
(0,0,0)
(0,0,0)
(0,0,0)
(0,0,0)
(0,0,0)
(0,0,0)
(0,0,0)
(0,0,0)
(0,0,0)
(0,0,0)
(0,0,0)
(0,0,0)
(0,0,0)
(0,0,0)
(0,0,0)
(0,0,0)
(0,0,0)
(0,0,0)
(0,0,0)
(0,0,0)
(0,0,0)
(0,0,0)
(0,0,0)
(0,0,0)
(0,0,0)
(0,0,0)
(0,0,0)
(0,0,0)
(0,0,0)
(0,0,0)
(0,0,0)
(0,0,0)
(0,0,0)
(0,0,0)
(0,0,0)
(0,0,0)
(0,0,0)
(0,0,0)
(0,0,0)
(0,0,0)
(0,0,0)
(0,0,0)
(0,0,0)
(0,0,0)
(0,0,0)
(0,0,0)
(0,0,0)
(0,0,0)
(0,0,0)
(0,0,0)
(0,0,0)
(0,0,0)
(0,0,0)
(0,0,0)
(0,0,0)
(0,0,0)
(0,0,0)
(0,0,0)
(0,0,0)
(0,0,0)
(0,0,0)
(0,0,0)
(0,0,0)
(0,0,0)
(0,0,0)
(0,0,0)
(0,0,0)
(0,0,0)
(0,0,0)
(0,0,0)
(0,0,0)
(0,0,0)
(0,0,0)
(0,0,0)
(0,0,0)
(0,0,0)
(0,0,0)
(0,0,0)
(0,0,0)
(0,0,0)
(0,0,0)
(0,0,0)
(0,0,0)
(0,0,0)
(0,0,0)
(0,0,0)
(0,0,0)
(0,0,0)
(0,0,0)
(0,0,0)
(0,0,0)
(0,0,0)
(0,0,0)
(0,0,0)
(0,0,0)
(0,0,0)
(0,0,0)
(0,0,0)
(0,0,0)
(0,0,0)
(0,0,0)
(0,0,0)
(0,0,0)
(0,0,0)
(0,0,0)
(0,0,0)
(0,0,0)
(0,0,0)
(0,0,0)
(0,0,0)
(0,0,0)
(0,0,0)
(0,0,0)
(0,0,0)
(0,0,0)
(0,0,0)
(0,0,0)
(0,0,0)
(0,0,0)
(0,0,0)
(0,0,0)
(0,0,0)
(0,0,0)
(0,0,0)
(0,0,0)
(0,0,0)
(0,0,0)
(0,0,0)
(0,0,0)
(0,0,0)
(0,0,0)
(0,0,0)
(0,0,0)
(0,0,0)
(0,0,0)
(0,0,0)
(0,0,0)
(0,0,0)
(0,0,0)
(0,0,0)
(0,0,0)
(0,0,0)
(0,0,0)
(0,0,0)
(0,0,0)
(0,0,0)
(0,0,0)
(0,0,0)
(0,0,0)
(0,0,0)
(0,0,0)
(0,0,0)
(0,0,0)
(0,0,0)
(0,0,0)
(0,0,0)
(0,0,0)
(0,0,0)
(0,0,0)
(0,0,0)
(0,0,0)
(0,0,0)
(0,0,0)
(0,0,0)
(0,0,0)
(0,0,0)
(0,0,0)
(0,0,0)
(0,0,0)
(0,0,0)
(0,0,0)
(0,0,0)
(0,0,0)
(0,0,0)
(0,0,0)
(0,0,0)
(0,0,0)
(0,0,0)
(0,0,0)
(0,0,0)
(0,0,0)
(0,0,0)
(0,0,0)
(0,0,0)
(0,0,0)
(0,0,0)
(0,0,0)
(0,0,0)
(0,0,0)
(0,0,0)
(0,0,0)
(0,0,0)
(0,0,0)
(0,0,0)
(0,0,0)
(0,0,0)
(0,0,0)
(0,0,0)
(0,0,0)
(0,0,0)
(0,0,0)
(0,0,0)
(0,0,0)
(0,0,0)
(0,0,0)
(0,0,0)
(0,0,0)
(0,0,0)
(0,0,0)
(0,0,0)
(0,0,0)
(0,0,0)
(0,0,0)
(0,0,0)
(0,0,0)
(0,0,0)
(0,0,0)
(0,0,0)
(0,0,0)
(0,0,0)
(0,0,0)
(0,0,0)
(0,0,0)
(0,0,0)
(0,0,0)
(0,0,0)
(0,0,0)
(0,0,0)
(0,0,0)
(0,0,0)
(0,0,0)
(0,0,0)
(0,0,0)
(0,0,0)
(0,0,0)
(0,0,0)
(0,0,0)
(0,0,0)
(0,0,0)
(0,0,0)
(0,0,0)
(0,0,0)
(0,0,0)
(0,0,0)
(0,0,0)
(0,0,0)
(0,0,0)
(0,0,0)
(0,0,0)
(0,0,0)
(0,0,0)
(0,0,0)
(0,0,0)
(0,0,0)
(0,0,0)
(0,0,0)
(0,0,0)
(0,0,0)
(0,0,0)
(0,0,0)
(0,0,0)
(0,0,0)
(0,0,0)
(0,0,0)
(0,0,0)
(0,0,0)
(0,0,0)
(0,0,0)
(0,0,0)
(0,0,0)
(0,0,0)
(0,0,0)
(0,0,0)
(0,0,0)
(0,0,0)
(0,0,0)
(0,0,0)
(0,0,0)
(0,0,0)
(0,0,0)
(0,0,0)
(0,0,0)
(0,0,0)
(0,0,0)
(0,0,0)
(0,0,0)
(0,0,0)
(0,0,0)
(0,0,0)
(0,0,0)
(0,0,0)
(0,0,0)
(0,0,0)
(0,0,0)
(0,0,0)
(0,0,0)
(0,0,0)
(0,0,0)
(0,0,0)
(0,0,0)
(0,0,0)
(0,0,0)
(0,0,0)
(0,0,0)
(0,0,0)
(0,0,0)
(0,0,0)
(0,0,0)
(0,0,0)
(0,0,0)
(0,0,0)
(0,0,0)
(0,0,0)
(0,0,0)
(0,0,0)
(0,0,0)
(0,0,0)
(0,0,0)
(0,0,0)
(0,0,0)
(0,0,0)
(0,0,0)
(0,0,0)
(0,0,0)
(0,0,0)
(0,0,0)
(0,0,0)
(0,0,0)
(0,0,0)
(0,0,0)
(0,0,0)
(0,0,0)
(0,0,0)
(0,0,0)
(0,0,0)
(0,0,0)
(0,0,0)
(0,0,0)
(0,0,0)
(0,0,0)
(0,0,0)
(0,0,0)
(0,0,0)
(0,0,0)
(0,0,0)
(0,0,0)
(0,0,0)
(0,0,0)
(0,0,0)
(0,0,0)
(0,0,0)
(0,0,0)
(0,0,0)
(0,0,0)
(0,0,0)
(0,0,0)
(0,0,0)
(0,0,0)
(0,0,0)
(0,0,0)
(0,0,0)
(0,0,0)
(0,0,0)
(0,0,0)
(0,0,0)
(0,0,0)
(0,0,0)
(0,0,0)
(0,0,0)
(0,0,0)
(0,0,0)
(0,0,0)
(0,0,0)
(0,0,0)
(0,0,0)
(0,0,0)
(0,0,0)
(0,0,0)
(0,0,0)
(0,0,0)
(0,0,0)
(0,0,0)
(0,0,0)
(0,0,0)
(0,0,0)
(0,0,0)
(0,0,0)
(0,0,0)
(0,0,0)
(0,0,0)
(0,0,0)
(0,0,0)
(0,0,0)
(0,0,0)
(0,0,0)
(0,0,0)
(0,0,0)
(0,0,0)
(0,0,0)
(0,0,0)
(0,0,0)
(0,0,0)
(0,0,0)
(0,0,0)
(0,0,0)
(0,0,0)
(0,0,0)
(0,0,0)
(0,0,0)
(0,0,0)
(0,0,0)
(0,0,0)
(0,0,0)
(0,0,0)
(0,0,0)
(0,0,0)
(0,0,0)
(0,0,0)
(0,0,0)
(0,0,0)
(0,0,0)
(0,0,0)
(0,0,0)
(0,0,0)
(0,0,0)
(0,0,0)
(0,0,0)
(0,0,0)
(0,0,0)
(0,0,0)
(0,0,0)
(0,0,0)
(0,0,0)
(0,0,0)
(0,0,0)
(0,0,0)
(0,0,0)
(0,0,0)
(0,0,0)
(0,0,0)
(0,0,0)
(0,0,0)
(0,0,0)
(0,0,0)
(0,0,0)
(0,0,0)
(0,0,0)
(0,0,0)
(0,0,0)
(0,0,0)
(0,0,0)
(0,0,0)
(0,0,0)
(0,0,0)
(0,0,0)
(0,0,0)
(0,0,0)
(0,0,0)
(0,0,0)
(0,0,0)
(0,0,0)
(0,0,0)
(0,0,0)
(0,0,0)
(0,0,0)
(0,0,0)
(0,0,0)
(0,0,0)
(0,0,0)
(0,0,0)
(0,0,0)
(0,0,0)
(0,0,0)
(0,0,0)
(0,0,0)
(0,0,0)
(0,0,0)
(0,0,0)
(0,0,0)
(0,0,0)
(0,0,0)
(0,0,0)
(0,0,0)
(0,0,0)
(0,0,0)
(0,0,0)
(0,0,0)
(0,0,0)
(0,0,0)
(0,0,0)
(0,0,0)
(0,0,0)
(0,0,0)
(0,0,0)
(0,0,0)
(0,0,0)
(0,0,0)
(0,0,0)
(0,0,0)
(0,0,0)
(0,0,0)
(0,0,0)
(0,0,0)
(0,0,0)
(0,0,0)
(0,0,0)
(0,0,0)
(0,0,0)
(0,0,0)
(0,0,0)
(0,0,0)
(0,0,0)
(0,0,0)
(0,0,0)
(0,0,0)
(-79141.5472742412,42126.2920093282,37015.2552649121)
(-83672.089922775,40404.9307041213,80282.4144835652)
(-94143.5632585713,36788.12381333,137637.853928803)
(-113997.474290454,31105.2643743658,220530.063844902)
(-149867.847274,23463.6514116158,346934.259707286)
(-214308.603568973,14658.1663173341,546584.69695893)
(-331006.235714607,6660.05431459892,870930.878358961)
(-542010.644306646,1765.63431505433,1411175.88835056)
(-894100.39935899,108.076075537732,2305168.21163398)
(-1245866.80044277,-68.1104529519059,3551103.12252978)
(0,0,0)
(0,0,0)
(0,0,0)
(0,0,0)
(0,0,0)
(0,0,0)
(-83699.6162997245,90569.9801986145,35255.9281104364)
(-88274.1809603931,87319.3128401257,76615.7269348278)
(-98917.1017877449,80402.7820477842,131918.170488115)
(-119242.41474208,69410.8298457011,212855.019758861)
(-156119.40732582,54283.8442039921,338154.234292301)
(-222098.890849408,36286.7315220567,538624.559936975)
(-340084.857510552,19278.2359753098,866091.235786807)
(-550252.308361482,8488.96656731727,1409620.21189599)
(-899589.24538808,4210.27632840072,2305107.25703125)
(-1248444.78585272,2171.69675471133,3551312.23567621)
(0,0,0)
(0,0,0)
(0,0,0)
(0,0,0)
(0,0,0)
(0,0,0)
(-94114.7085559254,152716.624876551,31968.0638779887)
(-98755.0025022764,148318.630791095,69723.7484292987)
(-109758.663939068,138935.230324109,120949.964092047)
(-131114.665911343,123767.49174518,197707.968103912)
(-170341.163053188,102169.720273285,320163.255087793)
(-240393.138767493,75212.1965450322,521630.928832315)
(-362428.845657134,47945.1024428469,855392.908021924)
(-570822.060037458,29228.0131398456,1405475.9214868)
(-912842.358168206,19295.4266787887,2303233.12930468)
(-1254450.45607108,10482.0036578715,3549373.27847261)
(0,0,0)
(0,0,0)
(0,0,0)
(0,0,0)
(0,0,0)
(0,0,0)
(-113496.172339354,238582.609011102,27630.188204804)
(-118228.969357712,233712.651985545,60465.1363680686)
(-129684.737796215,223219.372692735,105865.73179565)
(-152524.021969539,205960.443981037,176196.801529324)
(-195624.397122629,180707.05251604,293283.866409209)
(-273522.763880713,147603.168065141,494415.658769803)
(-405227.375230262,110880.938380137,836707.198062772)
(-610626.738538478,80940.3721745668,1395621.57756651)
(-937118.501087965,57527.8975764336,2294507.60775676)
(-1265018.14719696,30967.7378125836,3539040.02079918)
(0,0,0)
(0,0,0)
(0,0,0)
(0,0,0)
(0,0,0)
(0,0,0)
(-148285.707307261,364140.053890963,22728.262427394)
(-153015.803423184,359410.328965895,50046.3888702257)
(-164705.523569317,349238.738459755,88732.5466725211)
(-188780.244446292,332381.945207212,151091.28989264)
(-235883.648528419,307437.665782957,260244.325154142)
(-323513.927058128,273652.253130539,457709.167146853)
(-470440.548676699,232298.304212998,806732.349990688)
(-671234.85710666,186625.731883724,1372281.84738823)
(-972403.713651659,134174.827697532,2268038.6309189)
(-1280337.17372664,71120.5441879188,3508222.9982702)
(0,0,0)
(0,0,0)
(0,0,0)
(0,0,0)
(0,0,0)
(0,0,0)
(-211175.369369398,557349.670366662,17965.7528937047)
(-215666.952221703,553119.900211044,39923.1338702513)
(-226969.786171124,544053.069323096,72078.5891780367)
(-250798.722233252,528866.349659734,126392.906958757)
(-298391.240522118,505615.524792554,226606.288471286)
(-387693.32395638,471487.12775385,416464.737804364)
(-535078.243347035,422711.13429562,761130.151068771)
(-726762.438002161,354569.552840687,1319948.76811398)
(-1010672.28520087,259664.031605322,2205131.84940712)
(-1299627.20001785,138604.816234044,3437274.77737878)
(0,0,0)
(0,0,0)
(0,0,0)
(0,0,0)
(0,0,0)
(0,0,0)
(-326630.338447431,870211.022883106,13768.9859309793)
(-330608.555237316,866559.869382146,30937.571997201)
(-340750.689662077,858655.890198583,57085.440783793)
(-362495.398396475,845080.634075574,103366.554764426)
(-406708.913941909,823024.432904767,192666.560594121)
(-490632.899480475,786946.238533676,367840.34929478)
(-628984.692721888,726419.010925121,693117.16538718)
(-803313.148519087,625824.430441112,1225175.43630584)
(-1067787.90379812,468293.86564081,2084333.50606841)
(-1331125.24258603,255150.386437446,3298913.17845113)
(0,0,0)
(0,0,0)
(0,0,0)
(0,0,0)
(0,0,0)
(0,0,0)
(-537759.535504633,1397824.37325381,10146.1851339266)
(-540933.994261097,1394523.63713471,23116.4116424774)
(-549094.989938611,1387189.77977787,43677.5120018198)
(-566777.093614585,1373988.83419614,81546.4054958205)
(-603132.726402935,1350915.96864083,156787.59616269)
(-672921.05698692,1309178.37236477,307476.519318506)
(-788804.096220431,1230003.43924043,592696.187223588)
(-929929.88546857,1080656.35635537,1067794.14677792)
(-1171413.10462272,836034.455460796,1871466.66158065)
(-1391326.72273421,473872.825684373,3044070.94506789)
(0,0,0)
(0,0,0)
(0,0,0)
(0,0,0)
(0,0,0)
(0,0,0)
(-891216.778174472,2282224.00482593,6817.14660234411)
(-893389.289621863,2278942.38464685,15787.6887120556)
(-898940.993342325,2271330.53634586,30587.9254863323)
(-910845.621407467,2256737.61771209,58684.7633778336)
(-934870.328085394,2229218.27064839,115252.789455671)
(-980029.724251823,2175924.74669657,228536.139375701)
(-1055890.97361779,2070867.80449981,443562.747734119)
(-1168614.43145692,1869465.30266919,823368.232877248)
(-1362497.92968357,1512378.25101849,1509522.36700302)
(-1496328.5846654,909303.62232966,2570420.15502314)
(0,0,0)
(0,0,0)
(0,0,0)
(0,0,0)
(0,0,0)
(0,0,0)
(-1244575.6541136,3523311.22913621,3488.42980331507)
(-1245655.74007066,3519911.00761072,8175.54691009417)
(-1248403.77095834,3511815.81609605,16094.0381182692)
(-1254259.91368984,3495747.30806661,31344.2614536373)
(-1265893.67257404,3464291.28179456,62164.9228815254)
(-1287637.60656066,3401940.37635774,123786.899780979)
(-1325604.40405119,3277803.90746176,242455.20087019)
(-1389579.58350726,3034986.70437697,466513.382669654)
(-1495973.60437686,2568208.4082467,906656.829818245)
(-1506627.10011617,1661327.82815662,1661259.72410751)
(0,0,0)
(0,0,0)
(0,0,0)
(0,0,0)
(0,0,0)
(0,0,0)
(0,0,0)
(0,0,0)
(0,0,0)
(0,0,0)
(0,0,0)
(0,0,0)
(0,0,0)
(0,0,0)
(0,0,0)
(0,0,0)
(0,0,0)
(0,0,0)
(0,0,0)
(0,0,0)
(0,0,0)
(0,0,0)
(0,0,0)
(0,0,0)
(0,0,0)
(0,0,0)
(0,0,0)
(0,0,0)
(0,0,0)
(0,0,0)
(0,0,0)
(0,0,0)
(0,0,0)
(0,0,0)
(0,0,0)
(0,0,0)
(0,0,0)
(0,0,0)
(0,0,0)
(0,0,0)
(0,0,0)
(0,0,0)
(0,0,0)
(0,0,0)
(0,0,0)
(0,0,0)
(0,0,0)
(0,0,0)
(0,0,0)
(0,0,0)
(0,0,0)
(0,0,0)
(0,0,0)
(0,0,0)
(0,0,0)
(0,0,0)
(0,0,0)
(0,0,0)
(0,0,0)
(0,0,0)
(0,0,0)
(0,0,0)
(0,0,0)
(0,0,0)
(0,0,0)
(0,0,0)
(0,0,0)
(0,0,0)
(0,0,0)
(0,0,0)
(0,0,0)
(0,0,0)
(0,0,0)
(0,0,0)
(0,0,0)
(0,0,0)
(0,0,0)
(0,0,0)
(0,0,0)
(0,0,0)
(0,0,0)
(0,0,0)
(0,0,0)
(0,0,0)
(0,0,0)
(0,0,0)
(0,0,0)
(0,0,0)
(0,0,0)
(0,0,0)
(0,0,0)
(0,0,0)
(0,0,0)
(0,0,0)
(0,0,0)
(0,0,0)
(0,0,0)
(0,0,0)
(0,0,0)
(0,0,0)
(0,0,0)
(0,0,0)
(11685442.5216262,37528.1873624679,32424.6460324717)
(11677839.8544414,35763.9359469065,69685.6680169516)
(11660419.5895818,31983.5615886491,117675.855883308)
(11627777.4852031,25856.2699826891,184581.528702489)
(11569566.7962887,17243.7922367841,282439.995198378)
(11465917.8965399,6912.78379687321,429837.613588024)
(11275755.3141512,-2364.81157800442,659977.777595552)
(10899821.3644805,-6477.07475844558,1059159.74586227)
(10051482.204427,-5376.40297243541,1953490.4473442)
(7747610.0632526,-2609.84805979819,4797160.33400412)
(0,0,0)
(0,0,0)
(0,0,0)
(0,0,0)
(0,0,0)
(0,0,0)
(11677655.0068989,80097.6418368869,30612.8246224646)
(11670030.5226618,76752.2149974831,65856.7442451602)
(11652447.5541014,69510.6235357288,111501.928704343)
(11619204.7589602,57536.959338971,175910.967941312)
(11559394.6057627,40086.8827742321,272090.766610809)
(11452850.1178601,18023.7704022032,420567.673591387)
(11259775.4995522,-3041.66965140632,655921.076897587)
(10885435.5827836,-12053.9446672364,1060346.95795667)
(10042553.3667091,-8999.57530826226,1956364.42049063)
(7743703.79789933,-3795.40674110171,4799938.29771518)
(0,0,0)
(0,0,0)
(0,0,0)
(0,0,0)
(0,0,0)
(0,0,0)
(11660025.1597342,133243.904747294,27250.7710948139)
(11652391.2066666,128761.492653992,58632.1865647891)
(11634436.8028378,118961.379932509,99522.8656865895)
(11599722.3145471,102340.535425754,158419.211436966)
(11535771.2546348,76899.2718680747,250031.306950639)
(11420534.7368845,42122.5653811314,399541.538615204)
(11216446.2136109,5170.05685186075,646991.655139368)
(10845683.9721735,-10537.3688446352,1063505.94940132)
(10019435.2505729,-4938.7082094161,1961704.37585665)
(7734126.29838945,-88.2264222512096,4803957.34337281)
(0,0,0)
(0,0,0)
(0,0,0)
(0,0,0)
(0,0,0)
(0,0,0)
(11627718.8219157,203731.122900863,22834.6898867974)
(11620088.2070622,198859.254190373,48956.6542259962)
(11601658.1004819,188128.768808257,82983.3293675309)
(11564642.0172397,169660.171685234,133034.556194344)
(11493071.2836381,140454.558443575,215320.491153653)
(11358125.3105958,97647.8749989995,362684.009354715)
(11120152.8933546,45675.5924923588,631335.107424838)
(10755195.913944,20317.9416397996,1069194.04675342)
(9972729.79608336,22262.7252194064,1966681.21844859)
(7716209.23967411,15674.3990570023,4804228.10839392)
(0,0,0)
(0,0,0)
(0,0,0)
(0,0,0)
(0,0,0)
(0,0,0)
(11570747.4119582,301257.541516962,17977.364413879)
(11563270.2953912,296738.168745964,38349.2533393414)
(11544732.3846542,286929.151114188,64647.8651054615)
(11505774.0380979,270349.562748921,103941.093792968)
(11425485.4730008,244962.039868254,172601.393134656)
(11260944.1025469,209519.958123063,310808.182701131)
(10946903.3985214,167686.49791096,605990.232379881)
(10587299.1860261,131102.709255613,1071208.32392681)
(9899468.0931963,95915.857173706,1960220.28741986)
(7689493.36412231,51848.2887191177,4788752.76220411)
(0,0,0)
(0,0,0)
(0,0,0)
(0,0,0)
(0,0,0)
(0,0,0)
(11469214.0638309,441945.265043841,13459.7455681305)
(11462245.2843759,438204.15353869,28618.4264731881)
(11444601.3806324,430287.880947818,48225.4321315083)
(11406376.0976347,417203.120451864,78733.9568562041)
(11325171.5715207,397375.857827241,137294.22914986)
(11155896.0369814,368652.961389247,269108.767241242)
(10837819.0683255,328931.942974959,569502.912800222)
(10494090.6369181,278150.80215782,1036138.64727314)
(9836965.69063806,202632.701062957,1916320.72984045)
(7658832.29349166,107147.711782319,4737098.71556307)
(0,0,0)
(0,0,0)
(0,0,0)
(0,0,0)
(0,0,0)
(0,0,0)
(11280938.2994035,659144.898132773,9768.63135562492)
(11274858.9057847,656267.91919673,20774.3069710258)
(11259229.971113,650337.312619173,35281.1168200882)
(11224567.4526841,640867.917555346,59090.3709314511)
(11148835.6889039,626734.690541306,108723.837667014)
(10986909.7784725,604848.535846132,229522.4875525)
(10678311.5293082,566819.000051468,518876.110741295)
(10368059.5340683,499402.411328947,960788.721278204)
(9744289.80331364,364765.197498994,1821115.42002574)
(7606479.27241527,194978.801309508,4630216.71779275)
(0,0,0)
(0,0,0)
(0,0,0)
(0,0,0)
(0,0,0)
(0,0,0)
(10904648.3650581,1044356.54225547,6917.35761004675)
(10899853.5848608,1042044.51417422,14890.0858060189)
(10887415.6135779,1037337.28602188,25916.4111822956)
(10859423.6013819,1029985.6669669,45134.8690696533)
(10796996.3235409,1019305.57739553,86971.8345669174)
(10659588.7282143,1002232.43735493,191615.050152526)
(10389413.3662943,963122.234429516,451631.255555253)
(10187112.7564286,842165.688514807,826362.238767557)
(9557509.14543278,645081.722506215,1651660.36600028)
(7485365.54001918,368928.618351795,4435555.1885)
(0,0,0)
(0,0,0)
(0,0,0)
(0,0,0)
(0,0,0)
(0,0,0)
(10054218.9342151,1928863.08688545,4594.64527591821)
(10050974.322331,1926643.45855306,10168.9912397338)
(10042669.3888101,1921825.05332703,18607.7440775657)
(10024350.4441956,1913342.89839352,34591.3493432699)
(9985260.32031281,1898269.74586117,70033.4347748157)
(9905676.2118677,1868425.50093266,152671.337373135)
(9762226.4367245,1801330.39767218,330882.666083722)
(9560772.84714696,1648662.36971459,629535.608575578)
(8991874.01210811,1378993.99298322,1375788.29860237)
(7117020.33537694,899049.644596646,4066855.25461064)
(0,0,0)
(0,0,0)
(0,0,0)
(0,0,0)
(0,0,0)
(0,0,0)
(7748539.66475342,4767910.22125934,2374.44905447616)
(7746944.86506294,4765587.61628196,5366.58848732631)
(7742896.85604946,4760246.90861765,10181.0084844003)
(7734084.31936585,4750061.96439047,19654.6117273349)
(7715895.69171127,4730304.77684167,40367.1187570522)
(7680131.84385756,4689758.75382506,85801.3177419449)
(7613917.8554524,4603666.36242893,178479.995777077)
(7487145.88637111,4424816.92820552,360136.869703386)
(7117284.37270479,4064346.64510885,896063.142791619)
(5787006.04757355,3168057.23370299,3167959.30829099)
(0,0,0)
(0,0,0)
(0,0,0)
(0,0,0)
(0,0,0)
(0,0,0)
(0,0,0)
(0,0,0)
(0,0,0)
(0,0,0)
(0,0,0)
(0,0,0)
(0,0,0)
(0,0,0)
(0,0,0)
(0,0,0)
(0,0,0)
(0,0,0)
(0,0,0)
(0,0,0)
(0,0,0)
(0,0,0)
(0,0,0)
(0,0,0)
(0,0,0)
(0,0,0)
(0,0,0)
(0,0,0)
(0,0,0)
(0,0,0)
(0,0,0)
(0,0,0)
(0,0,0)
(0,0,0)
(0,0,0)
(0,0,0)
(0,0,0)
(0,0,0)
(0,0,0)
(0,0,0)
(0,0,0)
(0,0,0)
(0,0,0)
(0,0,0)
(0,0,0)
(0,0,0)
(0,0,0)
(0,0,0)
(0,0,0)
(0,0,0)
(0,0,0)
(0,0,0)
(0,0,0)
(0,0,0)
(0,0,0)
(0,0,0)
(0,0,0)
(0,0,0)
(0,0,0)
(0,0,0)
(0,0,0)
(0,0,0)
(0,0,0)
(0,0,0)
(0,0,0)
(0,0,0)
(0,0,0)
(0,0,0)
(0,0,0)
(0,0,0)
(0,0,0)
(0,0,0)
(0,0,0)
(0,0,0)
(0,0,0)
(0,0,0)
(0,0,0)
(0,0,0)
(0,0,0)
(0,0,0)
(0,0,0)
(0,0,0)
(0,0,0)
(0,0,0)
(0,0,0)
(0,0,0)
(0,0,0)
(0,0,0)
(0,0,0)
(0,0,0)
(0,0,0)
(0,0,0)
(0,0,0)
(0,0,0)
(0,0,0)
(0,0,0)
(0,0,0)
(0,0,0)
(0,0,0)
(0,0,0)
(0,0,0)
(0,0,0)
(-203605.441058879,29738.5870428978,24772.4733468014)
(-212006.304729357,27951.9393897488,52129.7908322444)
(-230914.691470338,24011.3269735409,84915.8426154678)
(-265419.549651473,17286.9612214205,126289.013953193)
(-324550.551673867,7101.90893881666,178767.550681579)
(-423330.679479897,-6124.49047139003,239603.714877362)
(-584907.149022838,-18294.5493021068,284023.82505814)
(-840725.152885169,-20846.9550021955,210880.395130578)
(-1207613.62382139,-14318.3486191843,-350242.330297314)
(-1480532.60059956,-6532.78671813771,-2950103.78202242)
(0,0,0)
(0,0,0)
(0,0,0)
(0,0,0)
(0,0,0)
(0,0,0)
(-212532.563347844,62431.6244903915,22957.6305037385)
(-220792.986990302,59038.6362138525,48157.54103627)
(-239512.189190334,51468.0296654905,78123.6793406456)
(-274034.93180969,38085.8416902706,116027.587346157)
(-334072.006518975,16534.263940144,165524.942331057)
(-435511.264935036,-14223.1275741188,227448.059933504)
(-600843.262382922,-46311.0238744132,281546.3941454)
(-854158.024196971,-51758.2236976599,217514.367526018)
(-1214329.03755638,-32102.4423871282,-342356.036735853)
(-1482884.5260476,-13395.8708631182,-2943441.53093924)
(0,0,0)
(0,0,0)
(0,0,0)
(0,0,0)
(0,0,0)
(0,0,0)
(-232410.79224257,100755.541349093,19575.1328227224)
(-240386.907728529,96258.9003200352,40596.0808163046)
(-258779.797383833,86048.0614456095,64695.7469623656)
(-293639.239605813,67205.1569036102,94401.0836063475)
(-356777.770529799,34186.5678707606,134760.902544817)
(-468613.227869877,-20262.7388913671,195411.576320954)
(-654087.039933816,-91103.1514080563,276200.055103846)
(-900701.795818227,-101021.126015185,237311.823117599)
(-1234718.34963987,-51662.1086689675,-323511.81268307)
(-1489396.01022844,-18050.4305994043,-2929871.84662443)
(0,0,0)
(0,0,0)
(0,0,0)
(0,0,0)
(0,0,0)
(0,0,0)
(-267801.124315641,146576.162911099,15162.4223739088)
(-275362.35718086,141850.417781196,30484.566860318)
(-293273.528627515,131041.453698445,45885.9014214967)
(-328884.976368167,110696.176657643,61384.9729797971)
(-399041.565612185,72809.0643144081,80338.4234909073)
(-541484.616312328,471.131444553226,124677.577767694)
(-819635.097330891,-127547.249977217,266372.764726854)
(-1053213.58157318,-147585.160328957,286809.39226232)
(-1285884.00468185,-51028.5947234364,-289747.223213326)
(-1503424.202906,-11049.1899752957,-2911651.9235529)
(0,0,0)
(0,0,0)
(0,0,0)
(0,0,0)
(0,0,0)
(0,0,0)
(-327391.306432261,199670.54200886,10507.4369972563)
(-334366.510548489,195638.474750288,19819.2836724107)
(-351293.972894664,186707.666480182,25642.5261439628)
(-386912.110950314,170903.50268324,23584.4468711957)
(-465361.274350455,144636.758412988,8066.59782828905)
(-666347.132782669,104523.671121423,-3231.60881456794)
(-1323491.24087503,58689.4192867268,246389.459022434)
(-1569850.31654472,37943.4875629508,383473.411405884)
(-1386413.21169918,33395.8504780712,-249606.631195464)
(-1526494.42415943,21178.7142990411,-2900383.64948344)
(0,0,0)
(0,0,0)
(0,0,0)
(0,0,0)
(0,0,0)
(0,0,0)
(-425757.49477076,253608.650958579,6496.54735663923)
(-431889.728361143,250761.96009585,10971.1724527463)
(-447034.419761307,244855.885945951,9921.85108520475)
(-480114.963303175,235347.247121038,-2567.7347103048)
(-556380.745335433,221067.878727196,-31983.4404638322)
(-756940.14797403,199804.400010243,-48964.8866925628)
(-1382390.9051402,169626.685321677,225770.918442648)
(-1608105.25763341,152272.336041045,379101.062220612)
(-1433496.71845288,110024.870974367,-261602.45148031)
(-1549635.72932388,54822.6305876926,-2921315.24724874)
(0,0,0)
(0,0,0)
(0,0,0)
(0,0,0)
(0,0,0)
(0,0,0)
(-586490.620692426,282816.89101722,3683.77774178021)
(-591564.780395909,281221.889737968,5110.63198481424)
(-604292.75732886,278475.233155828,477.110921284177)
(-633101.709024,275707.765385548,-16751.1479305387)
(-703157.687916374,274984.753259279,-53211.5479377806)
(-899703.800147398,277725.153061594,-79055.624664569)
(-1552498.29187428,278161.159530863,208682.820013343)
(-1761298.3077641,318655.044111283,337121.051480133)
(-1504706.75095738,178097.574092293,-316491.999662035)
(-1587817.48656287,73920.6065060199,-2975830.11889774)
(0,0,0)
(0,0,0)
(0,0,0)
(0,0,0)
(0,0,0)
(0,0,0)
(-843047.636813109,193866.402440018,2109.58815293037)
(-846872.016224268,193110.465062736,2409.71161787485)
(-856577.233613519,192545.830595822,-2204.94092619856)
(-879170.818713805,194934.515358313,-17374.1730986624)
(-937195.034229284,207696.4119895,-50431.3763540227)
(-1117660.03700744,248529.581589186,-78523.9419554777)
(-1831081.45023542,336200.129408085,249395.00240152)
(-1492304.90928776,216082.879561992,196847.930371756)
(-1561434.50985568,79664.212150204,-420311.95469306)
(-1646860.74473966,721.377789934921,-3049423.34351345)
(0,0,0)
(0,0,0)
(0,0,0)
(0,0,0)
(0,0,0)
(0,0,0)
(-1211013.06115809,-376795.922171609,1357.41768934986)
(-1213510.34329061,-377416.34806911,1831.99414728929)
(-1219713.7600787,-377989.094873729,213.166210230522)
(-1233612.81861365,-376886.863682145,-4539.09423546673)
(-1265614.57861702,-370965.658620396,-9539.02699112987)
(-1342222.97000641,-356914.59771994,9267.43189651458)
(-1509674.69564747,-346676.842148714,129508.633529786)
(-1564248.48618855,-424662.067846473,60738.0119782379)
(-1708028.9116858,-495325.985042828,-498905.769330254)
(-1735070.38989226,-430785.789601436,-3049844.77896516)
(0,0,0)
(0,0,0)
(0,0,0)
(0,0,0)
(0,0,0)
(0,0,0)
(-1483065.1854019,-2980490.9560096,762.981697870756)
(-1484259.64447804,-2981243.98795196,1258.22882621411)
(-1487209.31460618,-2982494.97147282,1333.37378552815)
(-1493656.56346329,-2983818.61432666,1469.10496362637)
(-1507433.5393356,-2985321.72307691,4617.49817156496)
(-1536303.13586179,-2990022.2784507,19623.2563261507)
(-1589618.3998084,-3009805.98304295,51751.7501857376)
(-1648787.0374745,-3061853.50730238,-9660.78880836497)
(-1735639.33008183,-3052491.73142272,-434108.241937355)
(-1674976.68726043,-2618623.27891712,-2618824.92008323)
(0,0,0)
(0,0,0)
(0,0,0)
(0,0,0)
(0,0,0)
(0,0,0)
(0,0,0)
(0,0,0)
(0,0,0)
(0,0,0)
(0,0,0)
(0,0,0)
(0,0,0)
(0,0,0)
(0,0,0)
(0,0,0)
(0,0,0)
(0,0,0)
(0,0,0)
(0,0,0)
(0,0,0)
(0,0,0)
(0,0,0)
(0,0,0)
(0,0,0)
(0,0,0)
(0,0,0)
(0,0,0)
(0,0,0)
(0,0,0)
(0,0,0)
(0,0,0)
(0,0,0)
(0,0,0)
(0,0,0)
(0,0,0)
(0,0,0)
(0,0,0)
(0,0,0)
(0,0,0)
(0,0,0)
(0,0,0)
(0,0,0)
(0,0,0)
(0,0,0)
(0,0,0)
(0,0,0)
(0,0,0)
(0,0,0)
(0,0,0)
(0,0,0)
(0,0,0)
(0,0,0)
(0,0,0)
(0,0,0)
(0,0,0)
(0,0,0)
(0,0,0)
(0,0,0)
(0,0,0)
(0,0,0)
(0,0,0)
(0,0,0)
(0,0,0)
(0,0,0)
(0,0,0)
(0,0,0)
(0,0,0)
(0,0,0)
(0,0,0)
(0,0,0)
(0,0,0)
(0,0,0)
(0,0,0)
(0,0,0)
(0,0,0)
(0,0,0)
(0,0,0)
(0,0,0)
(0,0,0)
(0,0,0)
(0,0,0)
(0,0,0)
(0,0,0)
(0,0,0)
(0,0,0)
(0,0,0)
(0,0,0)
(0,0,0)
(0,0,0)
(0,0,0)
(0,0,0)
(0,0,0)
(0,0,0)
(0,0,0)
(0,0,0)
(0,0,0)
(0,0,0)
(0,0,0)
(0,0,0)
(0,0,0)
(0,0,0)
(-240777.536251018,20838.6972225195,16333.3979696195)
(-247904.766996792,19200.0936754052,33031.7665616534)
(-263558.668813877,15455.9928451252,50219.751060069)
(-290910.527693688,8704.38814893023,67006.3409533508)
(-335100.233396346,-2368.26632403919,79924.2889998683)
(-403137.279573074,-18246.5208011743,77977.4098942197)
(-500969.891729709,-34173.1315017539,28213.284102845)
(-622332.084357115,-34247.7172821526,-155932.067143055)
(-719449.565633125,-21043.3558270436,-623052.769504244)
(-625230.446492897,-8936.69820646118,-1469418.22540442)
(0,0,0)
(0,0,0)
(0,0,0)
(0,0,0)
(0,0,0)
(0,0,0)
(-248894.046894669,42519.5264534858,14680.6543158569)
(-255621.599370413,39427.1740294164,29282.1863419584)
(-270401.793616178,32213.8914138632,43413.892199069)
(-296300.528917471,18504.1737157924,55879.7037399811)
(-338485.253026432,-6134.12087114163,64058.8047945352)
(-404531.978601353,-47269.6001400212,62102.5977997042)
(-501665.570510259,-99497.0576068828,28248.8320321716)
(-619304.344250299,-98267.9015677883,-142584.663628863)
(-714625.751000445,-52503.8991539558,-610827.40685787)
(-622270.767353661,-19966.8860535501,-1460410.9777048)
(0,0,0)
(0,0,0)
(0,0,0)
(0,0,0)
(0,0,0)
(0,0,0)
(-266624.78442993,65157.1255677868,11576.393073065)
(-272583.346357061,61122.8635648622,22077.1421661494)
(-285635.026229186,51464.0483914861,29682.2140338776)
(-308540.260951619,31911.4606644726,31175.9484310032)
(-346485.231699898,-8124.84925317491,22874.1379831338)
(-409747.581161356,-93153.780776831,9892.6719114068)
(-516644.697240733,-256633.374926525,29586.6465379663)
(-619223.112412821,-253527.852766236,-96632.0856690101)
(-702905.068017376,-102833.333576682,-578115.932868768)
(-615050.814781017,-32100.83237433,-1440327.18199543)
(0,0,0)
(0,0,0)
(0,0,0)
(0,0,0)
(0,0,0)
(0,0,0)
(-297081.659054277,86876.4252365664,7561.23506986583)
(-301958.507278459,82801.8374879861,12478.4112443457)
(-312500.213026068,73007.0069142819,10162.1371201062)
(-330580.38755639,52645.4554981918,-8876.44652538982)
(-360284.34057244,6436.87181171956,-62195.3926300274)
(-418909.486284219,-124385.725865283,-153538.577569691)
(-631269.998087022,-631320.629177589,32783.5774375011)
(-664023.16939668,-664160.345186268,54225.6576810246)
(-675743.747811173,-151552.455313719,-507195.47745263)
(-600547.832948684,-34118.0942969477,-1408054.58548739)
(0,0,0)
(0,0,0)
(0,0,0)
(0,0,0)
(0,0,0)
(0,0,0)
(-345382.603902482,101323.035307227,3544.68739956001)
(-349004.425847551,98167.933404097,2816.50678251261)
(-356372.471498664,90997.6210030077,-10095.6087022052)
(-367011.315930298,77668.9802692406,-55019.9284932688)
(-374480.370224053,53580.8029650752,-193044.763773033)
(-337317.185497956,13991.3351749288,-660451.772097965)
(8.28697209101719e-05,2.36417022100146e-05,-5.55800020168065e-05)