/*--------------------------------*- C++ -*----------------------------------*\
| =========                 |                                                 |
| \\      /  F ield         | foam-extend: Open Source CFD                    |
|  \\    /   O peration     | Version:     4.0                                |
|   \\  /    A nd           | Web:         http://www.foam-extend.org         |
|    \\/     M anipulation  |                                                 |
\*---------------------------------------------------------------------------*/
FoamFile
{
    version 2.0;
    format ascii;
    class volVectorField;
    location "Data/2054";
    object      E;
}
// * * * * * * * * * * * * * * * * * * * * * * * * * * * * * * * * * * * * * //

dimensions      [0 1 -1 0 0 0 0];

internalField   nonuniform List<vector>
4096
(
(0,0,0)
(0,0,0)
(0,0,0)
(0,0,0)
(0,0,0)
(0,0,0)
(0,0,0)
(0,0,0)
(0,0,0)
(0,0,0)
(0,0,0)
(0,0,0)
(0,0,0)
(0,0,0)
(0,0,0)
(0,0,0)
(0,0,0)
(0,0,0)
(0,0,0)
(0,0,0)
(0,0,0)
(0,0,0)
(0,0,0)
(0,0,0)
(0,0,0)
(0,0,0)
(0,0,0)
(0,0,0)
(0,0,0)
(0,0,0)
(0,0,0)
(0,0,0)
(0,0,0)
(0,0,0)
(0,0,0)
(0,0,0)
(0,0,0)
(0,0,0)
(0,0,0)
(0,0,0)
(0,0,0)
(0,0,0)
(0,0,0)
(0,0,0)
(0,0,0)
(0,0,0)
(0,0,0)
(0,0,0)
(0,0,0)
(0,0,0)
(0,0,0)
(0,0,0)
(0,0,0)
(0,0,0)
(0,0,0)
(0,0,0)
(0,0,0)
(0,0,0)
(0,0,0)
(0,0,0)
(0,0,0)
(0,0,0)
(0,0,0)
(0,0,0)
(0,0,0)
(0,0,0)
(0,0,0)
(0,0,0)
(0,0,0)
(0,0,0)
(0,0,0)
(0,0,0)
(0,0,0)
(0,0,0)
(0,0,0)
(0,0,0)
(0,0,0)
(0,0,0)
(0,0,0)
(0,0,0)
(0,0,0)
(0,0,0)
(0,0,0)
(0,0,0)
(0,0,0)
(0,0,0)
(0,0,0)
(0,0,0)
(0,0,0)
(0,0,0)
(0,0,0)
(0,0,0)
(0,0,0)
(0,0,0)
(0,0,0)
(0,0,0)
(0,0,0)
(0,0,0)
(0,0,0)
(0,0,0)
(0,0,0)
(0,0,0)
(0,0,0)
(0,0,0)
(0,0,0)
(0,0,0)
(0,0,0)
(0,0,0)
(0,0,0)
(0,0,0)
(0,0,0)
(0,0,0)
(0,0,0)
(0,0,0)
(0,0,0)
(0,0,0)
(0,0,0)
(0,0,0)
(0,0,0)
(0,0,0)
(0,0,0)
(0,0,0)
(0,0,0)
(0,0,0)
(0,0,0)
(0,0,0)
(0,0,0)
(0,0,0)
(0,0,0)
(0,0,0)
(0,0,0)
(0,0,0)
(0,0,0)
(0,0,0)
(0,0,0)
(0,0,0)
(0,0,0)
(0,0,0)
(0,0,0)
(0,0,0)
(0,0,0)
(0,0,0)
(0,0,0)
(0,0,0)
(0,0,0)
(0,0,0)
(0,0,0)
(0,0,0)
(0,0,0)
(0,0,0)
(0,0,0)
(0,0,0)
(0,0,0)
(0,0,0)
(0,0,0)
(0,0,0)
(0,0,0)
(0,0,0)
(0,0,0)
(0,0,0)
(0,0,0)
(0,0,0)
(0,0,0)
(0,0,0)
(0,0,0)
(0,0,0)
(0,0,0)
(0,0,0)
(0,0,0)
(0,0,0)
(0,0,0)
(0,0,0)
(0,0,0)
(0,0,0)
(0,0,0)
(0,0,0)
(0,0,0)
(0,0,0)
(0,0,0)
(0,0,0)
(0,0,0)
(0,0,0)
(0,0,0)
(0,0,0)
(0,0,0)
(0,0,0)
(0,0,0)
(0,0,0)
(0,0,0)
(0,0,0)
(0,0,0)
(0,0,0)
(0,0,0)
(0,0,0)
(0,0,0)
(0,0,0)
(0,0,0)
(0,0,0)
(0,0,0)
(0,0,0)
(0,0,0)
(0,0,0)
(0,0,0)
(0,0,0)
(0,0,0)
(0,0,0)
(0,0,0)
(0,0,0)
(0,0,0)
(0,0,0)
(0,0,0)
(0,0,0)
(0,0,0)
(0,0,0)
(0,0,0)
(0,0,0)
(0,0,0)
(0,0,0)
(0,0,0)
(0,0,0)
(0,0,0)
(0,0,0)
(0,0,0)
(0,0,0)
(0,0,0)
(0,0,0)
(0,0,0)
(0,0,0)
(0,0,0)
(0,0,0)
(0,0,0)
(0,0,0)
(0,0,0)
(0,0,0)
(0,0,0)
(0,0,0)
(0,0,0)
(0,0,0)
(0,0,0)
(0,0,0)
(0,0,0)
(0,0,0)
(0,0,0)
(0,0,0)
(0,0,0)
(0,0,0)
(0,0,0)
(0,0,0)
(0,0,0)
(0,0,0)
(0,0,0)
(0,0,0)
(0,0,0)
(0,0,0)
(0,0,0)
(0,0,0)
(0,0,0)
(0,0,0)
(0,0,0)
(0,0,0)
(0,0,0)
(0,0,0)
(0,0,0)
(0,0,0)
(0,0,0)
(0,0,0)
(0,0,0)
(0,0,0)
(0,0,0)
(0,0,0)
(0,0,0)
(0,0,0)
(0,0,0)
(0,0,0)
(0,0,0)
(0,0,0)
(0,0,0)
(0,0,0)
(0,0,0)
(0,0,0)
(0,0,0)
(0,0,0)
(0,0,0)
(0,0,0)
(0,0,0)
(0,0,0)
(0,0,0)
(0,0,0)
(0,0,0)
(0,0,0)
(0,0,0)
(0,0,0)
(0,0,0)
(0,0,0)
(0,0,0)
(0,0,0)
(0,0,0)
(0,0,0)
(0,0,0)
(0,0,0)
(0,0,0)
(0,0,0)
(0,0,0)
(0,0,0)
(0,0,0)
(0,0,0)
(0,0,0)
(0,0,0)
(0,0,0)
(0,0,0)
(0,0,0)
(0,0,0)
(0,0,0)
(0,0,0)
(0,0,0)
(0,0,0)
(0,0,0)
(0,0,0)
(0,0,0)
(0,0,0)
(0,0,0)
(0,0,0)
(0,0,0)
(0,0,0)
(0,0,0)
(0,0,0)
(0,0,0)
(0,0,0)
(0,0,0)
(0,0,0)
(0,0,0)
(0,0,0)
(0,0,0)
(0,0,0)
(0,0,0)
(0,0,0)
(0,0,0)
(0,0,0)
(0,0,0)
(0,0,0)
(0,0,0)
(0,0,0)
(0,0,0)
(0,0,0)
(0,0,0)
(0,0,0)
(0,0,0)
(0,0,0)
(0,0,0)
(0,0,0)
(0,0,0)
(0,0,0)
(0,0,0)
(0,0,0)
(0,0,0)
(0,0,0)
(0,0,0)
(0,0,0)
(0,0,0)
(0,0,0)
(0,0,0)
(0,0,0)
(0,0,0)
(0,0,0)
(0,0,0)
(0,0,0)
(0,0,0)
(0,0,0)
(0,0,0)
(0,0,0)
(0,0,0)
(0,0,0)
(0,0,0)
(0,0,0)
(0,0,0)
(0,0,0)
(0,0,0)
(0,0,0)
(0,0,0)
(0,0,0)
(0,0,0)
(0,0,0)
(0,0,0)
(0,0,0)
(0,0,0)
(0,0,0)
(0,0,0)
(0,0,0)
(0,0,0)
(0,0,0)
(0,0,0)
(0,0,0)
(0,0,0)
(0,0,0)
(0,0,0)
(0,0,0)
(0,0,0)
(0,0,0)
(0,0,0)
(0,0,0)
(0,0,0)
(0,0,0)
(0,0,0)
(0,0,0)
(0,0,0)
(0,0,0)
(0,0,0)
(0,0,0)
(0,0,0)
(0,0,0)
(0,0,0)
(0,0,0)
(0,0,0)
(0,0,0)
(0,0,0)
(0,0,0)
(0,0,0)
(0,0,0)
(0,0,0)
(0,0,0)
(0,0,0)
(0,0,0)
(0,0,0)
(0,0,0)
(0,0,0)
(0,0,0)
(0,0,0)
(0,0,0)
(0,0,0)
(0,0,0)
(0,0,0)
(0,0,0)
(0,0,0)
(0,0,0)
(0,0,0)
(0,0,0)
(0,0,0)
(0,0,0)
(0,0,0)
(0,0,0)
(0,0,0)
(0,0,0)
(0,0,0)
(0,0,0)
(0,0,0)
(0,0,0)
(0,0,0)
(0,0,0)
(0,0,0)
(0,0,0)
(0,0,0)
(0,0,0)
(0,0,0)
(0,0,0)
(0,0,0)
(0,0,0)
(0,0,0)
(0,0,0)
(0,0,0)
(0,0,0)
(0,0,0)
(0,0,0)
(0,0,0)
(0,0,0)
(0,0,0)
(0,0,0)
(0,0,0)
(0,0,0)
(0,0,0)
(0,0,0)
(0,0,0)
(0,0,0)
(0,0,0)
(0,0,0)
(0,0,0)
(0,0,0)
(0,0,0)
(0,0,0)
(0,0,0)
(0,0,0)
(0,0,0)
(0,0,0)
(0,0,0)
(0,0,0)
(0,0,0)
(0,0,0)
(0,0,0)
(0,0,0)
(0,0,0)
(0,0,0)
(0,0,0)
(0,0,0)
(0,0,0)
(0,0,0)
(0,0,0)
(0,0,0)
(0,0,0)
(0,0,0)
(0,0,0)
(0,0,0)
(0,0,0)
(0,0,0)
(0,0,0)
(0,0,0)
(0,0,0)
(0,0,0)
(0,0,0)
(0,0,0)
(0,0,0)
(0,0,0)
(0,0,0)
(0,0,0)
(0,0,0)
(0,0,0)
(0,0,0)
(0,0,0)
(0,0,0)
(0,0,0)
(0,0,0)
(0,0,0)
(0,0,0)
(0,0,0)
(0,0,0)
(0,0,0)
(0,0,0)
(0,0,0)
(0,0,0)
(0,0,0)
(0,0,0)
(0,0,0)
(0,0,0)
(0,0,0)
(0,0,0)
(0,0,0)
(0,0,0)
(0,0,0)
(0,0,0)
(0,0,0)
(0,0,0)
(0,0,0)
(0,0,0)
(0,0,0)
(0,0,0)
(0,0,0)
(0,0,0)
(0,0,0)
(0,0,0)
(0,0,0)
(0,0,0)
(0,0,0)
(0,0,0)
(0,0,0)
(0,0,0)
(0,0,0)
(0,0,0)
(0,0,0)
(0,0,0)
(0,0,0)
(0,0,0)
(0,0,0)
(0,0,0)
(0,0,0)
(0,0,0)
(0,0,0)
(0,0,0)
(0,0,0)
(0,0,0)
(0,0,0)
(0,0,0)
(0,0,0)
(0,0,0)
(0,0,0)
(0,0,0)
(0,0,0)
(0,0,0)
(0,0,0)
(0,0,0)
(0,0,0)
(0,0,0)
(0,0,0)
(0,0,0)
(0,0,0)
(0,0,0)
(0,0,0)
(0,0,0)
(0,0,0)
(0,0,0)
(0,0,0)
(0,0,0)
(0,0,0)
(0,0,0)
(0,0,0)
(0,0,0)
(0,0,0)
(0,0,0)
(0,0,0)
(0,0,0)
(0,0,0)
(0,0,0)
(0,0,0)
(0,0,0)
(0,0,0)
(0,0,0)
(0,0,0)
(0,0,0)
(0,0,0)
(0,0,0)
(0,0,0)
(0,0,0)
(0,0,0)
(0,0,0)
(0,0,0)
(0,0,0)
(0,0,0)
(0,0,0)
(0,0,0)
(0,0,0)
(0,0,0)
(0,0,0)
(0,0,0)
(0,0,0)
(0,0,0)
(0,0,0)
(0,0,0)
(0,0,0)
(0,0,0)
(0,0,0)
(0,0,0)
(0,0,0)
(0,0,0)
(0,0,0)
(0,0,0)
(0,0,0)
(0,0,0)
(0,0,0)
(0,0,0)
(0,0,0)
(0,0,0)
(0,0,0)
(0,0,0)
(0,0,0)
(0,0,0)
(0,0,0)
(0,0,0)
(0,0,0)
(0,0,0)
(0,0,0)
(0,0,0)
(0,0,0)
(0,0,0)
(0,0,0)
(0,0,0)
(0,0,0)
(0,0,0)
(0,0,0)
(0,0,0)
(0,0,0)
(0,0,0)
(0,0,0)
(0,0,0)
(0,0,0)
(0,0,0)
(0,0,0)
(0,0,0)
(0,0,0)
(0,0,0)
(0,0,0)
(0,0,0)
(0,0,0)
(0,0,0)
(0,0,0)
(0,0,0)
(0,0,0)
(0,0,0)
(0,0,0)
(0,0,0)
(0,0,0)
(0,0,0)
(0,0,0)
(0,0,0)
(0,0,0)
(0,0,0)
(0,0,0)
(0,0,0)
(0,0,0)
(0,0,0)
(0,0,0)
(0,0,0)
(0,0,0)
(0,0,0)
(0,0,0)
(0,0,0)
(0,0,0)
(0,0,0)
(0,0,0)
(0,0,0)
(0,0,0)
(0,0,0)
(0,0,0)
(0,0,0)
(0,0,0)
(0,0,0)
(0,0,0)
(0,0,0)
(0,0,0)
(0,0,0)
(0,0,0)
(0,0,0)
(0,0,0)
(0,0,0)
(0,0,0)
(0,0,0)
(0,0,0)
(0,0,0)
(0,0,0)
(0,0,0)
(0,0,0)
(0,0,0)
(0,0,0)
(0,0,0)
(0,0,0)
(0,0,0)
(0,0,0)
(0,0,0)
(0,0,0)
(0,0,0)
(0,0,0)
(0,0,0)
(0,0,0)
(0,0,0)
(0,0,0)
(0,0,0)
(0,0,0)
(0,0,0)
(0,0,0)
(0,0,0)
(0,0,0)
(0,0,0)
(0,0,0)
(0,0,0)
(0,0,0)
(0,0,0)
(0,0,0)
(0,0,0)
(0,0,0)
(0,0,0)
(0,0,0)
(0,0,0)
(0,0,0)
(0,0,0)
(0,0,0)
(0,0,0)
(0,0,0)
(0,0,0)
(0,0,0)
(0,0,0)
(0,0,0)
(0,0,0)
(0,0,0)
(0,0,0)
(0,0,0)
(0,0,0)
(0,0,0)
(0,0,0)
(0,0,0)
(0,0,0)
(0,0,0)
(0,0,0)
(0,0,0)
(0,0,0)
(0,0,0)
(0,0,0)
(0,0,0)
(0,0,0)
(0,0,0)
(0,0,0)
(0,0,0)
(0,0,0)
(0,0,0)
(0,0,0)
(0,0,0)
(0,0,0)
(0,0,0)
(0,0,0)
(0,0,0)
(0,0,0)
(0,0,0)
(0,0,0)
(0,0,0)
(0,0,0)
(0,0,0)
(0,0,0)
(0,0,0)
(0,0,0)
(0,0,0)
(0,0,0)
(0,0,0)
(0,0,0)
(0,0,0)
(0,0,0)
(0,0,0)
(0,0,0)
(0,0,0)
(0,0,0)
(0,0,0)
(0,0,0)
(0,0,0)
(0,0,0)
(0,0,0)
(0,0,0)
(0,0,0)
(0,0,0)
(0,0,0)
(0,0,0)
(0,0,0)
(0,0,0)
(0,0,0)
(0,0,0)
(0,0,0)
(-808.694465491383,560.837476070193,247.856989419609)
(-834.573423661768,533.439966616731,548.990446464792)
(-962.045098589775,512.683620043839,998.35192501095)
(-1223.00676985215,472.908418640162,1748.45027622851)
(-1617.15230247762,360.811188424252,3004.7913902917)
(-2421.71307880536,259.928991479257,5166.57547760893)
(-3904.35934119837,176.11314806947,8894.82167076204)
(-6595.49873844451,90.7194367333103,15399.6009725132)
(-11163.0470070967,72.4513164320285,26490.1966631489)
(-15842.2724246184,51.2250076957325,42281.2440801012)
(0,0,0)
(0,0,0)
(0,0,0)
(0,0,0)
(0,0,0)
(0,0,0)
(-870.499248324176,1167.30552218284,264.031202209816)
(-890.511592753626,1131.67636379716,556.306397788014)
(-1017.46075988818,1081.95673946094,1004.49403825516)
(-1285.92282356481,1028.0819977058,1735.24328276077)
(-1709.4507660821,827.936336434828,2977.56890082173)
(-2513.11963878208,606.936482043101,5143.68104903852)
(-4003.07702626245,422.990956869013,8899.88026650099)
(-6677.62361895115,253.432189717562,15414.7911323915)
(-11210.1510651877,176.973318563857,26520.4201954946)
(-15860.2567183607,102.416443353431,42329.4854781327)
(0,0,0)
(0,0,0)
(0,0,0)
(0,0,0)
(0,0,0)
(0,0,0)
(-1022.50048418622,1927.73381803286,262.072188335826)
(-1067.52051454431,1918.46948651625,542.799580164088)
(-1184.83810035316,1853.95439527807,955.640024704782)
(-1455.16264100683,1764.74116238532,1674.1435010346)
(-1916.35369340342,1530.37612775862,2888.05740310243)
(-2749.45779845395,1191.73350642015,5052.71817717859)
(-4262.75037051764,865.525655517883,8872.93384906267)
(-6906.69042292621,562.173906129247,15470.8825555522)
(-11361.3701284745,377.117454476463,26632.1085481347)
(-15931.6337120327,205.242775194238,42460.9159283934)
(0,0,0)
(0,0,0)
(0,0,0)
(0,0,0)
(0,0,0)
(0,0,0)
(-1255.40142016075,3000.22540919548,182.909828999541)
(-1325.84557346482,2981.92794938086,445.296939601877)
(-1455.73017930866,2927.32488436483,827.656629816781)
(-1740.72849914753,2806.31229154247,1526.8139997987)
(-2220.52974702844,2558.95814073111,2718.76173386181)
(-3138.45654625616,2154.407218011,4894.54456853109)
(-4745.37949347614,1684.61303263883,8820.83668488113)
(-7340.35814358568,1214.91812305447,15508.450611477)
(-11648.759485269,851.818033419562,26682.5095177681)
(-16067.930591805,468.303899855471,42487.3789850405)
(0,0,0)
(0,0,0)
(0,0,0)
(0,0,0)
(0,0,0)
(0,0,0)
(-1640.48831032658,4516.82931368613,123.884405832129)
(-1724.9435024498,4502.95173143094,327.804126228557)
(-1876.78066605522,4464.97145483294,666.938221817524)
(-2191.00721607625,4374.7145299928,1289.54319944193)
(-2718.74868788858,4134.01251911421,2433.23750894875)
(-3743.56097555482,3716.71713324549,4614.4885692473)
(-5491.44817207331,3159.223605745,8631.32616821462)
(-8011.00254148015,2467.21899221996,15390.0278405396)
(-12048.0121915457,1747.39703807417,26542.4610275137)
(-16236.9463840762,953.634303575488,42294.0770078476)
(0,0,0)
(0,0,0)
(0,0,0)
(0,0,0)
(0,0,0)
(0,0,0)
(-2416.61072940238,6865.73788527737,67.7021578139298)
(-2510.34884435301,6882.88494763519,198.117785958205)
(-2671.54179414555,6874.30808212683,460.322952810556)
(-2982.25667363168,6827.16632546697,990.127830966173)
(-3550.7266297862,6592.86918000304,2081.99779986882)
(-4608.27347035666,6159.63802020238,4247.35038328746)
(-6353.56535561583,5506.01533858179,8254.12400607824)
(-8748.03594728925,4526.83777266661,14942.5411729213)
(-12546.6385237178,3282.79860724377,25953.7781275413)
(-16481.9454749839,1767.35935463616,41621.998551303)
(0,0,0)
(0,0,0)
(0,0,0)
(0,0,0)
(0,0,0)
(0,0,0)
(-3915.65972951127,10790.4427662988,-9.04515151103558)
(-3998.51087563896,10815.9520700923,56.3986016813032)
(-4151.77401600846,10834.5346841699,247.946015652284)
(-4434.25665227533,10805.7184756064,703.650517791274)
(-4977.88290822849,10572.6149835652,1701.78762245342)
(-5978.7302313457,10106.7865319571,3733.36934203915)
(-7625.00401629114,9319.61586131478,7544.77283560809)
(-9820.28104794074,7949.28128651517,13942.6103697055)
(-13346.013310014,5895.3436903469,24676.0785965612)
(-16915.9686079836,3200.18690712149,40159.2196521691)
(0,0,0)
(0,0,0)
(0,0,0)
(0,0,0)
(0,0,0)
(0,0,0)
(-6626.87143630331,17528.1606400568,-110.846437454803)
(-6698.59001599957,17519.50133881,-115.805690167571)
(-6841.79674614527,17519.2788214767,41.2469186856971)
(-7083.22067455724,17472.3509024101,457.835166426964)
(-7542.92599612292,17226.1204689239,1347.25567718492)
(-8386.08401164579,16704.2640334631,3135.86218730683)
(-9783.30973526523,15714.5655262596,6524.2222576076)
(-11575.2290733275,13755.9373019821,12292.7953154887)
(-14750.902915551,10570.461681727,22368.5802396581)
(-17729.1550654034,5983.87692872266,37314.0452834001)
(0,0,0)
(0,0,0)
(0,0,0)
(0,0,0)
(0,0,0)
(0,0,0)
(-11193.9910396667,28828.112445619,-105.960765927302)
(-11248.4218257975,28789.9871129837,-128.024714285121)
(-11361.044776409,28761.3974431712,-9.09855961525834)
(-11516.541942937,28668.3133092524,311.480976465859)
(-11831.177913843,28368.5337270435,1000.24563218577)
(-12378.3610128632,27732.3310025012,2350.53967601408)
(-13312.0428919238,26428.7791336754,4948.36896053169)
(-14753.4842794597,23843.106998336,9614.68354364021)
(-17289.2540212231,19234.3234029025,18240.0758436102)
(-19126.1042398593,11557.6872181579,31792.3697940453)
(0,0,0)
(0,0,0)
(0,0,0)
(0,0,0)
(0,0,0)
(0,0,0)
(-15850.3809013604,44717.576965969,-39.0836189622095)
(-15876.7486073519,44686.9359308328,-59.283829455426)
(-15943.5036213645,44660.5461090051,-14.928873896286)
(-16018.829139188,44521.8873148626,150.326259717969)
(-16179.301046048,44179.6360600659,518.524972779731)
(-16439.7208470959,43448.2792990567,1242.29752330756)
(-16900.610245677,41887.600850417,2684.08605223711)
(-17724.4098888643,38787.9319558782,5463.67098351842)
(-19124.9887421567,32771.3627557769,11051.6203727564)
(-19328.2953594038,21210.4797365916,20727.1232137551)
(0,0,0)
(0,0,0)
(0,0,0)
(0,0,0)
(0,0,0)
(0,0,0)
(0,0,0)
(0,0,0)
(0,0,0)
(0,0,0)
(0,0,0)
(0,0,0)
(0,0,0)
(0,0,0)
(0,0,0)
(0,0,0)
(0,0,0)
(0,0,0)
(0,0,0)
(0,0,0)
(0,0,0)
(0,0,0)
(0,0,0)
(0,0,0)
(0,0,0)
(0,0,0)
(0,0,0)
(0,0,0)
(0,0,0)
(0,0,0)
(0,0,0)
(0,0,0)
(0,0,0)
(0,0,0)
(0,0,0)
(0,0,0)
(0,0,0)
(0,0,0)
(0,0,0)
(0,0,0)
(0,0,0)
(0,0,0)
(0,0,0)
(0,0,0)
(0,0,0)
(0,0,0)
(0,0,0)
(0,0,0)
(0,0,0)
(0,0,0)
(0,0,0)
(0,0,0)
(0,0,0)
(0,0,0)
(0,0,0)
(0,0,0)
(0,0,0)
(0,0,0)
(0,0,0)
(0,0,0)
(0,0,0)
(0,0,0)
(0,0,0)
(0,0,0)
(0,0,0)
(0,0,0)
(0,0,0)
(0,0,0)
(0,0,0)
(0,0,0)
(0,0,0)
(0,0,0)
(0,0,0)
(0,0,0)
(0,0,0)
(0,0,0)
(0,0,0)
(0,0,0)
(0,0,0)
(0,0,0)
(0,0,0)
(0,0,0)
(0,0,0)
(0,0,0)
(0,0,0)
(0,0,0)
(0,0,0)
(0,0,0)
(0,0,0)
(0,0,0)
(0,0,0)
(0,0,0)
(0,0,0)
(0,0,0)
(0,0,0)
(0,0,0)
(0,0,0)
(0,0,0)
(0,0,0)
(0,0,0)
(0,0,0)
(0,0,0)
(151590.385041496,521.383084090657,226.382585842463)
(151523.596434848,509.036091643996,506.02181267057)
(151316.371500682,500.42934259858,874.021047655998)
(150913.361214645,461.468549937215,1423.02969012254)
(150264.992977948,345.356124198886,2342.37346243983)
(148986.038097303,210.91208533189,3870.55537779667)
(146574.798765312,107.232847950901,6431.00960017825)
(141769.292642089,28.3849976187912,11184.6783989579)
(130758.335929832,39.6622592525728,22370.4783797349)
(100771.753028704,27.7233071745534,58875.5747961529)
(0,0,0)
(0,0,0)
(0,0,0)
(0,0,0)
(0,0,0)
(0,0,0)
(151497.946514129,1077.41890814543,222.36359044103)
(151439.437973918,1064.45215156118,483.843140831444)
(151231.019020677,1037.40620835201,845.231671407221)
(150817.445305888,968.480078839421,1381.69718996084)
(150145.136563009,737.39283564087,2281.91832637643)
(148860.795040016,450.160853521819,3815.60005637943)
(146418.654886989,210.961339211209,6436.98482885735)
(141636.347438551,73.6645546295503,11224.5793912956)
(130688.077353386,89.8576532059573,22423.0007554945)
(100751.253153813,64.9652979284109,58921.0940694324)
(0,0,0)
(0,0,0)
(0,0,0)
(0,0,0)
(0,0,0)
(0,0,0)
(151249.564102219,1740.83641517106,211.363083440833)
(151170.498580098,1743.01771373122,441.623603561277)
(150973.889181305,1701.04802484449,766.099682428287)
(150551.442792389,1597.54145854288,1277.27804631793)
(149822.859419165,1293.25037797718,2129.05256835502)
(148464.596993503,847.932106658791,3664.07170021342)
(145928.892918293,416.689340761176,6413.54558683644)
(141207.229005503,178.911532626399,11341.2243574553)
(130447.62614432,186.50964019909,22582.4212745373)
(100654.479521204,133.518634774517,59074.5998814342)
(0,0,0)
(0,0,0)
(0,0,0)
(0,0,0)
(0,0,0)
(0,0,0)
(150862.052638974,2612.14138820626,158.086144752404)
(150757.267402456,2620.09849809116,344.73756144239)
(150541.522670221,2583.09797659448,612.279937093654)
(150095.614290705,2457.62125366166,1062.70252907394)
(149289.719296807,2141.18593325839,1851.36310695138)
(147711.674728605,1612.66705296476,3383.34206277008)
(144854.362521755,965.465749103691,6381.66881616999)
(140258.396685052,578.576967812514,11530.0937292768)
(129955.24880773,506.132175900142,22753.3080773929)
(100462.981202236,306.770640348682,59195.989454833)
(0,0,0)
(0,0,0)
(0,0,0)
(0,0,0)
(0,0,0)
(0,0,0)
(150213.947051215,3809.99205967147,94.5591439045334)
(150101.36381692,3825.87219115407,209.323308372512)
(149857.151884698,3793.66097368583,411.672937538173)
(149359.955843864,3697.97496252658,767.201345634799)
(148440.337554987,3441.03341491458,1455.11279811718)
(146544.131239229,2989.3971620342,2937.53565123563)
(142897.152728578,2401.80928010544,6259.43639653666)
(138465.821046019,1828.75509604525,11679.2798578136)
(129158.079284212,1322.76682864489,22803.3989061321)
(100160.975661311,709.872760043706,59149.2199179657)
(0,0,0)
(0,0,0)
(0,0,0)
(0,0,0)
(0,0,0)
(0,0,0)
(148952.384229347,5553.21805341754,34.624224405951)
(148832.110271895,5579.84101912682,85.0414571628617)
(148577.478332779,5570.18593492343,206.341545911468)
(148081.429634738,5519.37035550032,468.105021622756)
(147110.022932723,5314.04127091651,1081.19278007567)
(145131.159020177,4929.22949837385,2548.77313010726)
(141399.311171237,4354.14072962421,5990.41033070356)
(137170.822431568,3595.53618036298,11451.6160443511)
(128317.739789309,2595.26838141736,22461.5813554953)
(99746.0312611103,1365.41815698615,58724.9043993273)
(0,0,0)
(0,0,0)
(0,0,0)
(0,0,0)
(0,0,0)
(0,0,0)
(146542.400866028,8269.67903565799,-27.676400839366)
(146422.800481675,8291.51931316834,-13.8208752242616)
(146174.77924776,8323.56503003599,53.0919429570131)
(145721.107405644,8326.02321335447,237.920204116949)
(144796.000724577,8181.29321383737,743.629805362333)
(142871.743584232,7862.17463026267,2107.05603476543)
(139216.093352533,7297.94012601514,5469.00444642427)
(135367.477053834,6321.04219139366,10702.5855106148)
(126993.172085695,4588.14462349704,21517.3690495677)
(99016.3037413581,2444.5327872092,57652.8272470582)
(0,0,0)
(0,0,0)
(0,0,0)
(0,0,0)
(0,0,0)
(0,0,0)
(141706.458547672,13204.6001804447,-121.405951782973)
(141587.669273334,13184.042652013,-153.34340300887)
(141363.045302812,13219.2186952253,-106.993940217101)
(140978.138387388,13245.3345135924,59.180874562513)
(140189.995261972,13143.5238469224,510.874160175515)
(138524.839490638,12879.4024035259,1729.56806168027)
(135280.814896377,12320.5812249185,4789.64750801947)
(132655.888730132,10719.611249262,9306.80582351052)
(124388.352633808,8160.77497330673,19741.7651012141)
(97376.477361646,4659.35282513466,55568.1578131754)
(0,0,0)
(0,0,0)
(0,0,0)
(0,0,0)
(0,0,0)
(0,0,0)
(130701.681790182,24559.1554721255,-103.382944535146)
(130601.249552968,24520.4431283176,-142.609622596143)
(130436.227918994,24533.5256713036,-107.344117138994)
(130192.948059006,24524.7981077194,50.5474636892472)
(129680.628098322,24372.1211653378,456.989310021222)
(128691.071101659,23983.9627443418,1429.84203160736)
(126906.80934566,23115.5944774237,3562.82171851855)
(124321.644810357,21134.7884841713,7219.36057078548)
(116931.262491829,17616.9387803543,16689.5254276208)
(92542.8410132237,11474.6413079856,51352.136868578)
(0,0,0)
(0,0,0)
(0,0,0)
(0,0,0)
(0,0,0)
(0,0,0)
(100747.047139891,61158.5159741737,-49.9433664488152)
(100695.130707634,61126.6719265488,-81.2063027988499)
(100611.503126049,61117.7698907059,-73.6120926550522)
(100502.891522113,61057.0561952689,19.2543355530501)
(100251.954590704,60859.1002960721,247.864745077877)
(99797.9203694651,60363.8771378602,777.154311978541)
(98970.8365182925,59258.7421662243,1909.40503616882)
(97340.7128341874,56953.5436292629,4172.37234503896)
(92541.1152743897,52254.5720096707,11015.4802761337)
(75246.9095576673,40754.9616757615,40306.8001681004)
(0,0,0)
(0,0,0)
(0,0,0)
(0,0,0)
(0,0,0)
(0,0,0)
(0,0,0)
(0,0,0)
(0,0,0)
(0,0,0)
(0,0,0)
(0,0,0)
(0,0,0)
(0,0,0)
(0,0,0)
(0,0,0)
(0,0,0)
(0,0,0)
(0,0,0)
(0,0,0)
(0,0,0)
(0,0,0)
(0,0,0)
(0,0,0)
(0,0,0)
(0,0,0)
(0,0,0)
(0,0,0)
(0,0,0)
(0,0,0)
(0,0,0)
(0,0,0)
(0,0,0)
(0,0,0)
(0,0,0)
(0,0,0)
(0,0,0)
(0,0,0)
(0,0,0)
(0,0,0)
(0,0,0)
(0,0,0)
(0,0,0)
(0,0,0)
(0,0,0)
(0,0,0)
(0,0,0)
(0,0,0)
(0,0,0)
(0,0,0)
(0,0,0)
(0,0,0)
(0,0,0)
(0,0,0)
(0,0,0)
(0,0,0)
(0,0,0)
(0,0,0)
(0,0,0)
(0,0,0)
(0,0,0)
(0,0,0)
(0,0,0)
(0,0,0)
(0,0,0)
(0,0,0)
(0,0,0)
(0,0,0)
(0,0,0)
(0,0,0)
(0,0,0)
(0,0,0)
(0,0,0)
(0,0,0)
(0,0,0)
(0,0,0)
(0,0,0)
(0,0,0)
(0,0,0)
(0,0,0)
(0,0,0)
(0,0,0)
(0,0,0)
(0,0,0)
(0,0,0)
(0,0,0)
(0,0,0)
(0,0,0)
(0,0,0)
(0,0,0)
(0,0,0)
(0,0,0)
(0,0,0)
(0,0,0)
(0,0,0)
(0,0,0)
(0,0,0)
(0,0,0)
(0,0,0)
(0,0,0)
(0,0,0)
(0,0,0)
(-2193.76743537858,436.238135104224,201.06916485108)
(-2281.94258850057,433.998047666975,425.76496354627)
(-2476.02932931747,422.161128012093,649.159488678603)
(-2869.2418871674,376.537564179823,908.379849410661)
(-3517.12092207354,238.967367728086,1304.68120476706)
(-4728.17928311785,73.1866271476475,1798.86678123253)
(-6771.05564556952,-53.1703036272964,2051.04631886388)
(-10056.9132494446,-103.612917523395,834.019950998224)
(-14902.8322363606,-40.8360681252112,-6610.82099167363)
(-18694.412632122,-14.6081047381186,-40276.8924028784)
(0,0,0)
(0,0,0)
(0,0,0)
(0,0,0)
(0,0,0)
(0,0,0)
(-2286.55319226948,886.122880205276,187.769784348008)
(-2370.1709952388,895.931586947067,388.600037243348)
(-2574.13826068531,872.743471834488,596.329797887406)
(-2977.44172444205,780.566320847967,840.34289463851)
(-3634.64953645194,503.143958792388,1209.10722609351)
(-4852.13990693038,130.281030431485,1718.10259276893)
(-6929.67332728204,-223.442273438509,2089.85759988153)
(-10171.7443982338,-298.135618428053,945.626960601202)
(-14947.3379440558,-108.75982867648,-6497.87915815994)
(-18700.6393198458,-16.045209419553,-40191.3947566836)
(0,0,0)
(0,0,0)
(0,0,0)
(0,0,0)
(0,0,0)
(0,0,0)
(-2552.08143964428,1377.79640462285,163.126840576022)
(-2627.45974150533,1400.17296165302,309.998610538431)
(-2824.77191118837,1369.20145033839,465.356547505409)
(-3235.65704502386,1233.8614871199,652.316041662474)
(-3931.91156910129,842.429152473288,920.956659298434)
(-5237.68237077528,199.336041619057,1407.3358354327)
(-7502.32497531826,-592.26834795358,2060.53462658179)
(-10629.8935094543,-710.725094501442,1163.40144055227)
(-15125.3462869048,-240.804556014953,-6278.4265777173)
(-18744.7477752748,-23.1878544461192,-40018.9018131667)
(0,0,0)
(0,0,0)
(0,0,0)
(0,0,0)
(0,0,0)
(0,0,0)
(-2971.02615045682,1958.59412335334,105.435893776666)
(-3049.60771228816,1993.0037901863,172.635003018856)
(-3269.63480335993,1967.85110395405,238.297646054648)
(-3697.66292478416,1815.27638973577,303.314781972582)
(-4476.98749699875,1387.7755775464,377.829973717993)
(-6100.57209926272,529.813924055985,712.753742177432)
(-9280.95254329956,-958.870619697559,2067.8259020056)
(-12096.976852104,-1168.34282018396,1733.97198793934)
(-15572.0031599332,-219.281690191881,-5907.14408708522)
(-18853.1942451577,33.1186995436171,-39794.1203707005)
(0,0,0)
(0,0,0)
(0,0,0)
(0,0,0)
(0,0,0)
(0,0,0)
(-3667.44010538289,2660.55373738906,32.5823656436871)
(-3730.76258790635,2689.94237143876,20.9250123126056)
(-3970.2852529584,2668.93445699912,0.433619908055519)
(-4425.83942826529,2552.08801272032,-97.4279078496638)
(-5313.49136669743,2262.33032282367,-364.998908451846)
(-7575.04780372467,1736.72357167643,-599.574690086031)
(-14933.0717531217,1052.39165271037,2072.54234222385)
(-17323.8048567202,670.431526973837,2876.54872084078)
(-16496.5839170773,575.68182115486,-5410.5967660748)
(-19083.2092852112,312.053259518542,-39592.1915563248)
(0,0,0)
(0,0,0)
(0,0,0)
(0,0,0)
(0,0,0)
(0,0,0)
(-4881.3017412219,3374.3396614599,-26.9451303981632)
(-4952.3386952341,3398.73553077559,-98.1344995760941)
(-5196.20081275532,3397.00372959131,-199.36980354746)
(-5631.41054555065,3339.05130589445,-420.338093486366)
(-6530.10442713572,3180.84876527884,-845.574353041662)
(-8851.27890938287,2862.81739292639,-1136.07542163288)
(-16110.3442062565,2336.82976962492,1942.29666196463)
(-18388.0890504389,1983.45071231066,3041.34378175249)
(-17241.3419467725,1401.1647532948,-5371.90259128354)
(-19438.908325324,654.63456514793,-39676.3894872848)
(0,0,0)
(0,0,0)
(0,0,0)
(0,0,0)
(0,0,0)
(0,0,0)
(-6935.52480639355,3787.6952548563,-82.2750979279082)
(-7036.18893417234,3805.70397429934,-177.099302569168)
(-7278.41976412807,3850.00710013993,-323.748838311206)
(-7658.93811814665,3870.90082278222,-622.398008341193)
(-8500.29253860548,3859.90523885146,-1152.0063956912)
(-10823.4301512933,3794.56176317867,-1535.42220727729)
(-18510.8156296504,3599.18749485464,1782.28387282071)
(-20567.1894745666,3834.51346457192,2719.04247198984)
(-18371.7690184429,2129.42768325954,-5791.1245305832)
(-20020.8437219933,857.376121315795,-40103.5638004804)
(0,0,0)
(0,0,0)
(0,0,0)
(0,0,0)
(0,0,0)
(0,0,0)
(-10241.7519216059,2732.29790925386,-143.237362093921)
(-10360.9370815795,2716.2315566561,-252.003766491614)
(-10566.8733307638,2777.12776023839,-396.050969954169)
(-10892.3388259881,2860.83546803687,-662.353578797244)
(-11638.6107477054,3001.22462944659,-1121.91213651145)
(-13832.5010114527,3375.35472630066,-1492.20977457169)
(-22287.1946766453,4239.19835571848,2288.94376070488)
(-18372.6099079616,2668.20189404715,1336.90879243778)
(-19537.2546598044,932.042198630627,-6686.9436061367)
(-20911.9910908598,-56.611959849359,-40631.3322493469)
(0,0,0)
(0,0,0)
(0,0,0)
(0,0,0)
(0,0,0)
(0,0,0)
(-15033.2417395128,-4577.819926774,-101.803811277127)
(-15142.3421081985,-4596.93007807209,-191.895692392855)
(-15285.0454869899,-4543.89096865379,-296.448734441688)
(-15495.0323218533,-4481.37404997575,-413.104012472637)
(-15954.0824009418,-4408.17519807723,-515.83886259091)
(-16978.9597923486,-4293.05577902386,-324.242640212062)
(-19163.7314442588,-4253.94431105086,1092.59563948924)
(-19803.7588520058,-5319.30836565729,58.6643845461121)
(-21671.6744189905,-6332.81615404389,-7220.38552888029)
(-22154.3512100951,-5568.41643107243,-40158.2340112702)
(0,0,0)
(0,0,0)
(0,0,0)
(0,0,0)
(0,0,0)
(0,0,0)
(-18759.3156959922,-38157.4954422557,-60.8068255386687)
(-18818.0304638602,-38177.1666504606,-114.254258635607)
(-18883.8450439563,-38142.1741614294,-167.468072774899)
(-18979.3083542179,-38118.9842932994,-194.503130190894)
(-19185.3583462903,-38117.3324308453,-194.878137361907)
(-19590.373578938,-38206.0579931717,-40.4271517810898)
(-20307.5414889376,-38512.8339773957,349.995344901047)
(-21053.9290784156,-39239.824910299,-481.69137490713)
(-22172.4837792028,-39266.7629398443,-5980.9907124886)
(-21465.8954182364,-33784.1275904127,-34199.3197541434)
(0,0,0)
(0,0,0)
(0,0,0)
(0,0,0)
(0,0,0)
(0,0,0)
(0,0,0)
(0,0,0)
(0,0,0)
(0,0,0)
(0,0,0)
(0,0,0)
(0,0,0)
(0,0,0)
(0,0,0)
(0,0,0)
(0,0,0)
(0,0,0)
(0,0,0)
(0,0,0)
(0,0,0)
(0,0,0)
(0,0,0)
(0,0,0)
(0,0,0)
(0,0,0)
(0,0,0)
(0,0,0)
(0,0,0)
(0,0,0)
(0,0,0)
(0,0,0)
(0,0,0)
(0,0,0)
(0,0,0)
(0,0,0)
(0,0,0)
(0,0,0)
(0,0,0)
(0,0,0)
(0,0,0)
(0,0,0)
(0,0,0)
(0,0,0)
(0,0,0)
(0,0,0)
(0,0,0)
(0,0,0)
(0,0,0)
(0,0,0)
(0,0,0)
(0,0,0)
(0,0,0)
(0,0,0)
(0,0,0)
(0,0,0)
(0,0,0)
(0,0,0)
(0,0,0)
(0,0,0)
(0,0,0)
(0,0,0)
(0,0,0)
(0,0,0)
(0,0,0)
(0,0,0)
(0,0,0)
(0,0,0)
(0,0,0)
(0,0,0)
(0,0,0)
(0,0,0)
(0,0,0)
(0,0,0)
(0,0,0)
(0,0,0)
(0,0,0)
(0,0,0)
(0,0,0)
(0,0,0)
(0,0,0)
(0,0,0)
(0,0,0)
(0,0,0)
(0,0,0)
(0,0,0)
(0,0,0)
(0,0,0)
(0,0,0)
(0,0,0)
(0,0,0)
(0,0,0)
(0,0,0)
(0,0,0)
(0,0,0)
(0,0,0)
(0,0,0)
(0,0,0)
(0,0,0)
(0,0,0)
(0,0,0)
(0,0,0)
(-2677.36619871729,357.884772929316,125.713990409861)
(-2757.89907538025,340.222056994292,261.448420299728)
(-2887.27785274243,316.788216935933,355.90872679018)
(-3163.30658288651,270.782080069277,379.191342436365)
(-3633.04125119077,149.928700693133,345.182970862064)
(-4458.51513919618,-21.1709829124714,96.6898098557311)
(-5714.30477023675,-184.886681249103,-775.174384225633)
(-7325.14523636654,-189.659484297957,-3317.28291301285)
(-8703.09757109428,-72.0938814461321,-9444.92369680627)
(-7718.54953838184,-19.768363986286,-20401.0184265425)
(0,0,0)
(0,0,0)
(0,0,0)
(0,0,0)
(0,0,0)
(0,0,0)
(-2732.75617679612,673.428486460862,130.6592709937)
(-2826.57965963748,670.821893526278,256.468098861569)
(-2971.21975661187,639.249513644332,331.088298082992)
(-3244.27921670208,550.051024590098,318.656845817886)
(-3686.12226203369,290.279942867909,229.778329227869)
(-4468.73116097255,-160.6723288707,-14.1290707645848)
(-5713.23073275997,-711.442056609395,-704.016289919526)
(-7272.21976415436,-655.446744806928,-3137.75366348755)
(-8640.54474459851,-223.14509393481,-9293.49565044993)
(-7672.8531533774,-41.4899997140284,-20299.5601812439)
(0,0,0)
(0,0,0)
(0,0,0)
(0,0,0)
(0,0,0)
(0,0,0)
(-2963.16310046175,990.83084419455,93.6793030876569)
(-3033.21377730334,1003.98090438346,166.274328024389)
(-3157.67256325799,966.752939932507,171.671553804562)
(-3396.10610994281,813.632638283455,68.5390050335819)
(-3784.50645203812,393.395581353294,-181.981750516881)
(-4510.11822958982,-542.228715693403,-527.989504892097)
(-5806.93895364296,-2290.2432111874,-644.5743719876)
(-7143.69715749693,-2092.81290110384,-2693.40456765869)
(-8433.16911849527,-610.293804167871,-8998.43302582032)
(-7557.34089852572,-99.3106449346654,-20128.0192573519)
(0,0,0)
(0,0,0)
(0,0,0)
(0,0,0)
(0,0,0)
(0,0,0)
(-3289.78355473806,1281.98719485739,27.6010536256386)
(-3352.70313633095,1318.30261669934,16.3747653577483)
(-3481.96177755641,1282.95431647898,-87.4996369898946)
(-3689.3923706353,1092.52341324334,-374.660966099642)
(-3995.55800564994,586.490154151619,-1049.18503024454)
(-4607.3695174654,-922.555716699819,-2162.0606110368)
(-6779.2511374715,-6618.88495215498,-335.120275903796)
(-7046.35164331207,-6357.56479965703,-1120.99358613868)
(-7875.73235798929,-1072.86970158542,-8354.6884906682)
(-7317.03633777474,-143.006726183197,-19847.1503168225)
(0,0,0)
(0,0,0)
(0,0,0)
(0,0,0)
(0,0,0)
(0,0,0)
(-3845.9459833658,1499.99148084355,-39.4984080050628)
(-3889.04837876824,1555.02525391159,-117.935254355718)
(-4015.3640299813,1538.58139273111,-328.483553583764)
(-4163.85539171913,1387.92007784479,-885.864254728189)
(-4237.13543275419,1106.80024750634,-2482.53028202839)
(-3788.19754886593,539.126801276341,-7731.06305487093)