/*--------------------------------*- C++ -*----------------------------------*\
| =========                 |                                                 |
| \\      /  F ield         | foam-extend: Open Source CFD                    |
|  \\    /   O peration     | Version:     4.0                                |
|   \\  /    A nd           | Web:         http://www.foam-extend.org         |
|    \\/     M anipulation  |                                                 |
\*---------------------------------------------------------------------------*/
FoamFile
{
    version 2.0;
    format ascii;
    class volVectorField;
    location "2145";
    object      E;
}
// * * * * * * * * * * * * * * * * * * * * * * * * * * * * * * * * * * * * * //

dimensions      [0 1 -1 0 0 0 0];

internalField   nonuniform List<vector>
4096
(
(0,0,0)
(0,0,0)
(0,0,0)
(0,0,0)
(0,0,0)
(0,0,0)
(0,0,0)
(0,0,0)
(0,0,0)
(0,0,0)
(0,0,0)
(0,0,0)
(0,0,0)
(0,0,0)
(0,0,0)
(0,0,0)
(0,0,0)
(0,0,0)
(0,0,0)
(0,0,0)
(0,0,0)
(0,0,0)
(0,0,0)
(0,0,0)
(0,0,0)
(0,0,0)
(0,0,0)
(0,0,0)
(0,0,0)
(0,0,0)
(0,0,0)
(0,0,0)
(0,0,0)
(0,0,0)
(0,0,0)
(0,0,0)
(0,0,0)
(0,0,0)
(0,0,0)
(0,0,0)
(0,0,0)
(0,0,0)
(0,0,0)
(0,0,0)
(0,0,0)
(0,0,0)
(0,0,0)
(0,0,0)
(0,0,0)
(0,0,0)
(0,0,0)
(0,0,0)
(0,0,0)
(0,0,0)
(0,0,0)
(0,0,0)
(0,0,0)
(0,0,0)
(0,0,0)
(0,0,0)
(0,0,0)
(0,0,0)
(0,0,0)
(0,0,0)
(0,0,0)
(0,0,0)
(0,0,0)
(0,0,0)
(0,0,0)
(0,0,0)
(0,0,0)
(0,0,0)
(0,0,0)
(0,0,0)
(0,0,0)
(0,0,0)
(0,0,0)
(0,0,0)
(0,0,0)
(0,0,0)
(0,0,0)
(0,0,0)
(0,0,0)
(0,0,0)
(0,0,0)
(0,0,0)
(0,0,0)
(0,0,0)
(0,0,0)
(0,0,0)
(0,0,0)
(0,0,0)
(0,0,0)
(0,0,0)
(0,0,0)
(0,0,0)
(0,0,0)
(0,0,0)
(0,0,0)
(0,0,0)
(0,0,0)
(0,0,0)
(0,0,0)
(0,0,0)
(0,0,0)
(0,0,0)
(0,0,0)
(0,0,0)
(0,0,0)
(0,0,0)
(0,0,0)
(0,0,0)
(0,0,0)
(0,0,0)
(0,0,0)
(0,0,0)
(0,0,0)
(0,0,0)
(0,0,0)
(0,0,0)
(0,0,0)
(0,0,0)
(0,0,0)
(0,0,0)
(0,0,0)
(0,0,0)
(0,0,0)
(0,0,0)
(0,0,0)
(0,0,0)
(0,0,0)
(0,0,0)
(0,0,0)
(0,0,0)
(0,0,0)
(0,0,0)
(0,0,0)
(0,0,0)
(0,0,0)
(0,0,0)
(0,0,0)
(0,0,0)
(0,0,0)
(0,0,0)
(0,0,0)
(0,0,0)
(0,0,0)
(0,0,0)
(0,0,0)
(0,0,0)
(0,0,0)
(0,0,0)
(0,0,0)
(0,0,0)
(0,0,0)
(0,0,0)
(0,0,0)
(0,0,0)
(0,0,0)
(0,0,0)
(0,0,0)
(0,0,0)
(0,0,0)
(0,0,0)
(0,0,0)
(0,0,0)
(0,0,0)
(0,0,0)
(0,0,0)
(0,0,0)
(0,0,0)
(0,0,0)
(0,0,0)
(0,0,0)
(0,0,0)
(0,0,0)
(0,0,0)
(0,0,0)
(0,0,0)
(0,0,0)
(0,0,0)
(0,0,0)
(0,0,0)
(0,0,0)
(0,0,0)
(0,0,0)
(0,0,0)
(0,0,0)
(0,0,0)
(0,0,0)
(0,0,0)
(0,0,0)
(0,0,0)
(0,0,0)
(0,0,0)
(0,0,0)
(0,0,0)
(0,0,0)
(0,0,0)
(0,0,0)
(0,0,0)
(0,0,0)
(0,0,0)
(0,0,0)
(0,0,0)
(0,0,0)
(0,0,0)
(0,0,0)
(0,0,0)
(0,0,0)
(0,0,0)
(0,0,0)
(0,0,0)
(0,0,0)
(0,0,0)
(0,0,0)
(0,0,0)
(0,0,0)
(0,0,0)
(0,0,0)
(0,0,0)
(0,0,0)
(0,0,0)
(0,0,0)
(0,0,0)
(0,0,0)
(0,0,0)
(0,0,0)
(0,0,0)
(0,0,0)
(0,0,0)
(0,0,0)
(0,0,0)
(0,0,0)
(0,0,0)
(0,0,0)
(0,0,0)
(0,0,0)
(0,0,0)
(0,0,0)
(0,0,0)
(0,0,0)
(0,0,0)
(0,0,0)
(0,0,0)
(0,0,0)
(0,0,0)
(0,0,0)
(0,0,0)
(0,0,0)
(0,0,0)
(0,0,0)
(0,0,0)
(0,0,0)
(0,0,0)
(0,0,0)
(0,0,0)
(0,0,0)
(0,0,0)
(0,0,0)
(0,0,0)
(0,0,0)
(0,0,0)
(0,0,0)
(0,0,0)
(0,0,0)
(0,0,0)
(0,0,0)
(0,0,0)
(0,0,0)
(0,0,0)
(0,0,0)
(0,0,0)
(0,0,0)
(0,0,0)
(0,0,0)
(0,0,0)
(0,0,0)
(0,0,0)
(0,0,0)
(0,0,0)
(0,0,0)
(0,0,0)
(0,0,0)
(0,0,0)
(0,0,0)
(0,0,0)
(0,0,0)
(0,0,0)
(0,0,0)
(0,0,0)
(0,0,0)
(0,0,0)
(0,0,0)
(0,0,0)
(0,0,0)
(0,0,0)
(0,0,0)
(0,0,0)
(0,0,0)
(0,0,0)
(0,0,0)
(0,0,0)
(0,0,0)
(0,0,0)
(0,0,0)
(0,0,0)
(0,0,0)
(0,0,0)
(0,0,0)
(0,0,0)
(0,0,0)
(0,0,0)
(0,0,0)
(0,0,0)
(0,0,0)
(0,0,0)
(0,0,0)
(0,0,0)
(0,0,0)
(0,0,0)
(0,0,0)
(0,0,0)
(0,0,0)
(0,0,0)
(0,0,0)
(0,0,0)
(0,0,0)
(0,0,0)
(0,0,0)
(0,0,0)
(0,0,0)
(0,0,0)
(0,0,0)
(0,0,0)
(0,0,0)
(0,0,0)
(0,0,0)
(0,0,0)
(0,0,0)
(0,0,0)
(0,0,0)
(0,0,0)
(0,0,0)
(0,0,0)
(0,0,0)
(0,0,0)
(0,0,0)
(0,0,0)
(0,0,0)
(0,0,0)
(0,0,0)
(0,0,0)
(0,0,0)
(0,0,0)
(0,0,0)
(0,0,0)
(0,0,0)
(0,0,0)
(0,0,0)
(0,0,0)
(0,0,0)
(0,0,0)
(0,0,0)
(0,0,0)
(0,0,0)
(0,0,0)
(0,0,0)
(0,0,0)
(0,0,0)
(0,0,0)
(0,0,0)
(0,0,0)
(0,0,0)
(0,0,0)
(0,0,0)
(0,0,0)
(0,0,0)
(0,0,0)
(0,0,0)
(0,0,0)
(0,0,0)
(0,0,0)
(0,0,0)
(0,0,0)
(0,0,0)
(0,0,0)
(0,0,0)
(0,0,0)
(0,0,0)
(0,0,0)
(0,0,0)
(0,0,0)
(0,0,0)
(0,0,0)
(0,0,0)
(0,0,0)
(0,0,0)
(0,0,0)
(0,0,0)
(0,0,0)
(0,0,0)
(0,0,0)
(0,0,0)
(0,0,0)
(0,0,0)
(0,0,0)
(0,0,0)
(0,0,0)
(0,0,0)
(0,0,0)
(0,0,0)
(0,0,0)
(0,0,0)
(0,0,0)
(0,0,0)
(0,0,0)
(0,0,0)
(0,0,0)
(0,0,0)
(0,0,0)
(0,0,0)
(0,0,0)
(0,0,0)
(0,0,0)
(0,0,0)
(0,0,0)
(0,0,0)
(0,0,0)
(0,0,0)
(0,0,0)
(0,0,0)
(0,0,0)
(0,0,0)
(0,0,0)
(0,0,0)
(0,0,0)
(0,0,0)
(0,0,0)
(0,0,0)
(0,0,0)
(0,0,0)
(0,0,0)
(0,0,0)
(0,0,0)
(0,0,0)
(0,0,0)
(0,0,0)
(0,0,0)
(0,0,0)
(0,0,0)
(0,0,0)
(0,0,0)
(0,0,0)
(0,0,0)
(0,0,0)
(0,0,0)
(0,0,0)
(0,0,0)
(0,0,0)
(0,0,0)
(0,0,0)
(0,0,0)
(0,0,0)
(0,0,0)
(0,0,0)
(0,0,0)
(0,0,0)
(0,0,0)
(0,0,0)
(0,0,0)
(0,0,0)
(0,0,0)
(0,0,0)
(0,0,0)
(0,0,0)
(0,0,0)
(0,0,0)
(0,0,0)
(0,0,0)
(0,0,0)
(0,0,0)
(0,0,0)
(0,0,0)
(0,0,0)
(0,0,0)
(0,0,0)
(0,0,0)
(0,0,0)
(0,0,0)
(0,0,0)
(0,0,0)
(0,0,0)
(0,0,0)
(0,0,0)
(0,0,0)
(0,0,0)
(0,0,0)
(0,0,0)
(0,0,0)
(0,0,0)
(0,0,0)
(0,0,0)
(0,0,0)
(0,0,0)
(0,0,0)
(0,0,0)
(0,0,0)
(0,0,0)
(0,0,0)
(0,0,0)
(0,0,0)
(0,0,0)
(0,0,0)
(0,0,0)
(0,0,0)
(0,0,0)
(0,0,0)
(0,0,0)
(0,0,0)
(0,0,0)
(0,0,0)
(0,0,0)
(0,0,0)
(0,0,0)
(0,0,0)
(0,0,0)
(0,0,0)
(0,0,0)
(0,0,0)
(0,0,0)
(0,0,0)
(0,0,0)
(0,0,0)
(0,0,0)
(0,0,0)
(0,0,0)
(0,0,0)
(0,0,0)
(0,0,0)
(0,0,0)
(0,0,0)
(0,0,0)
(0,0,0)
(0,0,0)
(0,0,0)
(0,0,0)
(0,0,0)
(0,0,0)
(0,0,0)
(0,0,0)
(0,0,0)
(0,0,0)
(0,0,0)
(0,0,0)
(0,0,0)
(0,0,0)
(0,0,0)
(0,0,0)
(0,0,0)
(0,0,0)
(0,0,0)
(0,0,0)
(0,0,0)
(0,0,0)
(0,0,0)
(0,0,0)
(0,0,0)
(0,0,0)
(0,0,0)
(0,0,0)
(0,0,0)
(0,0,0)
(0,0,0)
(0,0,0)
(0,0,0)
(0,0,0)
(0,0,0)
(0,0,0)
(0,0,0)
(0,0,0)
(0,0,0)
(0,0,0)
(0,0,0)
(0,0,0)
(0,0,0)
(0,0,0)
(0,0,0)
(0,0,0)
(0,0,0)
(0,0,0)
(0,0,0)
(0,0,0)
(0,0,0)
(0,0,0)
(0,0,0)
(0,0,0)
(0,0,0)
(0,0,0)
(0,0,0)
(0,0,0)
(0,0,0)
(0,0,0)
(0,0,0)
(0,0,0)
(0,0,0)
(0,0,0)
(0,0,0)
(0,0,0)
(0,0,0)
(0,0,0)
(0,0,0)
(0,0,0)
(0,0,0)
(0,0,0)
(0,0,0)
(0,0,0)
(0,0,0)
(0,0,0)
(0,0,0)
(0,0,0)
(0,0,0)
(0,0,0)
(0,0,0)
(0,0,0)
(0,0,0)
(0,0,0)
(0,0,0)
(0,0,0)
(0,0,0)
(0,0,0)
(0,0,0)
(0,0,0)
(0,0,0)
(0,0,0)
(0,0,0)
(0,0,0)
(0,0,0)
(0,0,0)
(0,0,0)
(0,0,0)
(0,0,0)
(0,0,0)
(0,0,0)
(0,0,0)
(0,0,0)
(0,0,0)
(0,0,0)
(0,0,0)
(0,0,0)
(0,0,0)
(0,0,0)
(0,0,0)
(0,0,0)
(0,0,0)
(0,0,0)
(0,0,0)
(0,0,0)
(0,0,0)
(0,0,0)
(0,0,0)
(0,0,0)
(0,0,0)
(0,0,0)
(0,0,0)
(0,0,0)
(0,0,0)
(0,0,0)
(0,0,0)
(0,0,0)
(0,0,0)
(0,0,0)
(0,0,0)
(0,0,0)
(0,0,0)
(0,0,0)
(0,0,0)
(0,0,0)
(0,0,0)
(0,0,0)
(0,0,0)
(0,0,0)
(0,0,0)
(0,0,0)
(0,0,0)
(0,0,0)
(0,0,0)
(0,0,0)
(0,0,0)
(0,0,0)
(0,0,0)
(0,0,0)
(0,0,0)
(0,0,0)
(0,0,0)
(0,0,0)
(0,0,0)
(0,0,0)
(0,0,0)
(0,0,0)
(0,0,0)
(0,0,0)
(0,0,0)
(0,0,0)
(0,0,0)
(0,0,0)
(0,0,0)
(0,0,0)
(0,0,0)
(0,0,0)
(0,0,0)
(0,0,0)
(0,0,0)
(0,0,0)
(0,0,0)
(0,0,0)
(0,0,0)
(0,0,0)
(0,0,0)
(0,0,0)
(0,0,0)
(0,0,0)
(0,0,0)
(0,0,0)
(0,0,0)
(0,0,0)
(0,0,0)
(0,0,0)
(0,0,0)
(0,0,0)
(0,0,0)
(0,0,0)
(0,0,0)
(0,0,0)
(0,0,0)
(0,0,0)
(0,0,0)
(0,0,0)
(0,0,0)
(0,0,0)
(0,0,0)
(0,0,0)
(0,0,0)
(0,0,0)
(0,0,0)
(0,0,0)
(0,0,0)
(0,0,0)
(0,0,0)
(0,0,0)
(0,0,0)
(0,0,0)
(0,0,0)
(0,0,0)
(0,0,0)
(0,0,0)
(0,0,0)
(0,0,0)
(0,0,0)
(0,0,0)
(0,0,0)
(0,0,0)
(0,0,0)
(0,0,0)
(0,0,0)
(0,0,0)
(0,0,0)
(0,0,0)
(0,0,0)
(0,0,0)
(0,0,0)
(0,0,0)
(0,0,0)
(0,0,0)
(0,0,0)
(0,0,0)
(0,0,0)
(0,0,0)
(0,0,0)
(0,0,0)
(0,0,0)
(0,0,0)
(0,0,0)
(0,0,0)
(0,0,0)
(0,0,0)
(0,0,0)
(0,0,0)
(0,0,0)
(0,0,0)
(0,0,0)
(0,0,0)
(0,0,0)
(0,0,0)
(0,0,0)
(0,0,0)
(0,0,0)
(0,0,0)
(0,0,0)
(0,0,0)
(0,0,0)
(0,0,0)
(0,0,0)
(0,0,0)
(0,0,0)
(0,0,0)
(0,0,0)
(0,0,0)
(0,0,0)
(0,0,0)
(0,0,0)
(0,0,0)
(0,0,0)
(0,0,0)
(0,0,0)
(0,0,0)
(0,0,0)
(0,0,0)
(0,0,0)
(-9289.92937192409,4897.14496544479,4392.78440647772)
(-9799.63717792131,4701.09740250149,9491.32418189768)
(-10973.8433922804,4294.43244545112,16170.7351287272)
(-13274.0537997549,3645.73844550188,25799.0504829858)
(-17493.9478762598,2760.36687733386,40532.6314819215)
(-25120.4042958137,1791.37812757503,63861.6576501514)
(-38882.6321357143,899.025214994653,101845.264570895)
(-63757.0475672575,354.032781309547,165248.279356883)
(-105383.941787455,145.613197187572,270486.607947122)
(-147018.395269726,71.1517655625912,417433.851451315)
(0,0,0)
(0,0,0)
(0,0,0)
(0,0,0)
(0,0,0)
(0,0,0)
(-9851.01047469416,10637.7913174906,4110.36412264667)
(-10352.6539696726,10226.9687338664,8937.14676095934)
(-11550.0144293647,9419.5591756395,15362.0344601317)
(-13903.8086453063,8162.91188318827,24748.6696677581)
(-18228.2201655749,6409.38607105444,39327.8706396019)
(-26017.9000000003,4373.97052210449,62763.1782450712)
(-39915.1077447946,2447.96870457161,101129.342500288)
(-64697.2036452338,1256.66429271178,164923.914634044)
(-105983.484523295,766.752539279503,270286.259815294)
(-147298.586886572,450.499514971064,417205.498952393)
(0,0,0)
(0,0,0)
(0,0,0)
(0,0,0)
(0,0,0)
(0,0,0)
(-11094.8427196543,18069.2797972205,3663.35423992398)
(-11599.6271384523,17496.1202851555,7993.82982709019)
(-12839.3443278291,16379.3128186,13873.4205119635)
(-15310.1865744368,14597.9158630743,22748.6031065168)
(-19908.4053578163,12082.1907739028,36984.203761473)
(-28154.9275460078,8998.1048633195,60514.9969662651)
(-42500.3554784766,5882.02028196101,99581.3008673676)
(-67067.648172056,3756.7766537617,164148.836678349)
(-107475.066038057,2586.44454238787,269804.210713318)
(-147961.573683901,1471.81469656566,416744.469215691)
(0,0,0)
(0,0,0)
(0,0,0)
(0,0,0)
(0,0,0)
(0,0,0)
(-13389.0935947244,28341.6880958961,3116.68529605023)
(-13905.3629672628,27682.9481906918,6835.22035777891)
(-15212.591497912,26403.341011077,12023.7836632069)
(-17862.7597459622,24337.0643086967,20147.3949635383)
(-22890.2194370942,21385.9615342605,33733.843640282)
(-32019.5613953908,17570.2023944618,57181.3075045344)
(-47464.6026840304,13329.1633069644,97198.7671635563)
(-71652.9999512424,9840.61232162614,162767.93144687)
(-110256.587185508,7046.13252701558,268564.830647715)
(-149154.85495244,3833.88979454642,415357.610502303)
(0,0,0)
(0,0,0)
(0,0,0)
(0,0,0)
(0,0,0)
(0,0,0)
(-17503.20213013,43301.1985812874,2543.69164473491)
(-18016.0898387141,42635.3071312774,5607.42254286007)
(-19364.0048056783,41360.6154395062,10014.152920111)
(-22145.6962604784,39303.6954553147,17193.2180339698)
(-27618.9731011918,36362.5581488796,29835.5945205438)
(-37878.7272199885,32427.1443721287,52857.3797628436)
(-55081.0507448235,27610.5574378074,93657.0363768242)
(-78697.1358140762,22232.9710192597,159961.813493277)
(-114360.071309155,16012.5678372908,265355.44949224)
(-150934.25693872,8497.59096780826,411626.005257676)
(0,0,0)
(0,0,0)
(0,0,0)
(0,0,0)
(0,0,0)
(0,0,0)
(-24858.7244252255,66173.8941617013,1986.02884481431)
(-25366.7327589753,65547.2753628934,4440.79337216918)
(-26682.1146150513,64370.4012538066,8113.12217292073)
(-29432.1752770419,62504.1558179789,14344.8370872966)
(-34985.0224244551,59768.8128956879,25923.6047649487)
(-45459.1982605562,55766.6287357644,48043.3186618882)
(-62712.4154406289,50015.6074438677,88350.6840964686)
(-85243.8377894213,41951.0345839744,153876.458321176)
(-118868.815211514,30718.5326812522,258039.3086888)
(-153200.779187249,16383.1694738939,403354.509369802)
(0,0,0)
(0,0,0)
(0,0,0)
(0,0,0)
(0,0,0)
(0,0,0)
(-38363.0129362456,103030.562905938,1506.34419200812)
(-38835.3436463324,102459.424238584,3429.5389626605)
(-40044.3618935638,101425.409399533,6418.89271050305)
(-42581.9983846969,99768.1102160509,11736.936697131)
(-47764.3024048167,97210.0988637355,22059.953133896)
(-57606.6102539456,92976.9564532758,42456.2356703249)
(-73819.7722826704,85802.0548681729,80489.5605287009)
(-94336.2702221016,73882.3804735835,142894.484861198)
(-125660.650400286,55249.0305596143,244024.637383067)
(-156954.173693003,30093.9012712388,387268.079278834)
(0,0,0)
(0,0,0)
(0,0,0)
(0,0,0)
(0,0,0)
(0,0,0)
(-63183.0590662814,165070.763990121,1142.8579820981)
(-63583.8941782179,164611.145549415,2575.03084949043)
(-64579.1260528828,163691.568362994,4887.99793892703)
(-66662.4638454517,162102.934155761,9215.63784465681)
(-70933.3775973137,159429.728491728,17929.3858139719)
(-79132.8632497368,154548.823474708,35490.3820422586)
(-92746.7866771237,145188.573051165,68850.6505363708)
(-109401.726633915,127544.479915967,124590.277727923)
(-137987.168086812,98635.836891132,219190.639483216)
(-164117.239409714,55911.7676639754,357490.012500133)
(0,0,0)
(0,0,0)
(0,0,0)
(0,0,0)
(0,0,0)
(0,0,0)
(-104939.573164587,269236.355557892,773.981596784991)
(-105228.456288419,268848.38598513,1765.19744950741)
(-105916.09196998,267953.873725461,3418.98405697591)
(-107323.118974178,266229.601284418,6615.43590248284)
(-110144.528866011,263018.986300477,13170.7069597414)
(-115454.89563322,256802.97552418,26371.4505434923)
(-124391.476796834,244407.122794633,51544.377596868)
(-137696.512930777,220631.630858985,96153.7395846304)
(-160625.531133875,178470.960960655,176944.146648904)
(-176544.570115839,107328.879699082,302071.604729648)
(0,0,0)
(0,0,0)
(0,0,0)
(0,0,0)
(0,0,0)
(0,0,0)
(-146795.952602825,415649.717004481,382.591156263514)
(-146942.174678789,415257.888882561,915.262937625434)
(-147282.343853689,414354.132943443,1797.34757336073)
(-147975.430033373,412462.959467733,3539.41942345494)
(-149346.883278553,408778.333457299,7126.9555452221)
(-151910.648670076,401534.151649319,14306.4280901473)
(-156386.498595795,386892.985035252,28207.0644453174)
(-163920.193241097,358219.563094673,54539.3254506858)
(-176493.425012485,303124.132122536,106379.579301245)
(-177825.394882063,196142.330996295,195391.522886124)
(0,0,0)
(0,0,0)
(0,0,0)
(0,0,0)
(0,0,0)
(0,0,0)
(0,0,0)
(0,0,0)
(0,0,0)
(0,0,0)
(0,0,0)
(0,0,0)
(0,0,0)
(0,0,0)
(0,0,0)
(0,0,0)
(0,0,0)
(0,0,0)
(0,0,0)
(0,0,0)
(0,0,0)
(0,0,0)
(0,0,0)
(0,0,0)
(0,0,0)
(0,0,0)
(0,0,0)
(0,0,0)
(0,0,0)
(0,0,0)
(0,0,0)
(0,0,0)
(0,0,0)
(0,0,0)
(0,0,0)
(0,0,0)
(0,0,0)
(0,0,0)
(0,0,0)
(0,0,0)
(0,0,0)
(0,0,0)
(0,0,0)
(0,0,0)
(0,0,0)
(0,0,0)
(0,0,0)
(0,0,0)
(0,0,0)
(0,0,0)
(0,0,0)
(0,0,0)
(0,0,0)
(0,0,0)
(0,0,0)
(0,0,0)
(0,0,0)
(0,0,0)
(0,0,0)
(0,0,0)
(0,0,0)
(0,0,0)
(0,0,0)
(0,0,0)
(0,0,0)
(0,0,0)
(0,0,0)
(0,0,0)
(0,0,0)
(0,0,0)
(0,0,0)
(0,0,0)
(0,0,0)
(0,0,0)
(0,0,0)
(0,0,0)
(0,0,0)
(0,0,0)
(0,0,0)
(0,0,0)
(0,0,0)
(0,0,0)
(0,0,0)
(0,0,0)
(0,0,0)
(0,0,0)
(0,0,0)
(0,0,0)
(0,0,0)
(0,0,0)
(0,0,0)
(0,0,0)
(0,0,0)
(0,0,0)
(0,0,0)
(0,0,0)
(0,0,0)
(0,0,0)
(0,0,0)
(0,0,0)
(0,0,0)
(0,0,0)
(1380738.12242155,4376.29529393029,3840.85706257969)
(1379903.79755269,4184.30712629845,8198.3193557237)
(1377938.12411612,3751.04734426588,13780.5086529819)
(1374139.09835696,3048.23494360575,21564.3257026325)
(1367298.59083439,2050.47249890859,32966.5186430823)
(1355057.21416644,893.434454000053,50140.669876689)
(1332613.13275054,-145.870990148601,77035.9801304926)
(1288271.06174034,-593.879262845005,123846.954235737)
(1188029.98684194,-482.598898529899,229160.828654899)
(915722.654572763,-214.059444449309,564879.042406842)
(0,0,0)
(0,0,0)
(0,0,0)
(0,0,0)
(0,0,0)
(0,0,0)
(1379772.23621743,9412.87079157415,3585.38196025116)
(1378954.03706903,9014.82949326889,7693.37270462716)
(1376978.77163864,8181.68321498978,12979.1549158572)
(1373118.08867936,6812.74768445177,20437.9490003236)
(1366110.24695212,4780.74772999922,31614.4108015519)
(1353560.45866758,2263.15337658742,48911.5373614438)
(1330801.21876479,-127.826743143634,76422.3707549103)
(1286645.79033698,-1104.31222283572,123835.013882702)
(1187060.3617374,-765.894491051108,229319.667364323)
(915305.797338559,-259.251597539117,565005.679442213)
(0,0,0)
(0,0,0)
(0,0,0)
(0,0,0)
(0,0,0)
(0,0,0)
(1377679.54748382,15758.9438368895,3124.74090114498)
(1376865.2686584,15201.451200847,6718.42754671157)
(1374855.55917323,14058.0173064847,11392.3941042428)
(1370828.86745591,12120.3725274561,18190.9193809463)
(1363340.06625697,9150.41782112503,28817.9818250483)
(1349810.76816637,5145.96305421068,46214.6805850647)
(1325805.73909952,915.302223788726,75110.6611901818)
(1282083.70472301,-832.583995319627,123932.784217712)
(1184448.79801411,-220.419378387628,229708.649202817)
(914242.621048217,212.662927659188,565277.744095547)
(0,0,0)
(0,0,0)
(0,0,0)
(0,0,0)
(0,0,0)
(0,0,0)
(1373864.27304047,24201.4011964158,2549.38015526392)
(1373037.21479014,23559.3541143177,5494.10363442398)
(1370963.83646003,22261.2946094735,9359.60252348771)
(1366685.98000266,20062.90725554,15113.5321967986)
(1358337.33655883,16653.6692864967,24627.9288855666)
(1342542.38374173,11707.2237516423,41749.9272010694)
(1314636.00959875,5709.68237251683,73100.1389196025)
(1271669.10662612,2810.07910913387,124380.573387786)
(1179126.34526436,2954.16079386031,230068.264915557)
(912227.354287144,2036.10157380253,565107.821179951)
(0,0,0)
(0,0,0)
(0,0,0)
(0,0,0)
(0,0,0)
(0,0,0)
(1367165.37397521,35802.876574386,1975.15266667139)
(1366335.18606977,35194.9545083042,4233.48051417219)
(1364217.48240942,33973.8091499304,7184.68290869367)
(1359734.89694359,31955.9476891063,11656.2534210239)
(1350398.31652203,28973.7961849236,19564.0410494535)
(1331153.02316767,24844.7546326149,35639.963930859)
(1294415.84466658,19987.7998248322,70110.1552171652)
(1252223.40424482,15709.363943849,124535.534473626)
(1170693.48695146,11502.9756586801,229178.365498078)
(909170.523244439,6225.17592750456,563129.7151112)
(0,0,0)
(0,0,0)
(0,0,0)
(0,0,0)
(0,0,0)
(0,0,0)
(1355280.69374159,52462.1700645768,1446.49249296177)
(1354479.11794229,51933.0942742371,3107.70617581304)
(1352437.91910417,50911.8450138712,5294.8407426301)
(1348025.62886865,49297.2101596911,8740.97827647478)
(1338554.8475598,46969.1383412488,15450.9702859237)
(1318727.11273495,43591.190643142,30763.4274298594)
(1281507.09030011,38911.1355702248,65865.7900937658)
(1241216.57032395,32904.4760982031,120455.473975925)
(1163318.28347889,23959.5515787721,224057.003515442)
(905569.90682019,12667.6595380841,557089.038047359)
(0,0,0)
(0,0,0)
(0,0,0)
(0,0,0)
(0,0,0)
(0,0,0)
(1333224.90544015,78089.7315689087,1029.72426927938)
(1332500.47367857,77645.8522448517,2226.35312380006)
(1330649.38591927,76855.7698653074,3833.8846096537)
(1326596.36534816,75684.4035095574,6513.53167692676)
(1317727.05720167,74046.911368153,12189.6031935736)
(1298738.46020777,71464.841172826,26216.0863521136)
(1262576.52760273,66938.9225368853,60037.2036499979)
(1226168.29991217,58921.430594562,111760.883169431)
(1152234.79827075,43015.3229304673,213054.867296504)
(899313.857721886,22995.7718417397,544703.927728083)
(0,0,0)
(0,0,0)
(0,0,0)
(0,0,0)
(0,0,0)
(0,0,0)
(1288933.62450184,123457.516075509,760.736075327149)
(1288338.44238156,123125.591707616,1603.86420280059)
(1286828.2809727,122506.351076661,2791.08011586766)
(1283523.35760214,121613.070155304,4921.796172561)
(1276185.21442588,120388.877940346,9706.44172703635)
(1260027.29703643,118383.210391344,21873.1163724659)
(1228296.32725246,113729.093996157,52285.0351335614)
(1204423.68128088,99430.310364576,96195.9515986407)
(1129940.30499364,76142.126974158,193386.878624436)
(884901.813160346,43549.6721094134,522059.129936705)
(0,0,0)
(0,0,0)
(0,0,0)
(0,0,0)
(0,0,0)
(0,0,0)
(1188492.12909419,227766.870679631,504.14728716385)
(1188070.31444718,227486.654473603,1089.51793565499)
(1187038.68984142,226891.782678798,1994.50867212651)
(1184856.43382908,225902.362408338,3770.86776579438)
(1180246.5570525,224171.773757945,7842.0901796575)
(1170869.91343479,220688.308636695,17457.3870162914)
(1153961.37165361,212762.527804417,38316.3089076562)
(1130202.96182781,194723.028111463,73369.3205522446)
(1062981.56242198,162863.268278358,161286.28984219)
(841340.772847329,106189.93609249,479005.887045903)
(0,0,0)
(0,0,0)
(0,0,0)
(0,0,0)
(0,0,0)
(0,0,0)
(915909.168792427,563073.792286848,233.161147447692)
(915707.356651847,562764.872846579,550.615593769585)
(915202.767620833,562132.140470199,1070.35047787315)
(914153.980990998,560952.461124623,2136.04488734235)
(912003.994832889,558665.20704438,4536.93763954381)
(907780.361139533,553948.223445249,9831.21717142816)
(899968.666566104,543800.030348321,20683.7536156526)
(885028.42816122,522667.385665217,42035.9788096623)
(841340.524259135,480098.169065124,105212.332901301)
(684092.346600522,374252.237537364,373477.494123723)
(0,0,0)
(0,0,0)
(0,0,0)
(0,0,0)
(0,0,0)
(0,0,0)
(0,0,0)
(0,0,0)
(0,0,0)
(0,0,0)
(0,0,0)
(0,0,0)
(0,0,0)
(0,0,0)
(0,0,0)
(0,0,0)
(0,0,0)
(0,0,0)
(0,0,0)
(0,0,0)
(0,0,0)
(0,0,0)
(0,0,0)
(0,0,0)
(0,0,0)
(0,0,0)
(0,0,0)
(0,0,0)
(0,0,0)
(0,0,0)
(0,0,0)
(0,0,0)
(0,0,0)
(0,0,0)
(0,0,0)
(0,0,0)
(0,0,0)
(0,0,0)
(0,0,0)
(0,0,0)
(0,0,0)
(0,0,0)
(0,0,0)
(0,0,0)
(0,0,0)
(0,0,0)
(0,0,0)
(0,0,0)
(0,0,0)
(0,0,0)
(0,0,0)
(0,0,0)
(0,0,0)
(0,0,0)
(0,0,0)
(0,0,0)
(0,0,0)
(0,0,0)
(0,0,0)
(0,0,0)
(0,0,0)
(0,0,0)
(0,0,0)
(0,0,0)
(0,0,0)
(0,0,0)
(0,0,0)
(0,0,0)
(0,0,0)
(0,0,0)
(0,0,0)
(0,0,0)
(0,0,0)
(0,0,0)
(0,0,0)
(0,0,0)
(0,0,0)
(0,0,0)
(0,0,0)
(0,0,0)
(0,0,0)
(0,0,0)
(0,0,0)
(0,0,0)
(0,0,0)
(0,0,0)
(0,0,0)
(0,0,0)
(0,0,0)
(0,0,0)
(0,0,0)
(0,0,0)
(0,0,0)
(0,0,0)
(0,0,0)
(0,0,0)
(0,0,0)
(0,0,0)
(0,0,0)
(0,0,0)
(0,0,0)
(0,0,0)
(-23907.587674209,3491.9973556122,2908.50859016391)
(-24799.7622349272,3298.94220652252,6067.92202120033)
(-26944.6645287747,2831.33847717658,9874.16803899469)
(-30991.2661307414,2057.28794153258,14702.0404351926)
(-37961.7321195797,901.032474070752,20816.1267650881)
(-49603.4199808641,-600.692479527179,27832.2492420483)
(-68645.9278413223,-1982.71515734631,32828.820841313)
(-98846.7790687384,-2233.33221874482,23934.7897191483)
(-142226.483612606,-1485.63297310537,-42568.3110032589)
(-174626.049141369,-644.684741975752,-349820.126696987)
(0,0,0)
(0,0,0)
(0,0,0)
(0,0,0)
(0,0,0)
(0,0,0)
(-25001.8376150913,7351.57680956761,2669.29022854632)
(-25869.7005755085,6970.33525004494,5576.43067951126)
(-27980.3895955508,6101.62571545689,9020.10052546163)
(-32007.5956105058,4567.30506621707,13390.563540662)
(-39056.0716996844,2078.49601780356,19134.2144987269)
(-50976.6042807082,-1461.23348310442,26286.6143005366)
(-70436.8354750709,-5122.3288625734,32419.0780955884)
(-100327.894201419,-5646.95851184328,24561.184777053)
(-142916.197427078,-3386.31973924445,-41806.7734421531)
(-174845.796235751,-1352.70139078569,-349192.367368963)
(0,0,0)
(0,0,0)
(0,0,0)
(0,0,0)
(0,0,0)
(0,0,0)
(-27343.6340683275,11922.6474074111,2206.9068043714)
(-28183.3925877389,11404.5517404238,4576.14741013232)
(-30256.4125438109,10244.3342393592,7300.20645318084)
(-34303.8177887552,8049.83592490892,10705.1566891047)
(-41681.500799271,4202.6451480866,15357.3704650409)
(-54779.7620504387,-2098.50211583329,22339.9651645568)
(-76544.4982740475,-10249.7699875949,31572.4395131061)
(-105600.572491324,-11246.8105935772,26611.3646590466)
(-145161.355083617,-5565.3774460073,-39844.6286863629)
(-175538.046606631,-1861.21544493768,-347800.651127384)
(0,0,0)
(0,0,0)
(0,0,0)
(0,0,0)
(0,0,0)
(0,0,0)
(-31537.2515063639,17455.2159139857,1623.75189027347)
(-32352.8243047993,16873.2475448143,3299.89103079073)
(-34363.3254916892,15607.4429573989,5018.74011447704)
(-38457.9452203409,13204.8890277686,6762.40808459748)
(-46617.438562197,8784.08939471773,8890.53480893634)
(-63250.7128840527,370.967505560985,13968.957663284)
(-95724.9590205873,-14492.1884743343,30327.1406193223)
(-123047.783727429,-16620.4860901981,32172.5023195194)
(-150866.260433386,-5485.25055441604,-36160.2230242611)
(-177060.681706913,-1063.38147869787,-345915.22514653)
(0,0,0)
(0,0,0)
(0,0,0)
(0,0,0)
(0,0,0)
(0,0,0)
(-38516.4060364686,23810.9989896955,1080.79278597999)
(-39302.4905891429,23299.7184666126,2046.79437311891)
(-41227.4232432086,22220.7712957611,2633.16753730313)
(-45298.3409108937,20328.6865951983,2297.40367439154)
(-54405.8072746106,17250.5953755306,389.817340145797)
(-77863.1126972283,12523.6523364009,-991.935775828097)
(-154505.158701362,7131.67745101775,28059.9975167086)
(-182641.03430712,4752.40503187528,43306.3407965469)
(-162167.585292061,4144.23793615071,-31707.2796004224)
(-179600.734215586,2603.84424443532,-344848.452013395)
(0,0,0)
(0,0,0)
(0,0,0)
(0,0,0)
(0,0,0)
(0,0,0)
(-49993.785435498,30218.3476557665,621.926361054048)
(-50719.3885127684,29842.7340781873,1032.21305449563)
(-52474.4180853215,29100.2561452957,819.861244470668)
(-56272.3860315298,27953.6322472291,-752.273657500444)
(-65152.4509867699,26272.8805975988,-4312.46448302269)
(-88604.7375407046,23699.5084263069,-6401.67444723934)
(-161726.993313801,20062.1804788152,25656.7019888229)
(-187385.029524738,17951.8065936026,42813.6961258403)
(-167821.087645005,12961.5766661961,-33109.4756303578)
(-182340.548838814,6467.34311657712,-347307.722993368)
(0,0,0)
(0,0,0)
(0,0,0)
(0,0,0)
(0,0,0)
(0,0,0)
(-68814.8145132786,33711.3814961029,301.481963072542)
(-69439.5269685693,33471.7736699515,367.238868415851)
(-70965.8809407903,33100.588257456,-263.030533826964)
(-74317.8944476532,32755.821638435,-2396.16427921541)
(-82512.6373308841,32667.2377211759,-6796.0310202643)
(-105560.814451772,32901.0153081177,-9943.46739246254)
(-182079.862770029,32823.5956663574,23706.3036428271)
(-205851.227240186,37355.6433140252,38076.789924723)
(-176536.703304252,20880.5811856873,-39315.9171695744)
(-186976.129561556,8691.51490885731,-353495.305828561)
(0,0,0)
(0,0,0)
(0,0,0)
(0,0,0)
(0,0,0)
(0,0,0)
(-99002.3214290462,23226.4766144033,175.646662541716)
(-99482.9676670237,23104.7669890864,118.859241972274)
(-100680.742451701,22999.7394029098,-516.472629084644)
(-103341.781241776,23278.1827711668,-2418.89906793444)
(-110182.284813479,24796.5535460304,-6425.91980329507)
(-131447.686220293,29544.5717455381,-9839.69713408464)
(-215212.030911229,39735.3948787631,28511.6576672507)
(-175417.634414394,25507.175680934,21956.2368456612)
(-183751.446682044,9405.75282798747,-51122.3872708368)
(-194118.37900488,113.606701213414,-361769.491047914)
(0,0,0)
(0,0,0)
(0,0,0)
(0,0,0)
(0,0,0)
(0,0,0)
(-142477.755736023,-44170.583856184,121.741150731208)
(-142800.618342823,-44261.012705785,113.249485527642)
(-143592.470180749,-44344.6640481339,-156.391191254981)
(-145257.440394376,-44187.9296372857,-821.608709311024)
(-149074.135142487,-43432.8715905395,-1516.695527722)
(-158187.149504493,-41751.7500091978,591.485016273053)
(-178042.409958806,-40572.1831694046,14657.6405268009)
(-184365.236148181,-49863.7161775207,6351.52621116687)
(-201315.298209542,-58294.5468860687,-59896.5175932415)
(-204628.187791586,-50751.8493531333,-361307.305049979)
(0,0,0)
(0,0,0)
(0,0,0)
(0,0,0)
(0,0,0)
(0,0,0)
(-174878.510092367,-351692.407709596,64.2985882367992)
(-175017.057844991,-351809.002397329,91.4986265720213)
(-175389.394990107,-351956.379862158,50.1729015500794)
(-176161.708958537,-352064.114690525,-3.15624581350798)
(-177819.440811196,-352168.036047133,310.239704864955)
(-181271.208286811,-352669.044193688,2033.89916566243)
(-187608.967557944,-354993.520743789,5787.66671413487)
(-194548.597065048,-361217.448596183,-1526.77979105443)
(-204783.007794944,-360210.912903981,-51732.0858691039)
(-197670.060191871,-309103.586405696,-309863.146174114)
(0,0,0)
(0,0,0)
(0,0,0)
(0,0,0)
(0,0,0)
(0,0,0)
(0,0,0)
(0,0,0)
(0,0,0)
(0,0,0)
(0,0,0)
(0,0,0)
(0,0,0)
(0,0,0)
(0,0,0)
(0,0,0)
(0,0,0)
(0,0,0)
(0,0,0)
(0,0,0)
(0,0,0)
(0,0,0)
(0,0,0)
(0,0,0)
(0,0,0)
(0,0,0)
(0,0,0)
(0,0,0)
(0,0,0)
(0,0,0)
(0,0,0)
(0,0,0)
(0,0,0)
(0,0,0)
(0,0,0)
(0,0,0)
(0,0,0)
(0,0,0)
(0,0,0)
(0,0,0)
(0,0,0)
(0,0,0)
(0,0,0)
(0,0,0)
(0,0,0)
(0,0,0)
(0,0,0)
(0,0,0)
(0,0,0)
(0,0,0)
(0,0,0)
(0,0,0)
(0,0,0)
(0,0,0)
(0,0,0)
(0,0,0)
(0,0,0)
(0,0,0)
(0,0,0)
(0,0,0)
(0,0,0)
(0,0,0)
(0,0,0)
(0,0,0)
(0,0,0)
(0,0,0)
(0,0,0)
(0,0,0)
(0,0,0)
(0,0,0)
(0,0,0)
(0,0,0)
(0,0,0)
(0,0,0)
(0,0,0)
(0,0,0)
(0,0,0)
(0,0,0)
(0,0,0)
(0,0,0)
(0,0,0)
(0,0,0)
(0,0,0)
(0,0,0)
(0,0,0)
(0,0,0)
(0,0,0)
(0,0,0)
(0,0,0)
(0,0,0)
(0,0,0)
(0,0,0)
(0,0,0)
(0,0,0)
(0,0,0)
(0,0,0)
(0,0,0)
(0,0,0)
(0,0,0)
(0,0,0)
(0,0,0)
(0,0,0)
(-28208.1064692472,2405.39030242097,1895.12849261772)
(-28959.1555478594,2247.36843935376,3807.15336620062)
(-30743.7182998978,1816.08377177853,5790.12336554658)
(-33971.0166238762,1035.51882192543,7734.35503675232)
(-39226.7222961934,-197.381442192233,9196.72665555987)
(-47275.4354809793,-1989.27132944081,8858.01348511871)
(-58807.8980907146,-3792.82430917535,2812.80804368867)
(-73163.9247796708,-3750.07950606114,-19119.9667393249)
(-84672.4041197169,-2229.7040054491,-74444.3422267379)
(-73655.736937336,-907.719262675294,-174506.935168077)
(0,0,0)
(0,0,0)
(0,0,0)
(0,0,0)
(0,0,0)
(0,0,0)
(-29206.8182520504,4937.06579387457,1673.30514550405)
(-29928.085933348,4640.2308257451,3338.82811695335)
(-31611.4309170499,3851.12541265159,4934.82779758268)
(-34637.8814739058,2269.11465618055,6331.51782672332)
(-39618.9037767877,-550.112813877885,7247.08127551528)
(-47378.032370275,-5265.89283310717,6925.13086875554)
(-58803.5316498596,-11233.2392057414,2732.24194011713)
(-72718.3201120775,-10941.5521004902,-17685.859554793)
(-84026.4720215376,-5657.03223519822,-73148.2567305781)
(-73263.1128965023,-2076.72275559035,-173561.936576965)
(0,0,0)
(0,0,0)
(0,0,0)
(0,0,0)
(0,0,0)
(0,0,0)
(-31316.3238164215,7635.6307504979,1274.12479147456)
(-31947.6266956948,7240.51715823865,2438.07256693278)
(-33419.0882161074,6199.73095697416,3252.14269490539)
(-36062.4576182109,3922.68461566469,3357.21256488036)
(-40497.7035951246,-711.484590983342,2334.78713783757)
(-47901.390215744,-10535.1328045928,725.655274616067)
(-60416.6754354765,-29413.9263215656,2778.51955187116)
(-72499.4772357775,-28712.6627727178,-12551.4650314588)
(-82497.0601116479,-11280.1943387036,-69592.5978999075)
(-72356.5946792668,-3396.52427280277,-171454.248310063)
(0,0,0)
(0,0,0)
(0,0,0)
(0,0,0)
(0,0,0)
(0,0,0)
(-34969.0766846065,10314.6185616595,752.837367088205)
(-35481.0476749384,9879.30323495396,1242.27466051719)
(-36623.8743354761,8798.68871928209,903.865741998531)
(-38653.9750241322,6416.32499579704,-1393.74483434356)
(-42076.3501463202,1034.54421261705,-7680.86205381853)
(-48885.7019339576,-14206.9620643814,-18374.0437441264)
(-73490.9106160174,-73266.772016818,3244.75354654941)
(-77069.516874157,-76204.7835798568,4758.60750041998)
(-78874.3412011596,-16773.033625066,-61740.4724454475)
(-70512.477612275,-3603.1915656202,-168082.009247288)
(0,0,0)
(0,0,0)
(0,0,0)
(0,0,0)
(0,0,0)
(0,0,0)
(-40625.1936413195,12155.3564458655,268.049720643087)
(-41028.7226462694,11798.2872166003,75.2977961229576)
(-41812.7122175492,10974.9255267102,-1515.65003696339)
(-42954.5308632616,9408.09245157998,-6851.2275403753)
(-43775.6964217299,6586.08807180116,-23032.8822524424)
(-39402.8771497066,1872.98522051951,-77573.0650848725)