/*--------------------------------*- C++ -*----------------------------------*\
| =========                 |                                                 |
| \\      /  F ield         | foam-extend: Open Source CFD                    |
|  \\    /   O peration     | Version:     4.0                                |
|   \\  /    A nd           | Web:         http://www.foam-extend.org         |
|    \\/     M anipulation  |                                                 |
\*---------------------------------------------------------------------------*/
FoamFile
{
    version 2.0;
    format ascii;
    class volVectorField;
    location "2685";
    object      H;
}
// * * * * * * * * * * * * * * * * * * * * * * * * * * * * * * * * * * * * * //

dimensions      [0 1 -1 0 0 0 0];

internalField   nonuniform List<vector>
4096
(
(0,0,0)
(0,0,0)
(0,0,0)
(0,0,0)
(0,0,0)
(0,0,0)
(0,0,0)
(0,0,0)
(0,0,0)
(0,0,0)
(0,0,0)
(0,0,0)
(0,0,0)
(0,0,0)
(0,0,0)
(0,0,0)
(0,0,0)
(0,0,0)
(0,0,0)
(0,0,0)
(0,0,0)
(0,0,0)
(0,0,0)
(0,0,0)
(0,0,0)
(0,0,0)
(0,0,0)
(0,0,0)
(0,0,0)
(0,0,0)
(0,0,0)
(0,0,0)
(0,0,0)
(0,0,0)
(0,0,0)
(0,0,0)
(0,0,0)
(0,0,0)
(0,0,0)
(0,0,0)
(0,0,0)
(0,0,0)
(0,0,0)
(0,0,0)
(0,0,0)
(0,0,0)
(0,0,0)
(0,0,0)
(0,0,0)
(0,0,0)
(0,0,0)
(0,0,0)
(0,0,0)
(0,0,0)
(0,0,0)
(0,0,0)
(0,0,0)
(0,0,0)
(0,0,0)
(0,0,0)
(0,0,0)
(0,0,0)
(0,0,0)
(0,0,0)
(0,0,0)
(0,0,0)
(0,0,0)
(0,0,0)
(0,0,0)
(0,0,0)
(0,0,0)
(0,0,0)
(0,0,0)
(0,0,0)
(0,0,0)
(0,0,0)
(0,0,0)
(0,0,0)
(0,0,0)
(0,0,0)
(0,0,0)
(0,0,0)
(0,0,0)
(0,0,0)
(0,0,0)
(0,0,0)
(0,0,0)
(0,0,0)
(0,0,0)
(0,0,0)
(0,0,0)
(0,0,0)
(0,0,0)
(0,0,0)
(0,0,0)
(0,0,0)
(0,0,0)
(0,0,0)
(0,0,0)
(0,0,0)
(0,0,0)
(0,0,0)
(0,0,0)
(0,0,0)
(0,0,0)
(0,0,0)
(0,0,0)
(0,0,0)
(0,0,0)
(0,0,0)
(0,0,0)
(0,0,0)
(0,0,0)
(0,0,0)
(0,0,0)
(0,0,0)
(0,0,0)
(0,0,0)
(0,0,0)
(0,0,0)
(0,0,0)
(0,0,0)
(0,0,0)
(0,0,0)
(0,0,0)
(0,0,0)
(0,0,0)
(0,0,0)
(0,0,0)
(0,0,0)
(0,0,0)
(0,0,0)
(0,0,0)
(0,0,0)
(0,0,0)
(0,0,0)
(0,0,0)
(0,0,0)
(0,0,0)
(0,0,0)
(0,0,0)
(0,0,0)
(0,0,0)
(0,0,0)
(0,0,0)
(0,0,0)
(0,0,0)
(0,0,0)
(0,0,0)
(0,0,0)
(0,0,0)
(0,0,0)
(0,0,0)
(0,0,0)
(0,0,0)
(0,0,0)
(0,0,0)
(0,0,0)
(0,0,0)
(0,0,0)
(0,0,0)
(0,0,0)
(0,0,0)
(0,0,0)
(0,0,0)
(0,0,0)
(0,0,0)
(0,0,0)
(0,0,0)
(0,0,0)
(0,0,0)
(0,0,0)
(0,0,0)
(0,0,0)
(0,0,0)
(0,0,0)
(0,0,0)
(0,0,0)
(0,0,0)
(0,0,0)
(0,0,0)
(0,0,0)
(0,0,0)
(0,0,0)
(0,0,0)
(0,0,0)
(0,0,0)
(0,0,0)
(0,0,0)
(0,0,0)
(0,0,0)
(0,0,0)
(0,0,0)
(0,0,0)
(0,0,0)
(0,0,0)
(0,0,0)
(0,0,0)
(0,0,0)
(0,0,0)
(0,0,0)
(0,0,0)
(0,0,0)
(0,0,0)
(0,0,0)
(0,0,0)
(0,0,0)
(0,0,0)
(0,0,0)
(0,0,0)
(0,0,0)
(0,0,0)
(0,0,0)
(0,0,0)
(0,0,0)
(0,0,0)
(0,0,0)
(0,0,0)
(0,0,0)
(0,0,0)
(0,0,0)
(0,0,0)
(0,0,0)
(0,0,0)
(0,0,0)
(0,0,0)
(0,0,0)
(0,0,0)
(0,0,0)
(0,0,0)
(0,0,0)
(0,0,0)
(0,0,0)
(0,0,0)
(0,0,0)
(0,0,0)
(0,0,0)
(0,0,0)
(0,0,0)
(0,0,0)
(0,0,0)
(0,0,0)
(0,0,0)
(0,0,0)
(0,0,0)
(0,0,0)
(0,0,0)
(0,0,0)
(0,0,0)
(0,0,0)
(0,0,0)
(0,0,0)
(0,0,0)
(0,0,0)
(0,0,0)
(0,0,0)
(0,0,0)
(0,0,0)
(0,0,0)
(0,0,0)
(0,0,0)
(0,0,0)
(0,0,0)
(0,0,0)
(0,0,0)
(0,0,0)
(0,0,0)
(0,0,0)
(0,0,0)
(0,0,0)
(0,0,0)
(0,0,0)
(0,0,0)
(0,0,0)
(0,0,0)
(0,0,0)
(0,0,0)
(0,0,0)
(0,0,0)
(0,0,0)
(0,0,0)
(0,0,0)
(0,0,0)
(0,0,0)
(0,0,0)
(0,0,0)
(0,0,0)
(0,0,0)
(0,0,0)
(0,0,0)
(0,0,0)
(0,0,0)
(0,0,0)
(0,0,0)
(0,0,0)
(0,0,0)
(0,0,0)
(0,0,0)
(0,0,0)
(0,0,0)
(0,0,0)
(0,0,0)
(0,0,0)
(0,0,0)
(0,0,0)
(0,0,0)
(0,0,0)
(0,0,0)
(0,0,0)
(0,0,0)
(0,0,0)
(0,0,0)
(0,0,0)
(0,0,0)
(0,0,0)
(0,0,0)
(0,0,0)
(0,0,0)
(0,0,0)
(0,0,0)
(0,0,0)
(0,0,0)
(0,0,0)
(0,0,0)
(0,0,0)
(0,0,0)
(0,0,0)
(0,0,0)
(0,0,0)
(0,0,0)
(0,0,0)
(0,0,0)
(0,0,0)
(0,0,0)
(0,0,0)
(0,0,0)
(0,0,0)
(0,0,0)
(0,0,0)
(0,0,0)
(0,0,0)
(0,0,0)
(0,0,0)
(0,0,0)
(0,0,0)
(0,0,0)
(0,0,0)
(0,0,0)
(0,0,0)
(0,0,0)
(0,0,0)
(0,0,0)
(0,0,0)
(0,0,0)
(0,0,0)
(0,0,0)
(0,0,0)
(0,0,0)
(0,0,0)
(0,0,0)
(0,0,0)
(0,0,0)
(0,0,0)
(0,0,0)
(0,0,0)
(0,0,0)
(0,0,0)
(0,0,0)
(0,0,0)
(0,0,0)
(0,0,0)
(0,0,0)
(0,0,0)
(0,0,0)
(0,0,0)
(0,0,0)
(0,0,0)
(0,0,0)
(0,0,0)
(0,0,0)
(0,0,0)
(0,0,0)
(0,0,0)
(0,0,0)
(0,0,0)
(0,0,0)
(0,0,0)
(0,0,0)
(0,0,0)
(0,0,0)
(0,0,0)
(0,0,0)
(0,0,0)
(0,0,0)
(0,0,0)
(0,0,0)
(0,0,0)
(0,0,0)
(0,0,0)
(0,0,0)
(0,0,0)
(0,0,0)
(0,0,0)
(0,0,0)
(0,0,0)
(0,0,0)
(0,0,0)
(0,0,0)
(0,0,0)
(0,0,0)
(0,0,0)
(0,0,0)
(0,0,0)
(0,0,0)
(0,0,0)
(0,0,0)
(0,0,0)
(0,0,0)
(0,0,0)
(0,0,0)
(0,0,0)
(0,0,0)
(0,0,0)
(0,0,0)
(0,0,0)
(0,0,0)
(0,0,0)
(0,0,0)
(0,0,0)
(0,0,0)
(0,0,0)
(0,0,0)
(0,0,0)
(0,0,0)
(0,0,0)
(0,0,0)
(0,0,0)
(0,0,0)
(0,0,0)
(0,0,0)
(0,0,0)
(0,0,0)
(0,0,0)
(0,0,0)
(0,0,0)
(0,0,0)
(0,0,0)
(0,0,0)
(0,0,0)
(0,0,0)
(0,0,0)
(0,0,0)
(0,0,0)
(0,0,0)
(0,0,0)
(0,0,0)
(0,0,0)
(0,0,0)
(0,0,0)
(0,0,0)
(0,0,0)
(0,0,0)
(0,0,0)
(0,0,0)
(0,0,0)
(0,0,0)
(0,0,0)
(0,0,0)
(0,0,0)
(0,0,0)
(0,0,0)
(0,0,0)
(0,0,0)
(0,0,0)
(0,0,0)
(0,0,0)
(0,0,0)
(0,0,0)
(0,0,0)
(0,0,0)
(0,0,0)
(0,0,0)
(0,0,0)
(0,0,0)
(0,0,0)
(0,0,0)
(0,0,0)
(0,0,0)
(0,0,0)
(0,0,0)
(0,0,0)
(0,0,0)
(0,0,0)
(0,0,0)
(0,0,0)
(0,0,0)
(0,0,0)
(0,0,0)
(0,0,0)
(0,0,0)
(0,0,0)
(0,0,0)
(0,0,0)
(0,0,0)
(0,0,0)
(0,0,0)
(0,0,0)
(0,0,0)
(0,0,0)
(0,0,0)
(0,0,0)
(0,0,0)
(0,0,0)
(0,0,0)
(0,0,0)
(0,0,0)
(0,0,0)
(0,0,0)
(0,0,0)
(0,0,0)
(0,0,0)
(0,0,0)
(0,0,0)
(0,0,0)
(0,0,0)
(0,0,0)
(0,0,0)
(0,0,0)
(0,0,0)
(0,0,0)
(0,0,0)
(0,0,0)
(0,0,0)
(0,0,0)
(0,0,0)
(0,0,0)
(0,0,0)
(0,0,0)
(0,0,0)
(0,0,0)
(0,0,0)
(0,0,0)
(0,0,0)
(0,0,0)
(0,0,0)
(0,0,0)
(0,0,0)
(0,0,0)
(0,0,0)
(0,0,0)
(0,0,0)
(0,0,0)
(0,0,0)
(0,0,0)
(0,0,0)
(0,0,0)
(0,0,0)
(0,0,0)
(0,0,0)
(0,0,0)
(0,0,0)
(0,0,0)
(0,0,0)
(0,0,0)
(0,0,0)
(0,0,0)
(0,0,0)
(0,0,0)
(0,0,0)
(0,0,0)
(0,0,0)
(0,0,0)
(0,0,0)
(0,0,0)
(0,0,0)
(0,0,0)
(0,0,0)
(0,0,0)
(0,0,0)
(0,0,0)
(0,0,0)
(0,0,0)
(0,0,0)
(0,0,0)
(0,0,0)
(0,0,0)
(0,0,0)
(0,0,0)
(0,0,0)
(0,0,0)
(0,0,0)
(0,0,0)
(0,0,0)
(0,0,0)
(0,0,0)
(0,0,0)
(0,0,0)
(0,0,0)
(0,0,0)
(0,0,0)
(0,0,0)
(0,0,0)
(0,0,0)
(0,0,0)
(0,0,0)
(0,0,0)
(0,0,0)
(0,0,0)
(0,0,0)
(0,0,0)
(0,0,0)
(0,0,0)
(0,0,0)
(0,0,0)
(0,0,0)
(0,0,0)
(0,0,0)
(0,0,0)
(0,0,0)
(0,0,0)
(0,0,0)
(0,0,0)
(0,0,0)
(0,0,0)
(0,0,0)
(0,0,0)
(0,0,0)
(0,0,0)
(0,0,0)
(0,0,0)
(0,0,0)
(0,0,0)
(0,0,0)
(0,0,0)
(0,0,0)
(0,0,0)
(0,0,0)
(0,0,0)
(0,0,0)
(0,0,0)
(0,0,0)
(0,0,0)
(0,0,0)
(0,0,0)
(0,0,0)
(0,0,0)
(0,0,0)
(0,0,0)
(0,0,0)
(0,0,0)
(0,0,0)
(0,0,0)
(0,0,0)
(0,0,0)
(0,0,0)
(0,0,0)
(0,0,0)
(0,0,0)
(0,0,0)
(0,0,0)
(0,0,0)
(0,0,0)
(0,0,0)
(0,0,0)
(0,0,0)
(0,0,0)
(0,0,0)
(0,0,0)
(0,0,0)
(0,0,0)
(0,0,0)
(0,0,0)
(0,0,0)
(0,0,0)
(0,0,0)
(0,0,0)
(0,0,0)
(0,0,0)
(0,0,0)
(0,0,0)
(0,0,0)
(0,0,0)
(0,0,0)
(0,0,0)
(0,0,0)
(0,0,0)
(0,0,0)
(0,0,0)
(0,0,0)
(0,0,0)
(0,0,0)
(0,0,0)
(0,0,0)
(0,0,0)
(0,0,0)
(0,0,0)
(0,0,0)
(0,0,0)
(0,0,0)
(0,0,0)
(0,0,0)
(0,0,0)
(0,0,0)
(0,0,0)
(0,0,0)
(0,0,0)
(0,0,0)
(0,0,0)
(0,0,0)
(0,0,0)
(0,0,0)
(0,0,0)
(0,0,0)
(0,0,0)
(0,0,0)
(0,0,0)
(0,0,0)
(0,0,0)
(0,0,0)
(0,0,0)
(0,0,0)
(0,0,0)
(0,0,0)
(0,0,0)
(0,0,0)
(0,0,0)
(0,0,0)
(0,0,0)
(0,0,0)
(0,0,0)
(0,0,0)
(0,0,0)
(0,0,0)
(0,0,0)
(0,0,0)
(0,0,0)
(0,0,0)
(0,0,0)
(0,0,0)
(0,0,0)
(0,0,0)
(0,0,0)
(0,0,0)
(0,0,0)
(0,0,0)
(0,0,0)
(0,0,0)
(0,0,0)
(0,0,0)
(0,0,0)
(0,0,0)
(0,0,0)
(0,0,0)
(0,0,0)
(0,0,0)
(0,0,0)
(0,0,0)
(0,0,0)
(0,0,0)
(0,0,0)
(0,0,0)
(0,0,0)
(0,0,0)
(0,0,0)
(0,0,0)
(0,0,0)
(0,0,0)
(0,0,0)
(0,0,0)
(0,0,0)
(0,0,0)
(0,0,0)
(0,0,0)
(0,0,0)
(0,0,0)
(0,0,0)
(0,0,0)
(0,0,0)
(0,0,0)
(0,0,0)
(0,0,0)
(0,0,0)
(0,0,0)
(0,0,0)
(0,0,0)
(0,0,0)
(0,0,0)
(0,0,0)
(0,0,0)
(0,0,0)
(0,0,0)
(0,0,0)
(0,0,0)
(0,0,0)
(0,0,0)
(0,0,0)
(0,0,0)
(0,0,0)
(0,0,0)
(0,0,0)
(0,0,0)
(0,0,0)
(0,0,0)
(0,0,0)
(0,0,0)
(0,0,0)
(0,0,0)
(0,0,0)
(0,0,0)
(0,0,0)
(0,0,0)
(0,0,0)
(0,0,0)
(0,0,0)
(0,0,0)
(0,0,0)
(0,0,0)
(0,0,0)
(0,0,0)
(-7.69151654880912e-13,-4.87471269390893e-12,5.79448455906577e-12)
(-5.91158782384686e-13,-1.23495526833515e-11,6.22065622098225e-12)
(-7.99026309488138e-13,-2.33664746457627e-11,6.50006802127745e-12)
(-1.31766238508306e-12,-4.01870845915187e-11,6.13842932353653e-12)
(-1.66864462243398e-12,-6.36267503725506e-11,5.00952782307425e-12)
(-2.87670207779289e-12,-9.94920099298243e-11,3.59594107463315e-12)
(-4.33516995803865e-12,-1.55913169303499e-10,2.47147742183542e-12)
(-6.97299559822048e-12,-2.49545920837776e-10,1.85262658588845e-12)
(-7.87347554233485e-12,-4.06388098461201e-10,8.91730718242521e-13)
(-8.44130154859562e-12,-6.2582546660624e-10,4.14157011520093e-13)
(0,0,0)
(0,0,0)
(0,0,0)
(0,0,0)
(0,0,0)
(0,0,0)
(-1.72951013606464e-12,-4.98730921875582e-12,1.36300961707991e-11)
(-1.90436923084251e-12,-1.24670174372879e-11,1.36672696921678e-11)
(-1.96359702965918e-12,-2.30079372845009e-11,1.355622862433e-11)
(-3.7423962100765e-12,-3.9245183454885e-11,1.28130752973377e-11)
(-4.55426145333807e-12,-6.23158675925871e-11,1.06059956314977e-11)
(-6.22846255976101e-12,-9.8318966460761e-11,8.05964835861122e-12)
(-9.3199348389875e-12,-1.55316025793986e-10,5.64838153141071e-12)
(-1.27362423345709e-11,-2.49421869113804e-10,4.12800602611538e-12)
(-1.4165098982771e-11,-4.06756188677983e-10,2.65589597692376e-12)
(-1.47035399327227e-11,-6.25938988184642e-10,1.15905458535566e-12)
(0,0,0)
(0,0,0)
(0,0,0)
(0,0,0)
(0,0,0)
(0,0,0)
(-2.89190913263163e-12,-4.95521968975889e-12,2.73661095793675e-11)
(-4.34430081073615e-12,-1.23387298962281e-11,2.69448183892225e-11)
(-5.13781060546151e-12,-2.22093884346008e-11,2.57704650225851e-11)
(-7.68496076709654e-12,-3.73997096910259e-11,2.37841564715885e-11)
(-9.17580752473974e-12,-5.98511657525653e-11,2.00368256795051e-11)
(-1.12931116686309e-11,-9.57802890556225e-11,1.5905163096654e-11)
(-1.4313950436321e-11,-1.53976501496601e-10,1.16550087359501e-11)
(-1.69720599777572e-11,-2.49193731017093e-10,8.49309745668181e-12)
(-1.89499787801337e-11,-4.06895999227115e-10,6.04552354736862e-12)
(-1.97665984842129e-11,-6.25964086375435e-10,3.04532583299039e-12)
(0,0,0)
(0,0,0)
(0,0,0)
(0,0,0)
(0,0,0)
(0,0,0)
(-4.08901975623094e-12,-4.81570443767269e-12,4.42630573373282e-11)
(-6.12223665620378e-12,-1.15828371846365e-11,4.34838433103886e-11)
(-7.0207318668141e-12,-2.04220133544778e-11,4.18106486978256e-11)
(-1.0152674705334e-11,-3.40085361008408e-11,3.92972020033958e-11)
(-1.34155639057385e-11,-5.55421716064352e-11,3.51343133637534e-11)
(-1.51565060843272e-11,-9.10684430931756e-11,2.99216899622566e-11)
(-1.7074317316154e-11,-1.50358039627107e-10,2.38139432479991e-11)
(-1.93194319572405e-11,-2.47418982546371e-10,1.83257223826537e-11)
(-2.15871965842276e-11,-4.05541797324994e-10,1.29567708400525e-11)
(-2.27838541532391e-11,-6.24582322088006e-10,6.6430568453311e-12)
(0,0,0)
(0,0,0)
(0,0,0)
(0,0,0)
(0,0,0)
(0,0,0)
(-4.89098203055281e-12,-4.44268791241997e-12,6.83723905061722e-11)
(-7.96790826801983e-12,-1.01975009910049e-11,6.68486446207089e-11)
(-9.54038598534514e-12,-1.76182083125514e-11,6.47631575230144e-11)
(-1.25274368565257e-11,-2.94331189969966e-11,6.22288178875841e-11)
(-1.64680363755409e-11,-4.95188260127341e-11,5.8178769466236e-11)
(-1.78017875857107e-11,-8.39876179236154e-11,5.2598258140205e-11)
(-1.69830329931795e-11,-1.44014513115964e-10,4.55922043984618e-11)
(-1.81626277585537e-11,-2.43119240810052e-10,3.61482763288658e-11)
(-2.03771202033234e-11,-4.0115435412795e-10,2.55010683559976e-11)
(-2.15293326367143e-11,-6.19864205202403e-10,1.33005051687907e-11)
(0,0,0)
(0,0,0)
(0,0,0)
(0,0,0)
(0,0,0)
(0,0,0)
(-5.3203938091565e-12,-3.55583834546529e-12,1.04017184896421e-10)
(-1.00262700998322e-11,-8.21875375601498e-12,1.025809191517e-10)
(-1.30607501116798e-11,-1.41783835154623e-11,1.00043723934653e-10)
(-1.57245936795869e-11,-2.41384094907971e-11,9.68809413266428e-11)
(-1.77652597214512e-11,-4.25389684172366e-11,9.29083994977693e-11)
(-1.78287487325568e-11,-7.59749001102709e-11,8.71503463733796e-11)
(-1.64957731128922e-11,-1.36025310010893e-10,7.8217277501817e-11)
(-1.6406013265511e-11,-2.34270595489054e-10,6.44317151865182e-11)
(-1.7755182806098e-11,-3.903678383187e-10,4.65001828430362e-11)
(-1.86626827861475e-11,-6.0773084995309e-10,2.46327109235984e-11)
(0,0,0)
(0,0,0)
(0,0,0)
(0,0,0)
(0,0,0)
(0,0,0)
(-5.69010540535549e-12,-2.31723443435091e-12,1.58170909235996e-10)
(-1.0343820768319e-11,-5.54076130021002e-12,1.56727031312079e-10)
(-1.40639194245104e-11,-1.00863170223561e-11,1.5412291738491e-10)
(-1.6767775817739e-11,-1.87924106002395e-11,1.51035691908696e-10)
(-1.79889706028514e-11,-3.52903381327881e-11,1.47513377757299e-10)
(-1.70544480437333e-11,-6.61742410028425e-11,1.41369263458069e-10)
(-1.59088630763195e-11,-1.2398001566846e-10,1.29340882249309e-10)
(-1.50800647147072e-11,-2.1792588612683e-10,1.10682727851331e-10)
(-1.46336536786851e-11,-3.69240013280352e-10,8.23139009766809e-11)
(-1.39143320330301e-11,-5.83365511518699e-10,4.46206024968476e-11)
(0,0,0)
(0,0,0)
(0,0,0)
(0,0,0)
(0,0,0)
(0,0,0)
(-5.60050597241483e-12,-1.32313273238397e-12,2.49953225727295e-10)
(-1.02878906346517e-11,-3.04159045908946e-12,2.48739668437667e-10)
(-1.46025844862638e-11,-6.62283921858281e-12,2.46677949187314e-10)
(-1.71770544848018e-11,-1.46759196962642e-11,2.44034047588466e-10)
(-1.8000892809168e-11,-2.9199282261086e-11,2.40259798595944e-10)
(-1.70539992068744e-11,-5.61130288397146e-11,2.32702634037857e-10)
(-1.45129122009316e-11,-1.06647154528867e-10,2.17761589232626e-10)
(-1.26111548634922e-11,-1.90487931798181e-10,1.91067452623934e-10)
(-1.10592682914284e-11,-3.32023470969936e-10,1.47370494226671e-10)
(-9.7298587751834e-12,-5.38694662801707e-10,8.33172284886065e-11)
(0,0,0)
(0,0,0)
(0,0,0)
(0,0,0)
(0,0,0)
(0,0,0)
(-4.73873882540748e-12,-9.47212667443607e-13,4.06050697683339e-10)
(-9.51825697759107e-12,-1.67540965130517e-12,4.04844852069807e-10)
(-1.35799641355125e-11,-4.41281244401914e-12,4.03364423579106e-10)
(-1.56353782019265e-11,-1.10624249874589e-11,4.01117052742898e-10)
(-1.64027620778214e-11,-2.18930777010878e-11,3.96298501006281e-10)
(-1.6406921502128e-11,-4.19558444977231e-11,3.8620142414625e-10)
(-1.39902143552371e-11,-8.00121640934142e-11,3.66609780060304e-10)
(-1.16754543437746e-11,-1.47023033923415e-10,3.30741341898912e-10)
(-9.1626052812064e-12,-2.68307986831243e-10,2.67220674074201e-10)
(-8.19310323458916e-12,-4.55362230334874e-10,1.60402027492394e-10)
(0,0,0)
(0,0,0)
(0,0,0)
(0,0,0)
(0,0,0)
(0,0,0)
(-5.01689944185162e-12,-5.14389637317716e-13,6.24758156259988e-10)
(-9.85651597053005e-12,-7.21862547334613e-13,6.23547496097444e-10)
(-1.38181197208497e-11,-2.38960031726932e-12,6.22514352228044e-10)
(-1.53984960505657e-11,-6.16092992067817e-12,6.20121594536853e-10)
(-1.62196304313015e-11,-1.18126042119078e-11,6.14460752132835e-10)
(-1.63900641408977e-11,-2.27244700159893e-11,6.03074351350174e-10)
(-1.37474509360193e-11,-4.38305363634522e-11,5.80222771279322e-10)
(-1.15134756367555e-11,-8.34069103785749e-11,5.36787941344922e-10)
(-8.69876021070875e-12,-1.61331637842391e-10,4.53546166405788e-10)
(-7.65176465981791e-12,-2.94347256100132e-10,2.92882132455439e-10)
(0,0,0)
(0,0,0)
(0,0,0)
(0,0,0)
(0,0,0)
(0,0,0)
(0,0,0)
(0,0,0)
(0,0,0)
(0,0,0)
(0,0,0)
(0,0,0)
(0,0,0)
(0,0,0)
(0,0,0)
(0,0,0)
(0,0,0)
(0,0,0)
(0,0,0)
(0,0,0)
(0,0,0)
(0,0,0)
(0,0,0)
(0,0,0)
(0,0,0)
(0,0,0)
(0,0,0)
(0,0,0)
(0,0,0)
(0,0,0)
(0,0,0)
(0,0,0)
(0,0,0)
(0,0,0)
(0,0,0)
(0,0,0)
(0,0,0)
(0,0,0)
(0,0,0)
(0,0,0)
(0,0,0)
(0,0,0)
(0,0,0)
(0,0,0)
(0,0,0)
(0,0,0)
(0,0,0)
(0,0,0)
(0,0,0)
(0,0,0)
(0,0,0)
(0,0,0)
(0,0,0)
(0,0,0)
(0,0,0)
(0,0,0)
(0,0,0)
(0,0,0)
(0,0,0)
(0,0,0)
(0,0,0)
(0,0,0)
(0,0,0)
(0,0,0)
(0,0,0)
(0,0,0)
(0,0,0)
(0,0,0)
(0,0,0)
(0,0,0)
(0,0,0)
(0,0,0)
(0,0,0)
(0,0,0)
(0,0,0)
(0,0,0)
(0,0,0)
(0,0,0)
(0,0,0)
(0,0,0)
(0,0,0)
(0,0,0)
(0,0,0)
(0,0,0)
(0,0,0)
(0,0,0)
(0,0,0)
(0,0,0)
(0,0,0)
(0,0,0)
(0,0,0)
(0,0,0)
(0,0,0)
(0,0,0)
(0,0,0)
(0,0,0)
(0,0,0)
(0,0,0)
(0,0,0)
(0,0,0)
(0,0,0)
(0,0,0)
(-1.08272679194966e-12,-1.05100576349261e-11,1.18834720188008e-11)
(-7.53105828742116e-13,-2.39032231069679e-11,1.16714620147065e-11)
(-7.95924973017106e-13,-4.38034119631043e-11,1.1587227246959e-11)
(-1.13066202127027e-12,-7.35416086094708e-11,1.0512039666309e-11)
(-1.56594065400751e-12,-1.14405257937696e-10,8.18663587953929e-12)
(-2.92528189403078e-12,-1.76078088944818e-10,5.27827370588416e-12)
(-4.31346263151343e-12,-2.72725877385322e-10,2.62283860587537e-12)
(-6.13615145467795e-12,-4.35912421595394e-10,1.23046049248597e-12)
(-7.02781161916893e-12,-7.49624539489774e-10,3.47708098870526e-13)
(-7.91362295914997e-12,-1.4697557203006e-09,3.36486012798673e-13)
(0,0,0)
(0,0,0)
(0,0,0)
(0,0,0)
(0,0,0)
(0,0,0)
(-1.79877318642998e-12,-1.04607107562361e-11,2.7130993890666e-11)
(-1.9216157040566e-12,-2.38327090776005e-11,2.61893859372577e-11)
(-2.01899255257514e-12,-4.27480703812064e-11,2.49925895990524e-11)
(-3.38079030809679e-12,-7.11644154195681e-11,2.25833059620701e-11)
(-4.4726160204634e-12,-1.11389606570263e-10,1.78269440075355e-11)
(-6.35587313771961e-12,-1.73353837804047e-10,1.19626135474839e-11)
(-9.13908363123467e-12,-2.71509366619733e-10,6.3732140406311e-12)
(-1.14922703817382e-11,-4.36155292095393e-10,3.50937616664794e-12)
(-1.25284470417029e-11,-7.50686700463511e-10,2.0639474455916e-12)
(-1.35193871565458e-11,-1.47019600406771e-09,9.25700865763927e-13)
(0,0,0)
(0,0,0)
(0,0,0)
(0,0,0)
(0,0,0)
(0,0,0)
(-2.6101331945729e-12,-9.98934579954001e-12,5.09011918780238e-11)
(-3.9258401556863e-12,-2.27390333113945e-11,4.91471975483204e-11)
(-4.93887713456703e-12,-4.02286533326309e-11,4.62034034342521e-11)
(-7.3288035652003e-12,-6.65360099118614e-11,4.16305658475315e-11)
(-9.35313908806676e-12,-1.05439757902966e-10,3.39273879825694e-11)
(-1.17548032703278e-11,-1.67665284639125e-10,2.42624452776275e-11)
(-1.47705010265569e-11,-2.68834601193274e-10,1.42638853770744e-11)
(-1.62992345392894e-11,-4.36225474343536e-10,9.15473336328406e-12)
(-1.73039829679584e-11,-7.51301463159295e-10,6.68337149483036e-12)
(-1.81030369388565e-11,-1.47044496083791e-09,3.58274459659032e-12)
(0,0,0)
(0,0,0)
(0,0,0)
(0,0,0)
(0,0,0)
(0,0,0)
(-3.68282225454381e-12,-8.90472129305547e-12,8.10754485928272e-11)
(-5.83437823727296e-12,-2.01362662365203e-11,7.89638944731592e-11)
(-7.31109021431712e-12,-3.56396108949128e-11,7.53456084710705e-11)
(-1.05652031695297e-11,-5.91002199400901e-11,6.95231397253812e-11)
(-1.42262860979368e-11,-9.56835078423497e-11,6.01528550035504e-11)
(-1.61295845396261e-11,-1.57160041600283e-10,4.7808457663966e-11)
(-1.79296229619455e-11,-2.62559350426795e-10,3.40638426008104e-11)
(-1.82502221510008e-11,-4.35172049648764e-10,2.55663988516177e-11)
(-1.96609257857172e-11,-7.50569377527875e-10,1.8661840508424e-11)
(-2.08589141928603e-11,-1.46899887755986e-09,1.01013424931914e-11)
(0,0,0)
(0,0,0)
(0,0,0)
(0,0,0)
(0,0,0)
(0,0,0)
(-4.2540857120441e-12,-7.44074641776852e-12,1.22848714997023e-10)
(-7.86116840531853e-12,-1.65277136339318e-11,1.20282246237689e-10)
(-1.04458711470071e-11,-2.9340243647148e-11,1.16468732387106e-10)
(-1.37720979413813e-11,-4.9399313039101e-11,1.10668137104867e-10)
(-1.78673826449942e-11,-8.21595552737113e-11,1.0161333059764e-10)
(-1.88084516573451e-11,-1.40203976168445e-10,9.06357438571454e-11)
(-1.55283080286315e-11,-2.48696519350246e-10,8.06225722904391e-11)
(-1.63640651065606e-11,-4.3040254642632e-10,6.19890590778454e-11)
(-1.89630728255234e-11,-7.4533252934579e-10,4.33585401145193e-11)
(-2.03621827178418e-11,-1.46177895979769e-09,2.28126917753867e-11)
(0,0,0)
(0,0,0)
(0,0,0)
(0,0,0)
(0,0,0)
(0,0,0)
(-5.12273197554987e-12,-5.49836595990856e-12,1.83725812566965e-10)
(-1.01670673385932e-11,-1.25160654174866e-11,1.8147748936241e-10)
(-1.39900339967823e-11,-2.24881165112196e-11,1.77380985101193e-10)
(-1.70980507412656e-11,-3.8795493466463e-11,1.71529801145352e-10)
(-1.92558368814927e-11,-6.76268656389441e-11,1.63573429479359e-10)
(-1.86963389684569e-11,-1.23470021278804e-10,1.53614832976093e-10)
(-1.4755505140007e-11,-2.36694224903132e-10,1.41110544824e-10)
(-1.48191902842368e-11,-4.17476734727709e-10,1.1545800678636e-10)
(-1.70155359250497e-11,-7.28565990708646e-10,8.23887908089124e-11)
(-1.83953102965752e-11,-1.44177853924521e-09,4.33383659904155e-11)
(0,0,0)
(0,0,0)
(0,0,0)
(0,0,0)
(0,0,0)
(0,0,0)
(-5.24032918340665e-12,-3.60038000488013e-12,2.76244898502405e-10)
(-1.02388776822683e-11,-8.51973728368223e-12,2.74462956167956e-10)
(-1.44401717520642e-11,-1.60025387956617e-11,2.70805404607155e-10)
(-1.73619525703274e-11,-2.91471030389635e-11,2.65778906355947e-10)
(-1.79359121753035e-11,-5.37380149523486e-11,2.60115057025446e-10)
(-1.50872789980765e-11,-1.04462056074505e-10,2.51568041404019e-10)
(-1.45835698179442e-11,-2.17438240908757e-10,2.30325309699001e-10)
(-1.41491921687929e-11,-3.89679448303796e-10,1.99600764424439e-10)
(-1.41568975093979e-11,-6.92340637348718e-10,1.46753136118815e-10)
(-1.39645782528358e-11,-1.40032536424716e-09,7.88563350555869e-11)
(0,0,0)
(0,0,0)
(0,0,0)
(0,0,0)
(0,0,0)
(0,0,0)
(-4.76286874772711e-12,-2.1769863919101e-12,4.35604848193596e-10)
(-9.5923521920817e-12,-5.10931814738927e-12,4.3433786177001e-10)
(-1.41687096619757e-11,-1.07818949134674e-11,4.31520135393482e-10)
(-1.70163002010854e-11,-2.26887389058975e-11,4.27456320178756e-10)
(-1.77499328111025e-11,-4.56864308869883e-11,4.22037154816467e-10)
(-1.62701387436081e-11,-9.27321683053195e-11,4.1176033589995e-10)
(-1.44537660276662e-11,-1.88917268186289e-10,3.87982787583194e-10)
(-1.23790943411132e-11,-3.38727264055927e-10,3.39416115211482e-10)
(-1.07214866919928e-11,-6.2543433981098e-10,2.60826355600122e-10)
(-9.74506275390487e-12,-1.32173338015476e-09,1.48046455279878e-10)
(0,0,0)
(0,0,0)
(0,0,0)
(0,0,0)
(0,0,0)
(0,0,0)
(-3.96571624200165e-12,-1.49919808004698e-12,7.47003274876288e-10)
(-8.9913755908595e-12,-2.80519176425803e-12,7.45843068020327e-10)
(-1.33558054260516e-11,-6.95824121931291e-12,7.43597966062282e-10)
(-1.57183215320817e-11,-1.70004373641666e-11,7.3982800302382e-10)
(-1.63861587069587e-11,-3.5268355347832e-11,7.32289506136082e-10)
(-1.6046651897938e-11,-7.11197275867942e-11,7.16500810843174e-10)
(-1.43034039238028e-11,-1.40560921052917e-10,6.8406594526136e-10)
(-1.17709100639008e-11,-2.60029371091955e-10,6.20653265561403e-10)
(-9.32030768826012e-12,-5.12326115431549e-10,5.09437975553383e-10)
(-8.80604997697914e-12,-1.17251587863382e-09,3.18161743639242e-10)
(0,0,0)
(0,0,0)
(0,0,0)
(0,0,0)
(0,0,0)
(0,0,0)
(-4.32062891662528e-12,-7.25700165778931e-13,1.46484481551686e-09)
(-9.54523464846465e-12,-1.01234890781909e-12,1.46389305127257e-09)
(-1.3814962346931e-11,-3.44606406462188e-12,1.46227351915908e-09)
(-1.5898583567226e-11,-9.32290147461503e-12,1.45835768966928e-09)
(-1.66458338605546e-11,-1.91195973119584e-11,1.44895399248259e-09)
(-1.62629540860448e-11,-3.86348972166041e-11,1.42991355037705e-09)
(-1.41431573650938e-11,-7.63537462963277e-11,1.39158660584079e-09)
(-1.16786110761674e-11,-1.47920389313919e-10,1.31618185805128e-09)
(-9.36636410275446e-12,-3.19865730734436e-10,1.16918145941827e-09)
(-9.11688830439539e-12,-8.52339808796134e-10,8.50491765249025e-10)
(0,0,0)
(0,0,0)
(0,0,0)
(0,0,0)
(0,0,0)
(0,0,0)
(0,0,0)
(0,0,0)
(0,0,0)
(0,0,0)
(0,0,0)
(0,0,0)
(0,0,0)
(0,0,0)
(0,0,0)
(0,0,0)
(0,0,0)
(0,0,0)
(0,0,0)
(0,0,0)
(0,0,0)
(0,0,0)
(0,0,0)
(0,0,0)
(0,0,0)
(0,0,0)
(0,0,0)
(0,0,0)
(0,0,0)
(0,0,0)
(0,0,0)
(0,0,0)
(0,0,0)
(0,0,0)
(0,0,0)
(0,0,0)
(0,0,0)
(0,0,0)
(0,0,0)
(0,0,0)
(0,0,0)
(0,0,0)
(0,0,0)
(0,0,0)
(0,0,0)
(0,0,0)
(0,0,0)
(0,0,0)
(0,0,0)
(0,0,0)
(0,0,0)
(0,0,0)
(0,0,0)
(0,0,0)
(0,0,0)
(0,0,0)
(0,0,0)
(0,0,0)
(0,0,0)
(0,0,0)
(0,0,0)
(0,0,0)
(0,0,0)
(0,0,0)
(0,0,0)
(0,0,0)
(0,0,0)
(0,0,0)
(0,0,0)
(0,0,0)
(0,0,0)
(0,0,0)
(0,0,0)
(0,0,0)
(0,0,0)
(0,0,0)
(0,0,0)
(0,0,0)
(0,0,0)
(0,0,0)
(0,0,0)
(0,0,0)
(0,0,0)
(0,0,0)
(0,0,0)
(0,0,0)
(0,0,0)
(0,0,0)
(0,0,0)
(0,0,0)
(0,0,0)
(0,0,0)
(0,0,0)
(0,0,0)
(0,0,0)
(0,0,0)
(0,0,0)
(0,0,0)
(0,0,0)
(0,0,0)
(0,0,0)
(0,0,0)
(-9.20063666475288e-13,-1.56046551007195e-11,1.69146072855354e-11)
(-7.39385091062678e-13,-3.39673458722532e-11,1.61319709172617e-11)
(-7.76078973283787e-13,-5.97433798526335e-11,1.52469516863285e-11)
(-1.18245142474333e-12,-9.56756775693692e-11,1.28378225382852e-11)
(-1.6732298478742e-12,-1.45046852323635e-10,8.86127094277451e-12)
(-2.99409793436541e-12,-2.16383048462419e-10,3.97703902107723e-12)
(-4.13759528438047e-12,-3.19988640646171e-10,-4.0313737242619e-13)
(-5.01052856121782e-12,-4.7030362235028e-10,-2.03084411791557e-12)
(-5.95442855886201e-12,-6.85424914535432e-10,-1.84863976398627e-12)
(-7.13685317992041e-12,-9.47996280516279e-10,-5.5427456822663e-13)
(0,0,0)
(0,0,0)
(0,0,0)
(0,0,0)
(0,0,0)
(0,0,0)
(-1.32853018974e-12,-1.52182849640322e-11,3.79620739926792e-11)
(-1.81849513205893e-12,-3.29484388586907e-11,3.62715324466921e-11)
(-2.12912596620552e-12,-5.7122977795836e-11,3.36067768039993e-11)
(-3.25283386060282e-12,-9.14396664704282e-11,2.83985870524231e-11)
(-4.55813422730787e-12,-1.39990789760326e-10,1.9962062046246e-11)
(-6.45502679594735e-12,-2.11976469992852e-10,9.30347248882367e-12)
(-8.95001118432897e-12,-3.18415962293813e-10,-9.25436581985655e-13)
(-9.97665941144421e-12,-4.71122645465429e-10,-3.72101077314642e-12)
(-1.07754377659944e-11,-6.8746304871711e-10,-2.6087651329203e-12)
(-1.23447295201491e-11,-9.49247407946096e-10,-9.31648646571473e-13)
(0,0,0)
(0,0,0)
(0,0,0)
(0,0,0)
(0,0,0)
(0,0,0)
(-1.9407633732057e-12,-1.39377107213455e-11,6.83805471996476e-11)
(-3.58481311561206e-12,-3.00376808209539e-11,6.53948020252152e-11)
(-4.95508198483498e-12,-5.17075893660134e-11,6.04336925536243e-11)
(-7.06141567243924e-12,-8.30126852909304e-11,5.21808290936661e-11)
(-9.44444644420433e-12,-1.29234568523734e-10,3.89130482298214e-11)
(-1.22614864082965e-11,-2.02190713708149e-10,2.05020522891057e-11)
(-1.59365997788038e-11,-3.16606892507149e-10,-4.25705498857891e-13)
(-1.48812973664122e-11,-4.74593691981192e-10,-3.36634072072503e-12)
(-1.49354416997854e-11,-6.90961616559681e-10,-4.73365427520399e-13)
(-1.59663756209865e-11,-9.51497110974855e-10,8.36169900775468e-13)
(0,0,0)
(0,0,0)
(0,0,0)
(0,0,0)
(0,0,0)
(0,0,0)
(-3.03524301074592e-12,-1.13741590608e-11,1.05990024659151e-10)
(-5.82464483668234e-12,-2.47860387708022e-11,1.02580431441915e-10)
(-7.78798871699581e-12,-4.33974066515555e-11,9.67842634369649e-11)
(-1.08958253498441e-11,-7.02693558265743e-11,8.69449560862437e-11)
(-1.54058413268028e-11,-1.10979067285858e-10,7.06818504489135e-11)
(-1.9341034907806e-11,-1.81525178060621e-10,4.59255925603404e-11)
(-2.32950102888536e-11,-3.11986963272729e-10,1.18809687990701e-11)
(-1.61151670303669e-11,-4.82374689460747e-10,1.05327417428092e-11)
(-1.6337275951969e-11,-6.96183525249226e-10,1.21292105177337e-11)
(-1.79774894628509e-11,-9.53387761713561e-10,8.22844496176979e-12)
(0,0,0)
(0,0,0)
(0,0,0)
(0,0,0)
(0,0,0)
(0,0,0)
(-3.6299974113499e-12,-8.76836109128423e-12,1.56670251189045e-10)
(-8.05930276997322e-12,-1.9048467059327e-11,1.53179473491146e-10)
(-1.14974030021308e-11,-3.3533246625135e-11,1.47423418424649e-10)
(-1.53211110067595e-11,-5.41884543195351e-11,1.37983652693405e-10)
(-2.1422485537745e-11,-8.50853410916073e-11,1.23199116496919e-10)
(-2.55292349814232e-11,-1.416013529273e-10,1.05646249796882e-10)
(-8.89708926390892e-12,-2.76081090577401e-10,1.08504391985564e-10)
(-1.06593578421836e-11,-4.90921995356467e-10,6.8805466432273e-11)
(-1.51837631215664e-11,-6.98078490126079e-10,4.73690190044159e-11)
(-1.75499114954209e-11,-9.48753755347648e-10,2.5240287447009e-11)
(0,0,0)
(0,0,0)
(0,0,0)
(0,0,0)
(0,0,0)
(0,0,0)
(-4.77239472581494e-12,-6.08076737324979e-12,2.26928909170236e-10)
(-1.00668912117592e-11,-1.35059861564035e-11,2.23945138310726e-10)
(-1.46244277562208e-11,-2.36634748087582e-11,2.18361721031643e-10)
(-1.87900695013357e-11,-3.77542491403664e-11,2.10253563163204e-10)
(-2.31860910659751e-11,-6.01573680175631e-11,1.99270862299488e-10)
(-2.52000160205056e-11,-1.11563605210434e-10,1.86657508096687e-10)
(-8.3589510964339e-12,-2.75257883911501e-10,1.87620835698461e-10)
(-9.54726073138732e-12,-4.83450027501186e-10,1.43411990722088e-10)
(-1.41904644657381e-11,-6.8236810466083e-10,9.99488586330575e-11)
(-1.65101193049214e-11,-9.27230059660142e-10,5.16865866861223e-11)
(0,0,0)
(0,0,0)
(0,0,0)
(0,0,0)
(0,0,0)
(0,0,0)
(-4.88178046082134e-12,-3.83111775842366e-12,3.25128982371798e-10)
(-9.99174525913358e-12,-8.46567306815703e-12,3.22837538580693e-10)
(-1.46343173825026e-11,-1.5274401575038e-11,3.18734925082455e-10)
(-1.81564673732419e-11,-2.39228224560599e-11,3.13656980929719e-10)
(-1.74404806190582e-11,-3.67740423507464e-11,3.10765512498892e-10)
(-5.5744350620098e-12,-7.00489862408947e-11,3.11798465868882e-10)
(-1.23799972658732e-11,-2.57951602709131e-10,2.71951455625308e-10)
(-1.22537481117467e-11,-4.52019047773207e-10,2.55683304161728e-10)
(-1.31663939837282e-11,-6.39098865382753e-10,1.77646333820825e-10)
(-1.37002272892229e-11,-8.78189446633222e-10,9.14064312177934e-11)
(0,0,0)
(0,0,0)
(0,0,0)
(0,0,0)
(0,0,0)
(0,0,0)
(-4.17367063544254e-12,-2.20904399438687e-12,4.68952279460301e-10)
(-9.07875219846896e-12,-4.97342885548875e-12,4.67215785173633e-10)
(-1.39285481426119e-11,-1.016528412383e-11,4.64479977975337e-10)
(-1.72854363792592e-11,-1.88968333286347e-11,4.61146303406362e-10)
(-1.78911894342453e-11,-3.72363082562023e-11,4.59282673475364e-10)
(-1.4105031145083e-11,-8.75568578551085e-11,4.58716221874254e-10)
(-1.42434407894682e-11,-2.33505944618721e-10,4.44514904995069e-10)
(-1.24872276948127e-11,-3.75229777337852e-10,3.76623827670026e-10)
(-1.10498107510766e-11,-5.53845095590817e-10,2.74326694946155e-10)
(-1.09161089941798e-11,-7.86974627300153e-10,1.47763567383562e-10)
(0,0,0)
(0,0,0)
(0,0,0)
(0,0,0)
(0,0,0)
(0,0,0)
(-3.57900730063035e-12,-1.10981322820439e-12,6.79855843617884e-10)
(-8.53911648972877e-12,-2.5932132486286e-12,6.78645824159113e-10)
(-1.30980195410004e-11,-6.6830774256669e-12,6.76431656839723e-10)
(-1.58573605342459e-11,-1.54600097705823e-11,6.72874095611802e-10)
(-1.67462214497916e-11,-3.37205423121784e-11,6.66839717553967e-10)
(-1.60966166862423e-11,-7.55842297933173e-11,6.54560024216282e-10)
(-1.50978989798338e-11,-1.63854765573412e-10,6.2332139900119e-10)
(-1.2664601835389e-11,-2.72143097144485e-10,5.46430121127271e-10)
(-1.05044604703463e-11,-4.2646167767446e-10,4.22690866018891e-10)
(-1.08203761758561e-11,-6.37651551947034e-10,2.42461715343175e-10)
(0,0,0)
(0,0,0)
(0,0,0)
(0,0,0)
(0,0,0)
(0,0,0)
(-4.09456483912986e-12,-2.65244559811603e-13,9.40007900415199e-10)
(-8.93805144300422e-12,-8.1628429001647e-13,9.39361431253736e-10)
(-1.33451969214561e-11,-3.3087264225817e-12,9.37514562748987e-10)
(-1.58177878549111e-11,-9.06644889749146e-12,9.33292804446998e-10)
(-1.67249890668068e-11,-1.99119586594991e-11,9.23721791533253e-10)