/*--------------------------------*- C++ -*----------------------------------*\
| =========                 |                                                 |
| \\      /  F ield         | foam-extend: Open Source CFD                    |
|  \\    /   O peration     | Version:     4.0                                |
|   \\  /    A nd           | Web:         http://www.foam-extend.org         |
|    \\/     M anipulation  |                                                 |
\*---------------------------------------------------------------------------*/
FoamFile
{
    version 2.0;
    format ascii;
    class volVectorField;
    location "3620";
    object      H;
}
// * * * * * * * * * * * * * * * * * * * * * * * * * * * * * * * * * * * * * //

dimensions      [0 1 -1 0 0 0 0];

internalField   nonuniform List<vector>
4096
(
(0,0,0)
(0,0,0)
(0,0,0)
(0,0,0)
(0,0,0)
(0,0,0)
(0,0,0)
(0,0,0)
(0,0,0)
(0,0,0)
(0,0,0)
(0,0,0)
(0,0,0)
(0,0,0)
(0,0,0)
(0,0,0)
(0,0,0)
(0,0,0)
(0,0,0)
(0,0,0)
(0,0,0)
(0,0,0)
(0,0,0)
(0,0,0)
(0,0,0)
(0,0,0)
(0,0,0)
(0,0,0)
(0,0,0)
(0,0,0)
(0,0,0)
(0,0,0)
(0,0,0)
(0,0,0)
(0,0,0)
(0,0,0)
(0,0,0)
(0,0,0)
(0,0,0)
(0,0,0)
(0,0,0)
(0,0,0)
(0,0,0)
(0,0,0)
(0,0,0)
(0,0,0)
(0,0,0)
(0,0,0)
(0,0,0)
(0,0,0)
(0,0,0)
(0,0,0)
(0,0,0)
(0,0,0)
(0,0,0)
(0,0,0)
(0,0,0)
(0,0,0)
(0,0,0)
(0,0,0)
(0,0,0)
(0,0,0)
(0,0,0)
(0,0,0)
(0,0,0)
(0,0,0)
(0,0,0)
(0,0,0)
(0,0,0)
(0,0,0)
(0,0,0)
(0,0,0)
(0,0,0)
(0,0,0)
(0,0,0)
(0,0,0)
(0,0,0)
(0,0,0)
(0,0,0)
(0,0,0)
(0,0,0)
(0,0,0)
(0,0,0)
(0,0,0)
(0,0,0)
(0,0,0)
(0,0,0)
(0,0,0)
(0,0,0)
(0,0,0)
(0,0,0)
(0,0,0)
(0,0,0)
(0,0,0)
(0,0,0)
(0,0,0)
(0,0,0)
(0,0,0)
(0,0,0)
(0,0,0)
(0,0,0)
(0,0,0)
(0,0,0)
(0,0,0)
(0,0,0)
(0,0,0)
(0,0,0)
(0,0,0)
(0,0,0)
(0,0,0)
(0,0,0)
(0,0,0)
(0,0,0)
(0,0,0)
(0,0,0)
(0,0,0)
(0,0,0)
(0,0,0)
(0,0,0)
(0,0,0)
(0,0,0)
(0,0,0)
(0,0,0)
(0,0,0)
(0,0,0)
(0,0,0)
(0,0,0)
(0,0,0)
(0,0,0)
(0,0,0)
(0,0,0)
(0,0,0)
(0,0,0)
(0,0,0)
(0,0,0)
(0,0,0)
(0,0,0)
(0,0,0)
(0,0,0)
(0,0,0)
(0,0,0)
(0,0,0)
(0,0,0)
(0,0,0)
(0,0,0)
(0,0,0)
(0,0,0)
(0,0,0)
(0,0,0)
(0,0,0)
(0,0,0)
(0,0,0)
(0,0,0)
(0,0,0)
(0,0,0)
(0,0,0)
(0,0,0)
(0,0,0)
(0,0,0)
(0,0,0)
(0,0,0)
(0,0,0)
(0,0,0)
(0,0,0)
(0,0,0)
(0,0,0)
(0,0,0)
(0,0,0)
(0,0,0)
(0,0,0)
(0,0,0)
(0,0,0)
(0,0,0)
(0,0,0)
(0,0,0)
(0,0,0)
(0,0,0)
(0,0,0)
(0,0,0)
(0,0,0)
(0,0,0)
(0,0,0)
(0,0,0)
(0,0,0)
(0,0,0)
(0,0,0)
(0,0,0)
(0,0,0)
(0,0,0)
(0,0,0)
(0,0,0)
(0,0,0)
(0,0,0)
(0,0,0)
(0,0,0)
(0,0,0)
(0,0,0)
(0,0,0)
(0,0,0)
(0,0,0)
(0,0,0)
(0,0,0)
(0,0,0)
(0,0,0)
(0,0,0)
(0,0,0)
(0,0,0)
(0,0,0)
(0,0,0)
(0,0,0)
(0,0,0)
(0,0,0)
(0,0,0)
(0,0,0)
(0,0,0)
(0,0,0)
(0,0,0)
(0,0,0)
(0,0,0)
(0,0,0)
(0,0,0)
(0,0,0)
(0,0,0)
(0,0,0)
(0,0,0)
(0,0,0)
(0,0,0)
(0,0,0)
(0,0,0)
(0,0,0)
(0,0,0)
(0,0,0)
(0,0,0)
(0,0,0)
(0,0,0)
(0,0,0)
(0,0,0)
(0,0,0)
(0,0,0)
(0,0,0)
(0,0,0)
(0,0,0)
(0,0,0)
(0,0,0)
(0,0,0)
(0,0,0)
(0,0,0)
(0,0,0)
(0,0,0)
(0,0,0)
(0,0,0)
(0,0,0)
(0,0,0)
(0,0,0)
(0,0,0)
(0,0,0)
(0,0,0)
(0,0,0)
(0,0,0)
(0,0,0)
(0,0,0)
(0,0,0)
(0,0,0)
(0,0,0)
(0,0,0)
(0,0,0)
(0,0,0)
(0,0,0)
(0,0,0)
(0,0,0)
(0,0,0)
(0,0,0)
(0,0,0)
(0,0,0)
(0,0,0)
(0,0,0)
(0,0,0)
(0,0,0)
(0,0,0)
(0,0,0)
(0,0,0)
(0,0,0)
(0,0,0)
(0,0,0)
(0,0,0)
(0,0,0)
(0,0,0)
(0,0,0)
(0,0,0)
(0,0,0)
(0,0,0)
(0,0,0)
(0,0,0)
(0,0,0)
(0,0,0)
(0,0,0)
(0,0,0)
(0,0,0)
(0,0,0)
(0,0,0)
(0,0,0)
(0,0,0)
(0,0,0)
(0,0,0)
(0,0,0)
(0,0,0)
(0,0,0)
(0,0,0)
(0,0,0)
(0,0,0)
(0,0,0)
(0,0,0)
(0,0,0)
(0,0,0)
(0,0,0)
(0,0,0)
(0,0,0)
(0,0,0)
(0,0,0)
(0,0,0)
(0,0,0)
(0,0,0)
(0,0,0)
(0,0,0)
(0,0,0)
(0,0,0)
(0,0,0)
(0,0,0)
(0,0,0)
(0,0,0)
(0,0,0)
(0,0,0)
(0,0,0)
(0,0,0)
(0,0,0)
(0,0,0)
(0,0,0)
(0,0,0)
(0,0,0)
(0,0,0)
(0,0,0)
(0,0,0)
(0,0,0)
(0,0,0)
(0,0,0)
(0,0,0)
(0,0,0)
(0,0,0)
(0,0,0)
(0,0,0)
(0,0,0)
(0,0,0)
(0,0,0)
(0,0,0)
(0,0,0)
(0,0,0)
(0,0,0)
(0,0,0)
(0,0,0)
(0,0,0)
(0,0,0)
(0,0,0)
(0,0,0)
(0,0,0)
(0,0,0)
(0,0,0)
(0,0,0)
(0,0,0)
(0,0,0)
(0,0,0)
(0,0,0)
(0,0,0)
(0,0,0)
(0,0,0)
(0,0,0)
(0,0,0)
(0,0,0)
(0,0,0)
(0,0,0)
(0,0,0)
(0,0,0)
(0,0,0)
(0,0,0)
(0,0,0)
(0,0,0)
(0,0,0)
(0,0,0)
(0,0,0)
(0,0,0)
(0,0,0)
(0,0,0)
(0,0,0)
(0,0,0)
(0,0,0)
(0,0,0)
(0,0,0)
(0,0,0)
(0,0,0)
(0,0,0)
(0,0,0)
(0,0,0)
(0,0,0)
(0,0,0)
(0,0,0)
(0,0,0)
(0,0,0)
(0,0,0)
(0,0,0)
(0,0,0)
(0,0,0)
(0,0,0)
(0,0,0)
(0,0,0)
(0,0,0)
(0,0,0)
(0,0,0)
(0,0,0)
(0,0,0)
(0,0,0)
(0,0,0)
(0,0,0)
(0,0,0)
(0,0,0)
(0,0,0)
(0,0,0)
(0,0,0)
(0,0,0)
(0,0,0)
(0,0,0)
(0,0,0)
(0,0,0)
(0,0,0)
(0,0,0)
(0,0,0)
(0,0,0)
(0,0,0)
(0,0,0)
(0,0,0)
(0,0,0)
(0,0,0)
(0,0,0)
(0,0,0)
(0,0,0)
(0,0,0)
(0,0,0)
(0,0,0)
(0,0,0)
(0,0,0)
(0,0,0)
(0,0,0)
(0,0,0)
(0,0,0)
(0,0,0)
(0,0,0)
(0,0,0)
(0,0,0)
(0,0,0)
(0,0,0)
(0,0,0)
(0,0,0)
(0,0,0)
(0,0,0)
(0,0,0)
(0,0,0)
(0,0,0)
(0,0,0)
(0,0,0)
(0,0,0)
(0,0,0)
(0,0,0)
(0,0,0)
(0,0,0)
(0,0,0)
(0,0,0)
(0,0,0)
(0,0,0)
(0,0,0)
(0,0,0)
(0,0,0)
(0,0,0)
(0,0,0)
(0,0,0)
(0,0,0)
(0,0,0)
(0,0,0)
(0,0,0)
(0,0,0)
(0,0,0)
(0,0,0)
(0,0,0)
(0,0,0)
(0,0,0)
(0,0,0)
(0,0,0)
(0,0,0)
(0,0,0)
(0,0,0)
(0,0,0)
(0,0,0)
(0,0,0)
(0,0,0)
(0,0,0)
(0,0,0)
(0,0,0)
(0,0,0)
(0,0,0)
(0,0,0)
(0,0,0)
(0,0,0)
(0,0,0)
(0,0,0)
(0,0,0)
(0,0,0)
(0,0,0)
(0,0,0)
(0,0,0)
(0,0,0)
(0,0,0)
(0,0,0)
(0,0,0)
(0,0,0)
(0,0,0)
(0,0,0)
(0,0,0)
(0,0,0)
(0,0,0)
(0,0,0)
(0,0,0)
(0,0,0)
(0,0,0)
(0,0,0)
(0,0,0)
(0,0,0)
(0,0,0)
(0,0,0)
(0,0,0)
(0,0,0)
(0,0,0)
(0,0,0)
(0,0,0)
(0,0,0)
(0,0,0)
(0,0,0)
(0,0,0)
(0,0,0)
(0,0,0)
(0,0,0)
(0,0,0)
(0,0,0)
(0,0,0)
(0,0,0)
(0,0,0)
(0,0,0)
(0,0,0)
(0,0,0)
(0,0,0)
(0,0,0)
(0,0,0)
(0,0,0)
(0,0,0)
(0,0,0)
(0,0,0)
(0,0,0)
(0,0,0)
(0,0,0)
(0,0,0)
(0,0,0)
(0,0,0)
(0,0,0)
(0,0,0)
(0,0,0)
(0,0,0)
(0,0,0)
(0,0,0)
(0,0,0)
(0,0,0)
(0,0,0)
(0,0,0)
(0,0,0)
(0,0,0)
(0,0,0)
(0,0,0)
(0,0,0)
(0,0,0)
(0,0,0)
(0,0,0)
(0,0,0)
(0,0,0)
(0,0,0)
(0,0,0)
(0,0,0)
(0,0,0)
(0,0,0)
(0,0,0)
(0,0,0)
(0,0,0)
(0,0,0)
(0,0,0)
(0,0,0)
(0,0,0)
(0,0,0)
(0,0,0)
(0,0,0)
(0,0,0)
(0,0,0)
(0,0,0)
(0,0,0)
(0,0,0)
(0,0,0)
(0,0,0)
(0,0,0)
(0,0,0)
(0,0,0)
(0,0,0)
(0,0,0)
(0,0,0)
(0,0,0)
(0,0,0)
(0,0,0)
(0,0,0)
(0,0,0)
(0,0,0)
(0,0,0)
(0,0,0)
(0,0,0)
(0,0,0)
(0,0,0)
(0,0,0)
(0,0,0)
(0,0,0)
(0,0,0)
(0,0,0)
(0,0,0)
(0,0,0)
(0,0,0)
(0,0,0)
(0,0,0)
(0,0,0)
(0,0,0)
(0,0,0)
(0,0,0)
(0,0,0)
(0,0,0)
(0,0,0)
(0,0,0)
(0,0,0)
(0,0,0)
(0,0,0)
(0,0,0)
(0,0,0)
(0,0,0)
(0,0,0)
(0,0,0)
(0,0,0)
(0,0,0)
(0,0,0)
(0,0,0)
(0,0,0)
(0,0,0)
(0,0,0)
(0,0,0)
(0,0,0)
(0,0,0)
(0,0,0)
(0,0,0)
(0,0,0)
(0,0,0)
(0,0,0)
(0,0,0)
(0,0,0)
(0,0,0)
(0,0,0)
(0,0,0)
(0,0,0)
(0,0,0)
(0,0,0)
(0,0,0)
(0,0,0)
(0,0,0)
(0,0,0)
(0,0,0)
(0,0,0)
(0,0,0)
(0,0,0)
(0,0,0)
(0,0,0)
(0,0,0)
(0,0,0)
(0,0,0)
(0,0,0)
(0,0,0)
(0,0,0)
(0,0,0)
(0,0,0)
(0,0,0)
(0,0,0)
(0,0,0)
(0,0,0)
(0,0,0)
(0,0,0)
(0,0,0)
(0,0,0)
(0,0,0)
(0,0,0)
(0,0,0)
(0,0,0)
(0,0,0)
(0,0,0)
(0,0,0)
(0,0,0)
(0,0,0)
(0,0,0)
(0,0,0)
(0,0,0)
(0,0,0)
(0,0,0)
(0,0,0)
(0,0,0)
(0,0,0)
(0,0,0)
(0,0,0)
(0,0,0)
(0,0,0)
(0,0,0)
(0,0,0)
(0,0,0)
(0,0,0)
(0,0,0)
(0,0,0)
(0,0,0)
(0,0,0)
(0,0,0)
(0,0,0)
(0,0,0)
(0,0,0)
(0,0,0)
(0,0,0)
(0,0,0)
(0,0,0)
(0,0,0)
(0,0,0)
(0,0,0)
(0,0,0)
(0,0,0)
(0,0,0)
(0,0,0)
(0,0,0)
(0,0,0)
(0,0,0)
(0,0,0)
(0,0,0)
(0,0,0)
(0,0,0)
(0,0,0)
(0,0,0)
(0,0,0)
(0,0,0)
(0,0,0)
(0,0,0)
(0,0,0)
(0,0,0)
(0,0,0)
(0,0,0)
(0,0,0)
(0,0,0)
(0,0,0)
(0,0,0)
(0,0,0)
(0,0,0)
(0,0,0)
(0,0,0)
(0,0,0)
(0,0,0)
(0,0,0)
(0,0,0)
(0,0,0)
(0,0,0)
(0,0,0)
(0,0,0)
(0,0,0)
(0,0,0)
(0,0,0)
(0,0,0)
(0,0,0)
(0,0,0)
(0,0,0)
(0,0,0)
(0,0,0)
(0,0,0)
(0,0,0)
(0,0,0)
(0,0,0)
(0,0,0)
(0,0,0)
(0,0,0)
(0,0,0)
(0,0,0)
(0,0,0)
(0,0,0)
(0,0,0)
(0,0,0)
(0,0,0)
(0,0,0)
(0,0,0)
(0,0,0)
(0,0,0)
(0,0,0)
(0,0,0)
(0,0,0)
(0,0,0)
(0,0,0)
(0,0,0)
(0,0,0)
(0,0,0)
(0,0,0)
(0,0,0)
(0,0,0)
(0,0,0)
(0,0,0)
(-1.55179736251017e-12,3.49484485894424e-12,-4.97507800465597e-13)
(-2.62955594308139e-12,7.42306898223555e-12,-5.50233616453824e-13)
(-2.33162393195027e-12,9.16547528583058e-12,-1.31596919695812e-13)
(-2.09577433355778e-12,1.08822197182483e-11,2.96570401821414e-13)
(-2.66558592969455e-12,1.31244622802855e-11,2.96487707547561e-13)
(-4.19163303927875e-12,1.79805250826626e-11,1.14566878850418e-13)
(-6.16682967401845e-12,2.82676945933934e-11,-2.64694629724252e-14)
(-7.68439758848943e-12,4.5153496023572e-11,3.18094428244866e-14)
(-1.01031178301373e-11,7.29756147939151e-11,7.60971883647067e-14)
(-1.06754537694993e-11,1.10929624351196e-10,1.68105782168381e-13)
(0,0,0)
(0,0,0)
(0,0,0)
(0,0,0)
(0,0,0)
(0,0,0)
(-1.78995869188092e-12,3.1360083998719e-12,-2.92487049283254e-12)
(-3.32080751975438e-12,6.35336164718962e-12,-2.95607273472653e-12)
(-2.55354927553467e-12,8.27581030658776e-12,-1.89371247125108e-12)
(-2.60085328683962e-12,1.00567477598623e-11,-7.07444909658156e-13)
(-3.44206445906643e-12,1.21848528296167e-11,-8.45225341532353e-14)
(-5.74011831761552e-12,1.72639304542958e-11,2.9564744328228e-13)
(-1.00014147191647e-11,2.7630655779274e-11,4.92535515826236e-13)
(-1.40978489916006e-11,4.4624900041763e-11,-8.99596245649239e-16)
(-1.7328616637943e-11,7.25205939983783e-11,-3.75286527563087e-13)
(-1.76844208467721e-11,1.11031439437816e-10,-3.24084816410567e-13)
(0,0,0)
(0,0,0)
(0,0,0)
(0,0,0)
(0,0,0)
(0,0,0)
(-3.5321878770571e-12,2.89138363678599e-12,-4.7270880113257e-12)
(-5.74706655325539e-12,4.92960794825085e-12,-4.5562156820454e-12)
(-5.28184222927598e-12,6.96147902052536e-12,-3.71069454660322e-12)
(-5.33959372794986e-12,9.03900379186926e-12,-2.67319267027172e-12)
(-5.93418519018396e-12,1.14378657362346e-11,-1.43472316007041e-12)
(-8.44165820936189e-12,1.68728325863337e-11,-2.90060417893405e-13)
(-1.33893254737283e-11,2.79653704693469e-11,2.34873003142085e-13)
(-1.79628164119904e-11,4.5110763202962e-11,-2.47571441303632e-13)
(-2.0704027754888e-11,7.27011418968295e-11,-8.21812238032184e-13)
(-2.17241340575462e-11,1.11347897008036e-10,-7.72047903332442e-13)
(0,0,0)
(0,0,0)
(0,0,0)
(0,0,0)
(0,0,0)
(0,0,0)
(-4.05656647265312e-12,2.20577123886742e-12,-6.23115313150914e-12)
(-6.29498749623953e-12,3.45426757529558e-12,-5.60248998176725e-12)
(-6.5031342599758e-12,5.55268804938842e-12,-5.13299519629092e-12)
(-6.74015766246424e-12,7.41506422384145e-12,-4.49192392171309e-12)
(-7.9149965123568e-12,1.01302985169672e-11,-3.45111335198183e-12)
(-1.01318844414596e-11,1.60584490335189e-11,-2.41482600114658e-12)
(-1.51124780917785e-11,2.78827618197747e-11,-1.79053599786025e-12)
(-1.92808841060978e-11,4.57213601992283e-11,-1.84658715986921e-12)
(-2.08904696589947e-11,7.30762560452728e-11,-1.96773648319578e-12)
(-2.16454374432011e-11,1.11128145107921e-10,-1.16372030133464e-12)
(0,0,0)
(0,0,0)
(0,0,0)
(0,0,0)
(0,0,0)
(0,0,0)
(-3.32466474970399e-12,9.76518188590649e-13,-8.76096510407663e-12)
(-5.81305893507722e-12,1.87469038093205e-12,-8.34435208372539e-12)
(-7.44816257134988e-12,3.93511598804967e-12,-8.14647792270544e-12)
(-8.14226865440918e-12,5.54643204138309e-12,-7.55941303175106e-12)
(-9.70181521100877e-12,8.58004904582057e-12,-7.0096645376212e-12)
(-1.12398519367445e-11,1.48781810814131e-11,-6.75049431160834e-12)
(-1.41591332147625e-11,2.6845368343935e-11,-6.13724527223548e-12)
(-1.64208647318468e-11,4.51619527897399e-11,-5.04820205694432e-12)
(-1.68294105977114e-11,7.22098888462247e-11,-3.76016779738236e-12)
(-1.68474687162843e-11,1.10279063359114e-10,-1.96165010899973e-12)
(0,0,0)
(0,0,0)
(0,0,0)
(0,0,0)
(0,0,0)
(0,0,0)
(-3.77450387547876e-12,2.8367566506098e-13,-1.37326751833293e-11)
(-7.53304072292307e-12,8.03149880320354e-13,-1.38057309934969e-11)
(-9.98013406750374e-12,2.22638589872911e-12,-1.40453374651866e-11)
(-1.09004383696175e-11,3.68711725472025e-12,-1.37227454774486e-11)
(-1.22025919459939e-11,7.0159892931743e-12,-1.38377892328743e-11)
(-1.2546034178276e-11,1.31788399385804e-11,-1.41007393695193e-11)
(-1.30717916984256e-11,2.49219336541272e-11,-1.32180053795762e-11)
(-1.24041413895646e-11,4.33916091121589e-11,-1.12988206429145e-11)
(-1.22011607431094e-11,7.04066073101193e-11,-8.41521563951678e-12)
(-1.2118192611581e-11,1.08591548379842e-10,-4.58033889690802e-12)
(0,0,0)
(0,0,0)
(0,0,0)
(0,0,0)
(0,0,0)
(0,0,0)
(-3.35407914072934e-12,-1.17815379026657e-13,-2.37318044137021e-11)
(-6.9747045456131e-12,1.13196880102003e-13,-2.39241831039214e-11)
(-9.89040780163311e-12,8.84253633206847e-13,-2.44084672990772e-11)
(-1.21105934722529e-11,2.60782814225673e-12,-2.43762951851439e-11)
(-1.37162420413684e-11,5.91444801342458e-12,-2.46281375756511e-11)
(-1.31012167901535e-11,1.15503582170131e-11,-2.51311526392963e-11)
(-1.19550512610243e-11,2.27334910320338e-11,-2.40124336760116e-11)
(-9.24841460565274e-12,4.02458879329353e-11,-2.11463491542769e-11)
(-8.15253526917948e-12,6.6429958390851e-11,-1.586223356197e-11)
(-8.03712517647133e-12,1.04156715257705e-10,-8.7967539141182e-12)
(0,0,0)
(0,0,0)
(0,0,0)
(0,0,0)
(0,0,0)
(0,0,0)
(-2.33991854718802e-12,-3.49154487958126e-13,-4.0387003587556e-11)
(-5.22678858311551e-12,-1.31004101551468e-13,-4.07563788343584e-11)
(-8.39289445962936e-12,2.38167800596057e-13,-4.13705744595068e-11)
(-1.11050828084859e-11,2.03407333274996e-12,-4.16663698539463e-11)
(-1.2904945706889e-11,5.16239433073655e-12,-4.18289065973174e-11)
(-1.19733240869234e-11,1.01127153017455e-11,-4.1877743653108e-11)
(-1.01337536479767e-11,1.95720963797644e-11,-4.00717872017678e-11)
(-6.63152898953019e-12,3.45162945212836e-11,-3.56035393436658e-11)
(-4.03774780449173e-12,5.88328904915216e-11,-2.76549801897964e-11)
(-2.93943566228536e-12,9.5038387792664e-11,-1.56462413672526e-11)
(0,0,0)
(0,0,0)
(0,0,0)
(0,0,0)
(0,0,0)
(0,0,0)
(-1.07263334780119e-12,-4.74360866836012e-14,-6.7569268746581e-11)
(-3.49015807357583e-12,2.84560253256757e-13,-6.79658449208044e-11)
(-6.28439742548812e-12,4.05745073102955e-13,-6.85723404345339e-11)
(-9.06955268490369e-12,1.9747430016826e-12,-6.91657492131295e-11)
(-1.10543850854229e-11,4.1949923766911e-12,-6.91653895084336e-11)
(-1.05892184318154e-11,7.59580034479341e-12,-6.86298599019026e-11)
(-8.97915609338631e-12,1.46043316285464e-11,-6.61240536234972e-11)
(-5.37700706414969e-12,2.62419396656141e-11,-6.00509873392077e-11)
(-1.52981214877211e-12,4.68091725579172e-11,-4.87519027066837e-11)
(4.51155050911956e-13,7.9479757522054e-11,-2.91190860388473e-11)
(0,0,0)
(0,0,0)
(0,0,0)
(0,0,0)
(0,0,0)
(0,0,0)
(-5.06174740548976e-13,1.79498182225778e-13,-1.06692002413583e-10)
(-1.88373084253328e-12,5.64930884357009e-13,-1.07276925793491e-10)
(-4.57497489691983e-12,4.83342347310258e-13,-1.07546893959569e-10)
(-7.53825125953767e-12,1.42247435779567e-12,-1.08083729378819e-10)
(-1.01388568958533e-11,2.5584836589882e-12,-1.07637162034728e-10)
(-9.95502891520897e-12,4.1117671093452e-12,-1.0630096820024e-10)
(-7.72931094513769e-12,7.79772294600268e-12,-1.03353953541587e-10)
(-3.94276375083639e-12,1.44695850524754e-11,-9.60313904447909e-11)
(3.33809460960357e-13,2.76318157004791e-11,-8.15638528362953e-11)
(2.85795611506626e-12,5.10465268068775e-11,-5.26818850345733e-11)
(0,0,0)
(0,0,0)
(0,0,0)
(0,0,0)
(0,0,0)
(0,0,0)
(0,0,0)
(0,0,0)
(0,0,0)
(0,0,0)
(0,0,0)
(0,0,0)
(0,0,0)
(0,0,0)
(0,0,0)
(0,0,0)
(0,0,0)
(0,0,0)
(0,0,0)
(0,0,0)
(0,0,0)
(0,0,0)
(0,0,0)
(0,0,0)
(0,0,0)
(0,0,0)
(0,0,0)
(0,0,0)
(0,0,0)
(0,0,0)
(0,0,0)
(0,0,0)
(0,0,0)
(0,0,0)
(0,0,0)
(0,0,0)
(0,0,0)
(0,0,0)
(0,0,0)
(0,0,0)
(0,0,0)
(0,0,0)
(0,0,0)
(0,0,0)
(0,0,0)
(0,0,0)
(0,0,0)
(0,0,0)
(0,0,0)
(0,0,0)
(0,0,0)
(0,0,0)
(0,0,0)
(0,0,0)
(0,0,0)
(0,0,0)
(0,0,0)
(0,0,0)
(0,0,0)
(0,0,0)
(0,0,0)
(0,0,0)
(0,0,0)
(0,0,0)
(0,0,0)
(0,0,0)
(0,0,0)
(0,0,0)
(0,0,0)
(0,0,0)
(0,0,0)
(0,0,0)
(0,0,0)
(0,0,0)
(0,0,0)
(0,0,0)
(0,0,0)
(0,0,0)
(0,0,0)
(0,0,0)
(0,0,0)
(0,0,0)
(0,0,0)
(0,0,0)
(0,0,0)
(0,0,0)
(0,0,0)
(0,0,0)
(0,0,0)
(0,0,0)
(0,0,0)
(0,0,0)
(0,0,0)
(0,0,0)
(0,0,0)
(0,0,0)
(0,0,0)
(0,0,0)
(0,0,0)
(0,0,0)
(0,0,0)
(0,0,0)
(-1.140235087451e-12,5.64813305758949e-12,-1.42900706127033e-12)
(-1.97848530479243e-12,1.19792139449247e-11,-1.53318520458357e-12)
(-1.8701262742377e-12,1.64241780336608e-11,-1.04257437856856e-12)
(-1.270219680912e-12,2.00071117490931e-11,-1.26061834280147e-13)
(-1.54405565038338e-12,2.47368793566801e-11,7.18809230331223e-13)
(-3.33400206902447e-12,3.30392716749734e-11,1.18801260373891e-12)
(-5.58806976560134e-12,4.94869700036245e-11,8.36858363392405e-13)
(-7.2000893523662e-12,7.80530683162494e-11,2.8745599741626e-13)
(-9.7401056288106e-12,1.33554954101743e-10,-1.61421228756891e-14)
(-1.06091630743328e-11,2.58853930066438e-10,9.4586172596231e-14)
(0,0,0)
(0,0,0)
(0,0,0)
(0,0,0)
(0,0,0)
(0,0,0)
(-1.51413168690191e-12,5.22021840773585e-12,-4.46492886135228e-12)
(-2.95941408427867e-12,1.04899068517322e-11,-4.62595941009074e-12)
(-2.42548555108603e-12,1.4638507203829e-11,-3.48639344794805e-12)
(-2.20603169433832e-12,1.84904948653416e-11,-1.84490654579436e-12)
(-3.07524734312382e-12,2.35125886104736e-11,-2.75636456881992e-13)
(-5.54590852222173e-12,3.26308756761288e-11,1.17237652756491e-12)
(-9.84269429730911e-12,4.95300100866896e-11,1.61831267598512e-12)
(-1.42093252210621e-11,7.85081960038372e-11,6.13555866648898e-13)
(-1.75603662471277e-11,1.33910258423613e-10,-2.82462892335847e-13)
(-1.83249632335866e-11,2.59632604336024e-10,-2.5166962769818e-13)
(0,0,0)
(0,0,0)
(0,0,0)
(0,0,0)
(0,0,0)
(0,0,0)
(-3.01744780841759e-12,4.99225102698589e-12,-7.95919545230791e-12)
(-5.11724731573682e-12,8.56464536721252e-12,-7.60038291936758e-12)
(-4.91055313443639e-12,1.22208358950986e-11,-6.37153070666233e-12)
(-4.95412367012498e-12,1.63752692752964e-11,-5.06729492932152e-12)
(-5.77128071313611e-12,2.16432127041891e-11,-3.10898084073361e-12)
(-8.15220807759973e-12,3.14911838329979e-11,-8.28922123820818e-13)
(-1.28242723795599e-11,4.990962213416e-11,2.85564218712336e-13)
(-1.79991726117177e-11,7.95613149900966e-11,-3.20176970115096e-13)
(-2.11289062380433e-11,1.34444647750173e-10,-1.26712812630466e-12)
(-2.22764300610204e-11,2.6023209958895e-10,-1.00465493846088e-12)
(0,0,0)
(0,0,0)
(0,0,0)
(0,0,0)
(0,0,0)
(0,0,0)
(-3.45597657211764e-12,3.86488097826337e-12,-1.25471077858353e-11)
(-5.18490508735601e-12,6.27705982281701e-12,-1.15627486414597e-11)
(-5.52663347322601e-12,9.70077727032015e-12,-1.03782974646332e-11)
(-5.91233604973752e-12,1.34339480492136e-11,-9.36598718276264e-12)
(-7.40103439205558e-12,1.87761198271423e-11,-7.53073675172242e-12)
(-9.57590649265922e-12,2.91464723631084e-11,-5.32214740962504e-12)
(-1.4019033453993e-11,4.91817101806102e-11,-3.69171616644051e-12)
(-1.86003273732315e-11,8.04177185585356e-11,-3.38533504208939e-12)
(-2.08281186412454e-11,1.34960367985661e-10,-3.38376388799814e-12)
(-2.19600759946473e-11,2.59994209980464e-10,-1.90898183197966e-12)
(0,0,0)
(0,0,0)
(0,0,0)
(0,0,0)
(0,0,0)
(0,0,0)
(-3.04843524652662e-12,2.36026257934074e-12,-1.83999940184773e-11)
(-4.93939259548724e-12,4.21040591175663e-12,-1.74581890430098e-11)
(-6.32649737298382e-12,7.4646428130007e-12,-1.65792959818935e-11)
(-6.83270236187691e-12,1.03389559779672e-11,-1.54539282109446e-11)
(-8.39692568436077e-12,1.51276775236242e-11,-1.40497717288781e-11)
(-1.01537598333412e-11,2.56666621362702e-11,-1.31519192130569e-11)
(-1.33247417401706e-11,4.71612350826983e-11,-1.21489329607558e-11)
(-1.5938555313697e-11,8.02541427301628e-11,-1.00946532547955e-11)
(-1.68246467503617e-11,1.34348080118831e-10,-7.45849610555801e-12)
(-1.71216038466243e-11,2.59170790760794e-10,-3.85766196514931e-12)
(0,0,0)
(0,0,0)
(0,0,0)
(0,0,0)
(0,0,0)
(0,0,0)
(-3.29995702122206e-12,1.11308257904629e-12,-2.66140008166619e-11)
(-6.6034812510196e-12,2.522274908852e-12,-2.63577914381692e-11)
(-8.96059378973088e-12,5.05897303402596e-12,-2.62779853162642e-11)
(-9.70610550173014e-12,7.44231318375495e-12,-2.56201975363452e-11)
(-1.08381005295862e-11,1.18556827792421e-11,-2.52337150923174e-11)
(-1.18002864466802e-11,2.16349775361314e-11,-2.52656464161078e-11)
(-1.28025338129987e-11,4.34781996015363e-11,-2.40294711553234e-11)
(-1.21420252138151e-11,7.73222107534813e-11,-2.09314121363616e-11)
(-1.20593885665575e-11,1.31588900826748e-10,-1.52631621485786e-11)
(-1.22636983858201e-11,2.56470419565157e-10,-8.0873660716213e-12)
(0,0,0)
(0,0,0)
(0,0,0)
(0,0,0)
(0,0,0)
(0,0,0)
(-2.93036134157987e-12,3.5649988767007e-14,-4.19147402546023e-11)
(-6.24621936880149e-12,9.81410246481766e-13,-4.22474617004443e-11)
(-9.27649408294974e-12,2.61485457588186e-12,-4.27828897617817e-11)
(-1.1284996272242e-11,5.22407209255715e-12,-4.2746290694753e-11)
(-1.24611732950051e-11,9.29224344716646e-12,-4.29757133530685e-11)
(-1.27822928381726e-11,1.74559507690576e-11,-4.36143382990368e-11)
(-1.16597411304716e-11,3.87766328179155e-11,-4.15050863541772e-11)
(-8.80293678642905e-12,7.1355769231054e-11,-3.7541678639774e-11)
(-7.62094701766975e-12,1.24579479337982e-10,-2.78539785637756e-11)
(-7.71555162477733e-12,2.48885097268366e-10,-1.51475875221784e-11)
(0,0,0)
(0,0,0)
(0,0,0)
(0,0,0)
(0,0,0)
(0,0,0)
(-2.27226170165959e-12,-5.69750843431088e-13,-6.99974472358888e-11)
(-5.02815731277353e-12,1.58971200983754e-13,-7.09829228128721e-11)
(-8.26467633769379e-12,1.24115248460561e-12,-7.17444789435329e-11)
(-1.08832157340525e-11,3.96092563929108e-12,-7.21823756561339e-11)
(-1.1888706697073e-11,8.24385672043262e-12,-7.26691907553625e-11)
(-1.12623655812606e-11,1.59416985142284e-11,-7.31149328131894e-11)
(-9.63423675478818e-12,3.39849622736954e-11,-7.08757573810571e-11)
(-6.30573328796332e-12,6.17865760535032e-11,-6.33289056622102e-11)
(-4.0227686932757e-12,1.11820546815582e-10,-4.89419776541334e-11)
(-3.02704675977919e-12,2.33502119679828e-10,-2.77472526579487e-11)
(0,0,0)
(0,0,0)
(0,0,0)
(0,0,0)
(0,0,0)
(0,0,0)
(-9.02991442487473e-13,-5.87521740570566e-13,-1.24926873872321e-10)
(-3.16403319094609e-12,-2.61737658392086e-13,-1.2579267063733e-10)
(-5.76858592109424e-12,4.44662457200887e-13,-1.26763509624171e-10)
(-8.51764374570435e-12,2.78402803505056e-12,-1.2749049862007e-10)
(-9.95340597423749e-12,6.41987057388171e-12,-1.27849451296782e-10)
(-9.61099147478761e-12,1.26440784262809e-11,-1.27502303990219e-10)
(-8.24561369511578e-12,2.56086729288827e-11,-1.23607310533019e-10)
(-4.90373708350063e-12,4.73367302390703e-11,-1.13104655503514e-10)
(-1.98527195921407e-12,9.08312971633239e-11,-9.28018122631336e-11)
(-2.34700272843393e-13,2.05995245599021e-10,-5.74581117470235e-11)
(0,0,0)
(0,0,0)
(0,0,0)
(0,0,0)
(0,0,0)
(0,0,0)
(2.58246821585637e-13,-4.39344335083507e-13,-2.51430816364778e-10)
(-1.04883179209884e-12,-2.80479241640663e-13,-2.52220936540362e-10)
(-3.55479713036371e-12,1.35798039991901e-13,-2.53063813198429e-10)
(-6.5623442458332e-12,1.54549529487065e-12,-2.53680457933884e-10)
(-8.91656707136307e-12,3.65413679729246e-12,-2.53533659556176e-10)
(-8.79027646452942e-12,7.05786045042955e-12,-2.52104268302049e-10)
(-7.25415109595445e-12,1.38171059498023e-11,-2.46818910141006e-10)
(-3.94071630683656e-12,2.64013853417313e-11,-2.3414155010007e-10)
(-9.16342640285192e-13,5.59675121972117e-11,-2.07999670515334e-10)
(1.2225978874561e-12,1.49159424127957e-10,-1.50683861209084e-10)
(0,0,0)
(0,0,0)
(0,0,0)
(0,0,0)
(0,0,0)
(0,0,0)
(0,0,0)
(0,0,0)
(0,0,0)
(0,0,0)
(0,0,0)
(0,0,0)
(0,0,0)
(0,0,0)
(0,0,0)
(0,0,0)
(0,0,0)
(0,0,0)
(0,0,0)
(0,0,0)
(0,0,0)
(0,0,0)
(0,0,0)
(0,0,0)
(0,0,0)
(0,0,0)
(0,0,0)
(0,0,0)
(0,0,0)
(0,0,0)
(0,0,0)
(0,0,0)
(0,0,0)
(0,0,0)
(0,0,0)
(0,0,0)
(0,0,0)
(0,0,0)
(0,0,0)
(0,0,0)
(0,0,0)
(0,0,0)
(0,0,0)
(0,0,0)
(0,0,0)
(0,0,0)
(0,0,0)
(0,0,0)
(0,0,0)
(0,0,0)
(0,0,0)
(0,0,0)
(0,0,0)
(0,0,0)
(0,0,0)
(0,0,0)
(0,0,0)
(0,0,0)
(0,0,0)
(0,0,0)
(0,0,0)
(0,0,0)
(0,0,0)
(0,0,0)
(0,0,0)
(0,0,0)
(0,0,0)
(0,0,0)
(0,0,0)
(0,0,0)
(0,0,0)
(0,0,0)
(0,0,0)
(0,0,0)
(0,0,0)
(0,0,0)
(0,0,0)
(0,0,0)
(0,0,0)
(0,0,0)
(0,0,0)
(0,0,0)
(0,0,0)
(0,0,0)
(0,0,0)
(0,0,0)
(0,0,0)
(0,0,0)
(0,0,0)
(0,0,0)
(0,0,0)
(0,0,0)
(0,0,0)
(0,0,0)
(0,0,0)
(0,0,0)
(0,0,0)
(0,0,0)
(0,0,0)
(0,0,0)
(0,0,0)
(0,0,0)
(-6.08142294468622e-13,6.27672479234898e-12,-2.42443703151403e-12)
(-9.79789037291361e-13,1.421368644913e-11,-2.27812607520187e-12)
(-1.00096798804374e-12,2.10936880429995e-11,-1.59730305909093e-12)
(-5.9847386214779e-13,2.58628316413699e-11,-2.6926972334993e-13)
(-7.88968277922818e-13,3.18517299102345e-11,1.1319184913917e-12)
(-2.57445182910434e-12,4.23527476286201e-11,2.27379368544754e-12)
(-5.08170748333139e-12,5.97235595677541e-11,2.62484441976391e-12)
(-7.3516189199558e-12,8.63714194004474e-11,2.06826761321135e-12)
(-1.02061382457839e-11,1.24812875012338e-10,1.18655332243534e-12)
(-1.12932511723988e-11,1.70949830399389e-10,6.27252606883071e-13)
(0,0,0)
(0,0,0)
(0,0,0)
(0,0,0)
(0,0,0)
(0,0,0)
(-1.12513375737513e-12,6.26074338012281e-12,-6.12515419687399e-12)
(-2.1737185623738e-12,1.30479703408838e-11,-6.0114503648829e-12)
(-1.64930114560505e-12,1.90354577062715e-11,-4.94428691388918e-12)
(-1.66007619306164e-12,2.39970509351329e-11,-2.63612036809903e-12)
(-2.65388442057923e-12,3.03512095819188e-11,-1.03948682463674e-13)
(-4.85215282828405e-12,4.16970919415801e-11,2.38816558041246e-12)
(-9.21754953590029e-12,5.99747362036208e-11,4.26528448885419e-12)
(-1.43664254475041e-11,8.72798002290389e-11,3.57460762784919e-12)
(-1.81255488376339e-11,1.25413032350169e-10,1.7937408545306e-12)
(-1.91761281139327e-11,1.71686224168343e-10,6.85336407410191e-13)
(0,0,0)
(0,0,0)
(0,0,0)
(0,0,0)
(0,0,0)
(0,0,0)
(-2.24889029447133e-12,6.08148881926758e-12,-1.187760234539e-11)
(-4.05851398284964e-12,1.10799045478538e-11,-1.13229958279183e-11)
(-3.69473028645746e-12,1.58036573642807e-11,-9.84962628611503e-12)
(-3.97111653297122e-12,2.07854422786176e-11,-7.260159939028e-12)
(-5.18424655338207e-12,2.7202241814242e-11,-3.86241893525521e-12)
(-6.92198295025368e-12,3.91515533947724e-11,-2.51324562736322e-13)
(-1.14906192370084e-11,5.99818079423674e-11,2.9489674568258e-12)
(-1.79086250239583e-11,8.89581320575955e-11,2.5885035060803e-12)
(-2.19070996607973e-11,1.26469389146731e-10,9.57231532573533e-13)
(-2.30431953910042e-11,1.72281565461089e-10,1.43553397841484e-13)
(0,0,0)
(0,0,0)
(0,0,0)
(0,0,0)
(0,0,0)
(0,0,0)
(-2.93571731845226e-12,4.76288506702122e-12,-1.87574303095148e-11)
(-4.30270235196641e-12,8.24535518902599e-12,-1.79087637083416e-11)
(-4.30280929841536e-12,1.20469733232793e-11,-1.61341924212002e-11)
(-4.65259441075013e-12,1.64167192700911e-11,-1.37561990303966e-11)
(-5.96118143065993e-12,2.25852584768078e-11,-1.04215986479104e-11)
(-7.7265275078635e-12,3.48408684205052e-11,-6.10290356865586e-12)
(-1.23049394800426e-11,5.94243673240669e-11,-1.17713492861408e-12)
(-1.84383226995483e-11,9.16096308419785e-11,-1.13707372826858e-12)
(-2.16906128292703e-11,1.28310292383332e-10,-1.96097385210526e-12)
(-2.30456386085911e-11,1.72896744519551e-10,-1.33839579690871e-12)
(0,0,0)
(0,0,0)
(0,0,0)
(0,0,0)
(0,0,0)
(0,0,0)
(-2.74306022202286e-12,2.92910854843636e-12,-2.71420203147628e-11)
(-4.13015465334981e-12,5.48560392980799e-12,-2.60779663888944e-11)
(-5.0461953660842e-12,8.82200006193413e-12,-2.4356038886689e-11)
(-5.34021604972905e-12,1.20481230549529e-11,-2.22664675363044e-11)
(-6.02278345393651e-12,1.66309598326815e-11,-1.95217715390726e-11)
(-7.12506148613017e-12,2.76498930642593e-11,-1.65822928972835e-11)
(-1.16959859668066e-11,5.68908087575805e-11,-1.64377358290184e-11)
(-1.56427804866904e-11,9.57904838153797e-11,-1.27118031614107e-11)
(-1.76663015967702e-11,1.30030322848131e-10,-8.92129975995306e-12)
(-1.82788946163065e-11,1.72937531927219e-10,-4.60818063381089e-12)
(0,0,0)
(0,0,0)
(0,0,0)
(0,0,0)
(0,0,0)
(0,0,0)
(-2.47873380957447e-12,1.1280373350951e-12,-3.67089729363716e-11)
(-5.14242271047694e-12,3.33760324108996e-12,-3.6065616514591e-11)
(-7.1742631115253e-12,6.17268442626905e-12,-3.51994335151598e-11)
(-7.8743468543966e-12,8.22990576264103e-12,-3.38691186002836e-11)
(-8.24272987414831e-12,1.09074897661729e-11,-3.26890964621093e-11)
(-8.85743494023021e-12,1.97911757558435e-11,-3.15530480609246e-11)
(-1.1199026047368e-11,5.16381231976362e-11,-3.09240329836875e-11)
(-1.18438336803414e-11,9.29312798523904e-11,-2.78352441287948e-11)
(-1.22257631536406e-11,1.27091099301478e-10,-1.95970844536748e-11)
(-1.27657421613169e-11,1.69490624328248e-10,-9.91082978415743e-12)
(0,0,0)
(0,0,0)
(0,0,0)
(0,0,0)
(0,0,0)
(0,0,0)
(-1.99223906192204e-12,-3.1527765552709e-13,-5.18829556107954e-11)
(-4.88835226415082e-12,1.53030349037432e-12,-5.17790090317739e-11)
(-7.93939105823017e-12,3.53747236133137e-12,-5.16265584000688e-11)
(-9.79242716077476e-12,5.27496090761302e-12,-5.17197539488987e-11)
(-1.07741616219072e-11,6.28754630305499e-12,-5.29186726941934e-11)
(-1.33772925280936e-11,1.02514377525272e-11,-5.5484645668263e-11)
(-1.0831478300801e-11,4.53299926263128e-11,-4.84550863135945e-11)
(-8.92144368618903e-12,8.56859386984053e-11,-5.00113931584874e-11)
(-7.56840553571917e-12,1.18316877590287e-10,-3.49405974015472e-11)
(-7.48016155879939e-12,1.6026455524312e-10,-1.80060843221253e-11)
(0,0,0)
(0,0,0)
(0,0,0)
(0,0,0)
(0,0,0)
(0,0,0)
(-1.2690152263501e-12,-1.12575281240436e-12,-7.64472358323783e-11)
(-3.84589232260895e-12,2.85863688050093e-13,-7.71754552152737e-11)
(-7.03028959817405e-12,1.82476900967011e-12,-7.75936602763281e-11)
(-9.21950303037671e-12,4.09941427908865e-12,-7.86580575519453e-11)
(-9.61897849267557e-12,7.1656657588835e-12,-8.05340146088067e-11)
(-1.02039209257359e-11,1.5116515223772e-11,-8.30760132883479e-11)
(-8.80479912886468e-12,4.34967352207114e-11,-8.312628873022e-11)
(-6.24281548222642e-12,7.13752123026761e-11,-7.2570514509206e-11)
(-4.22824403756444e-12,1.02229638059315e-10,-5.30141132134491e-11)
(-3.26742533580762e-12,1.42887221483077e-10,-2.86810272563035e-11)
(0,0,0)
(0,0,0)
(0,0,0)
(0,0,0)
(0,0,0)
(0,0,0)
(-1.85372083652076e-13,-1.00737730138162e-12,-1.13764663382672e-10)
(-2.17445262145243e-12,-5.15174157642906e-13,-1.14404636436954e-10)
(-4.73273250684808e-12,4.48319806257937e-13,-1.15261359035032e-10)
(-6.920158329236e-12,2.69355318632905e-12,-1.16499189812891e-10)
(-7.53481950347605e-12,6.66858665593146e-12,-1.17804423105301e-10)
(-7.91976695634563e-12,1.43544173322055e-11,-1.18347250934191e-10)
(-6.95670174458119e-12,3.12039143186128e-11,-1.1514497575317e-10)
(-4.2712354288278e-12,5.19479273763119e-11,-1.02303768164595e-10)
(-2.4651875077084e-12,7.83821573945347e-11,-7.87437819214667e-11)
(-8.56990549190313e-13,1.14806638662152e-10,-4.49282639009579e-11)
(0,0,0)
(0,0,0)
(0,0,0)
(0,0,0)
(0,0,0)
(0,0,0)
(6.09022660906904e-13,-4.79740103598806e-13,-1.60414565645784e-10)
(-4.86434375772581e-13,-5.99461996511107e-13,-1.60625986532079e-10)
(-2.80235435478606e-12,-2.28544099233976e-13,-1.61466826457945e-10)
(-5.16364732895358e-12,1.1795480370638e-12,-1.62460090114804e-10)
(-6.69182152779099e-12,3.96025144848055e-12,-1.6294898146673e-10)