/*--------------------------------*- C++ -*----------------------------------*\
| =========                 |                                                 |
| \\      /  F ield         | foam-extend: Open Source CFD                    |
|  \\    /   O peration     | Version:     4.0                                |
|   \\  /    A nd           | Web:         http://www.foam-extend.org         |
|    \\/     M anipulation  |                                                 |
\*---------------------------------------------------------------------------*/
FoamFile
{
    version 2.0;
    format ascii;
    class volVectorField;
    location "3350";
    object      H;
}
// * * * * * * * * * * * * * * * * * * * * * * * * * * * * * * * * * * * * * //

dimensions      [0 1 -1 0 0 0 0];

internalField   nonuniform List<vector>
4096
(
(0,0,0)
(0,0,0)
(0,0,0)
(0,0,0)
(0,0,0)
(0,0,0)
(0,0,0)
(0,0,0)
(0,0,0)
(0,0,0)
(0,0,0)
(0,0,0)
(0,0,0)
(0,0,0)
(0,0,0)
(0,0,0)
(0,0,0)
(0,0,0)
(0,0,0)
(0,0,0)
(0,0,0)
(0,0,0)
(0,0,0)
(0,0,0)
(0,0,0)
(0,0,0)
(0,0,0)
(0,0,0)
(0,0,0)
(0,0,0)
(0,0,0)
(0,0,0)
(0,0,0)
(0,0,0)
(0,0,0)
(0,0,0)
(0,0,0)
(0,0,0)
(0,0,0)
(0,0,0)
(0,0,0)
(0,0,0)
(0,0,0)
(0,0,0)
(0,0,0)
(0,0,0)
(0,0,0)
(0,0,0)
(0,0,0)
(0,0,0)
(0,0,0)
(0,0,0)
(0,0,0)
(0,0,0)
(0,0,0)
(0,0,0)
(0,0,0)
(0,0,0)
(0,0,0)
(0,0,0)
(0,0,0)
(0,0,0)
(0,0,0)
(0,0,0)
(0,0,0)
(0,0,0)
(0,0,0)
(0,0,0)
(0,0,0)
(0,0,0)
(0,0,0)
(0,0,0)
(0,0,0)
(0,0,0)
(0,0,0)
(0,0,0)
(0,0,0)
(0,0,0)
(0,0,0)
(0,0,0)
(0,0,0)
(0,0,0)
(0,0,0)
(0,0,0)
(0,0,0)
(0,0,0)
(0,0,0)
(0,0,0)
(0,0,0)
(0,0,0)
(0,0,0)
(0,0,0)
(0,0,0)
(0,0,0)
(0,0,0)
(0,0,0)
(0,0,0)
(0,0,0)
(0,0,0)
(0,0,0)
(0,0,0)
(0,0,0)
(0,0,0)
(0,0,0)
(0,0,0)
(0,0,0)
(0,0,0)
(0,0,0)
(0,0,0)
(0,0,0)
(0,0,0)
(0,0,0)
(0,0,0)
(0,0,0)
(0,0,0)
(0,0,0)
(0,0,0)
(0,0,0)
(0,0,0)
(0,0,0)
(0,0,0)
(0,0,0)
(0,0,0)
(0,0,0)
(0,0,0)
(0,0,0)
(0,0,0)
(0,0,0)
(0,0,0)
(0,0,0)
(0,0,0)
(0,0,0)
(0,0,0)
(0,0,0)
(0,0,0)
(0,0,0)
(0,0,0)
(0,0,0)
(0,0,0)
(0,0,0)
(0,0,0)
(0,0,0)
(0,0,0)
(0,0,0)
(0,0,0)
(0,0,0)
(0,0,0)
(0,0,0)
(0,0,0)
(0,0,0)
(0,0,0)
(0,0,0)
(0,0,0)
(0,0,0)
(0,0,0)
(0,0,0)
(0,0,0)
(0,0,0)
(0,0,0)
(0,0,0)
(0,0,0)
(0,0,0)
(0,0,0)
(0,0,0)
(0,0,0)
(0,0,0)
(0,0,0)
(0,0,0)
(0,0,0)
(0,0,0)
(0,0,0)
(0,0,0)
(0,0,0)
(0,0,0)
(0,0,0)
(0,0,0)
(0,0,0)
(0,0,0)
(0,0,0)
(0,0,0)
(0,0,0)
(0,0,0)
(0,0,0)
(0,0,0)
(0,0,0)
(0,0,0)
(0,0,0)
(0,0,0)
(0,0,0)
(0,0,0)
(0,0,0)
(0,0,0)
(0,0,0)
(0,0,0)
(0,0,0)
(0,0,0)
(0,0,0)
(0,0,0)
(0,0,0)
(0,0,0)
(0,0,0)
(0,0,0)
(0,0,0)
(0,0,0)
(0,0,0)
(0,0,0)
(0,0,0)
(0,0,0)
(0,0,0)
(0,0,0)
(0,0,0)
(0,0,0)
(0,0,0)
(0,0,0)
(0,0,0)
(0,0,0)
(0,0,0)
(0,0,0)
(0,0,0)
(0,0,0)
(0,0,0)
(0,0,0)
(0,0,0)
(0,0,0)
(0,0,0)
(0,0,0)
(0,0,0)
(0,0,0)
(0,0,0)
(0,0,0)
(0,0,0)
(0,0,0)
(0,0,0)
(0,0,0)
(0,0,0)
(0,0,0)
(0,0,0)
(0,0,0)
(0,0,0)
(0,0,0)
(0,0,0)
(0,0,0)
(0,0,0)
(0,0,0)
(0,0,0)
(0,0,0)
(0,0,0)
(0,0,0)
(0,0,0)
(0,0,0)
(0,0,0)
(0,0,0)
(0,0,0)
(0,0,0)
(0,0,0)
(0,0,0)
(0,0,0)
(0,0,0)
(0,0,0)
(0,0,0)
(0,0,0)
(0,0,0)
(0,0,0)
(0,0,0)
(0,0,0)
(0,0,0)
(0,0,0)
(0,0,0)
(0,0,0)
(0,0,0)
(0,0,0)
(0,0,0)
(0,0,0)
(0,0,0)
(0,0,0)
(0,0,0)
(0,0,0)
(0,0,0)
(0,0,0)
(0,0,0)
(0,0,0)
(0,0,0)
(0,0,0)
(0,0,0)
(0,0,0)
(0,0,0)
(0,0,0)
(0,0,0)
(0,0,0)
(0,0,0)
(0,0,0)
(0,0,0)
(0,0,0)
(0,0,0)
(0,0,0)
(0,0,0)
(0,0,0)
(0,0,0)
(0,0,0)
(0,0,0)
(0,0,0)
(0,0,0)
(0,0,0)
(0,0,0)
(0,0,0)
(0,0,0)
(0,0,0)
(0,0,0)
(0,0,0)
(0,0,0)
(0,0,0)
(0,0,0)
(0,0,0)
(0,0,0)
(0,0,0)
(0,0,0)
(0,0,0)
(0,0,0)
(0,0,0)
(0,0,0)
(0,0,0)
(0,0,0)
(0,0,0)
(0,0,0)
(0,0,0)
(0,0,0)
(0,0,0)
(0,0,0)
(0,0,0)
(0,0,0)
(0,0,0)
(0,0,0)
(0,0,0)
(0,0,0)
(0,0,0)
(0,0,0)
(0,0,0)
(0,0,0)
(0,0,0)
(0,0,0)
(0,0,0)
(0,0,0)
(0,0,0)
(0,0,0)
(0,0,0)
(0,0,0)
(0,0,0)
(0,0,0)
(0,0,0)
(0,0,0)
(0,0,0)
(0,0,0)
(0,0,0)
(0,0,0)
(0,0,0)
(0,0,0)
(0,0,0)
(0,0,0)
(0,0,0)
(0,0,0)
(0,0,0)
(0,0,0)
(0,0,0)
(0,0,0)
(0,0,0)
(0,0,0)
(0,0,0)
(0,0,0)
(0,0,0)
(0,0,0)
(0,0,0)
(0,0,0)
(0,0,0)
(0,0,0)
(0,0,0)
(0,0,0)
(0,0,0)
(0,0,0)
(0,0,0)
(0,0,0)
(0,0,0)
(0,0,0)
(0,0,0)
(0,0,0)
(0,0,0)
(0,0,0)
(0,0,0)
(0,0,0)
(0,0,0)
(0,0,0)
(0,0,0)
(0,0,0)
(0,0,0)
(0,0,0)
(0,0,0)
(0,0,0)
(0,0,0)
(0,0,0)
(0,0,0)
(0,0,0)
(0,0,0)
(0,0,0)
(0,0,0)
(0,0,0)
(0,0,0)
(0,0,0)
(0,0,0)
(0,0,0)
(0,0,0)
(0,0,0)
(0,0,0)
(0,0,0)
(0,0,0)
(0,0,0)
(0,0,0)
(0,0,0)
(0,0,0)
(0,0,0)
(0,0,0)
(0,0,0)
(0,0,0)
(0,0,0)
(0,0,0)
(0,0,0)
(0,0,0)
(0,0,0)
(0,0,0)
(0,0,0)
(0,0,0)
(0,0,0)
(0,0,0)
(0,0,0)
(0,0,0)
(0,0,0)
(0,0,0)
(0,0,0)
(0,0,0)
(0,0,0)
(0,0,0)
(0,0,0)
(0,0,0)
(0,0,0)
(0,0,0)
(0,0,0)
(0,0,0)
(0,0,0)
(0,0,0)
(0,0,0)
(0,0,0)
(0,0,0)
(0,0,0)
(0,0,0)
(0,0,0)
(0,0,0)
(0,0,0)
(0,0,0)
(0,0,0)
(0,0,0)
(0,0,0)
(0,0,0)
(0,0,0)
(0,0,0)
(0,0,0)
(0,0,0)
(0,0,0)
(0,0,0)
(0,0,0)
(0,0,0)
(0,0,0)
(0,0,0)
(0,0,0)
(0,0,0)
(0,0,0)
(0,0,0)
(0,0,0)
(0,0,0)
(0,0,0)
(0,0,0)
(0,0,0)
(0,0,0)
(0,0,0)
(0,0,0)
(0,0,0)
(0,0,0)
(0,0,0)
(0,0,0)
(0,0,0)
(0,0,0)
(0,0,0)
(0,0,0)
(0,0,0)
(0,0,0)
(0,0,0)
(0,0,0)
(0,0,0)
(0,0,0)
(0,0,0)
(0,0,0)
(0,0,0)
(0,0,0)
(0,0,0)
(0,0,0)
(0,0,0)
(0,0,0)
(0,0,0)
(0,0,0)
(0,0,0)
(0,0,0)
(0,0,0)
(0,0,0)
(0,0,0)
(0,0,0)
(0,0,0)
(0,0,0)
(0,0,0)
(0,0,0)
(0,0,0)
(0,0,0)
(0,0,0)
(0,0,0)
(0,0,0)
(0,0,0)
(0,0,0)
(0,0,0)
(0,0,0)
(0,0,0)
(0,0,0)
(0,0,0)
(0,0,0)
(0,0,0)
(0,0,0)
(0,0,0)
(0,0,0)
(0,0,0)
(0,0,0)
(0,0,0)
(0,0,0)
(0,0,0)
(0,0,0)
(0,0,0)
(0,0,0)
(0,0,0)
(0,0,0)
(0,0,0)
(0,0,0)
(0,0,0)
(0,0,0)
(0,0,0)
(0,0,0)
(0,0,0)
(0,0,0)
(0,0,0)
(0,0,0)
(0,0,0)
(0,0,0)
(0,0,0)
(0,0,0)
(0,0,0)
(0,0,0)
(0,0,0)
(0,0,0)
(0,0,0)
(0,0,0)
(0,0,0)
(0,0,0)
(0,0,0)
(0,0,0)
(0,0,0)
(0,0,0)
(0,0,0)
(0,0,0)
(0,0,0)
(0,0,0)
(0,0,0)
(0,0,0)
(0,0,0)
(0,0,0)
(0,0,0)
(0,0,0)
(0,0,0)
(0,0,0)
(0,0,0)
(0,0,0)
(0,0,0)
(0,0,0)
(0,0,0)
(0,0,0)
(0,0,0)
(0,0,0)
(0,0,0)
(0,0,0)
(0,0,0)
(0,0,0)
(0,0,0)
(0,0,0)
(0,0,0)
(0,0,0)
(0,0,0)
(0,0,0)
(0,0,0)
(0,0,0)
(0,0,0)
(0,0,0)
(0,0,0)
(0,0,0)
(0,0,0)
(0,0,0)
(0,0,0)
(0,0,0)
(0,0,0)
(0,0,0)
(0,0,0)
(0,0,0)
(0,0,0)
(0,0,0)
(0,0,0)
(0,0,0)
(0,0,0)
(0,0,0)
(0,0,0)
(0,0,0)
(0,0,0)
(0,0,0)
(0,0,0)
(0,0,0)
(0,0,0)
(0,0,0)
(0,0,0)
(0,0,0)
(0,0,0)
(0,0,0)
(0,0,0)
(0,0,0)
(0,0,0)
(0,0,0)
(0,0,0)
(0,0,0)
(0,0,0)
(0,0,0)
(0,0,0)
(0,0,0)
(0,0,0)
(0,0,0)
(0,0,0)
(0,0,0)
(0,0,0)
(0,0,0)
(0,0,0)
(0,0,0)
(0,0,0)
(0,0,0)
(0,0,0)
(0,0,0)
(0,0,0)
(0,0,0)
(0,0,0)
(0,0,0)
(0,0,0)
(0,0,0)
(0,0,0)
(0,0,0)
(0,0,0)
(0,0,0)
(0,0,0)
(0,0,0)
(0,0,0)
(0,0,0)
(0,0,0)
(0,0,0)
(0,0,0)
(0,0,0)
(0,0,0)
(0,0,0)
(0,0,0)
(0,0,0)
(0,0,0)
(0,0,0)
(0,0,0)
(0,0,0)
(0,0,0)
(0,0,0)
(0,0,0)
(0,0,0)
(0,0,0)
(0,0,0)
(0,0,0)
(0,0,0)
(0,0,0)
(0,0,0)
(0,0,0)
(0,0,0)
(0,0,0)
(0,0,0)
(0,0,0)
(0,0,0)
(0,0,0)
(0,0,0)
(0,0,0)
(0,0,0)
(0,0,0)
(0,0,0)
(0,0,0)
(0,0,0)
(0,0,0)
(0,0,0)
(0,0,0)
(0,0,0)
(0,0,0)
(0,0,0)
(0,0,0)
(0,0,0)
(0,0,0)
(0,0,0)
(0,0,0)
(0,0,0)
(0,0,0)
(0,0,0)
(0,0,0)
(0,0,0)
(0,0,0)
(0,0,0)
(0,0,0)
(0,0,0)
(0,0,0)
(0,0,0)
(0,0,0)
(0,0,0)
(0,0,0)
(0,0,0)
(0,0,0)
(0,0,0)
(0,0,0)
(0,0,0)
(0,0,0)
(0,0,0)
(0,0,0)
(0,0,0)
(0,0,0)
(0,0,0)
(0,0,0)
(0,0,0)
(0,0,0)
(0,0,0)
(0,0,0)
(0,0,0)
(0,0,0)
(0,0,0)
(0,0,0)
(0,0,0)
(0,0,0)
(0,0,0)
(0,0,0)
(0,0,0)
(0,0,0)
(0,0,0)
(0,0,0)
(0,0,0)
(0,0,0)
(0,0,0)
(0,0,0)
(0,0,0)
(0,0,0)
(0,0,0)
(0,0,0)
(0,0,0)
(0,0,0)
(0,0,0)
(0,0,0)
(0,0,0)
(0,0,0)
(0,0,0)
(0,0,0)
(0,0,0)
(0,0,0)
(0,0,0)
(0,0,0)
(0,0,0)
(0,0,0)
(0,0,0)
(0,0,0)
(0,0,0)
(0,0,0)
(0,0,0)
(0,0,0)
(0,0,0)
(0,0,0)
(0,0,0)
(0,0,0)
(0,0,0)
(0,0,0)
(0,0,0)
(0,0,0)
(0,0,0)
(0,0,0)
(0,0,0)
(0,0,0)
(0,0,0)
(0,0,0)
(0,0,0)
(0,0,0)
(0,0,0)
(0,0,0)
(0,0,0)
(0,0,0)
(0,0,0)
(0,0,0)
(0,0,0)
(0,0,0)
(0,0,0)
(0,0,0)
(0,0,0)
(0,0,0)
(0,0,0)
(0,0,0)
(0,0,0)
(0,0,0)
(0,0,0)
(0,0,0)
(0,0,0)
(5.29974817498365e-13,1.2351183884295e-11,-1.38956397758756e-11)
(1.17637314778122e-12,2.69173750913046e-11,-1.30831129770763e-11)
(2.181269116522e-12,4.66483644032744e-11,-1.16743957814246e-11)
(2.46150700657005e-12,7.55524363068273e-11,-9.60979968164833e-12)
(1.46483708376193e-12,1.18762321062011e-10,-6.82764775883402e-12)
(-2.91411453849268e-13,1.87249917105503e-10,-4.20343508616306e-12)
(-3.03296818831729e-12,2.98246569445235e-10,-2.03965663704719e-12)
(-5.64244761524549e-12,4.82475061379546e-10,-6.50097603434801e-13)
(-7.928788768791e-12,7.88028510601289e-10,-2.8269191622921e-13)
(-9.02907038353898e-12,1.21285047360267e-09,-2.05141239800129e-13)
(0,0,0)
(0,0,0)
(0,0,0)
(0,0,0)
(0,0,0)
(0,0,0)
(8.99104392820726e-13,1.19004606269058e-11,-2.96430966771096e-11)
(1.43155457209375e-12,2.58175697455452e-11,-2.79734812809812e-11)
(2.43138326462279e-12,4.49791799639853e-11,-2.52838213038816e-11)
(2.48860097451723e-12,7.34478425571159e-11,-2.17121954606189e-11)
(6.11459208742324e-13,1.1680945825037e-10,-1.6714308235288e-11)
(-2.52345466932847e-12,1.85610461775313e-10,-1.12766462883957e-11)
(-7.48222931373362e-12,2.97419902910564e-10,-6.56950542213016e-12)
(-1.17468044074837e-11,4.82473941975176e-10,-3.61111779291488e-12)
(-1.46945739453259e-11,7.88155992183687e-10,-2.37945467945544e-12)
(-1.58867222124814e-11,1.21241986298948e-09,-1.33087049285843e-12)
(0,0,0)
(0,0,0)
(0,0,0)
(0,0,0)
(0,0,0)
(0,0,0)
(1.30626480098049e-12,1.08021932683243e-11,-5.131336479339e-11)
(1.99814260118432e-12,2.36440988804544e-11,-4.94019668627504e-11)
(3.38814160163695e-12,4.18296585022773e-11,-4.58207827834847e-11)
(3.12523701497827e-12,6.88319456479866e-11,-4.05518939462089e-11)
(2.48124366726229e-13,1.11411662770072e-10,-3.33171636806108e-11)
(-4.2699892135209e-12,1.80718502892852e-10,-2.50692827984032e-11)
(-1.07606862322263e-11,2.94252279164207e-10,-1.73612445284018e-11)
(-1.61199525979624e-11,4.81173721350731e-10,-1.2233818850182e-11)
(-1.90471938879907e-11,7.87377156946017e-10,-8.87342851529133e-12)
(-2.01446258155726e-11,1.21137610390573e-09,-4.93173236511606e-12)
(0,0,0)
(0,0,0)
(0,0,0)
(0,0,0)
(0,0,0)
(0,0,0)
(1.26957142918034e-12,8.98961365740709e-12,-8.03725505292508e-11)
(2.02576574558424e-12,2.02268164753504e-11,-7.88921485706186e-11)
(4.08299799627698e-12,3.67429914018349e-11,-7.54409801755956e-11)
(3.53721759281701e-12,6.1425834623915e-11,-6.92366290444995e-11)
(5.11462010462498e-13,1.02311124091452e-10,-6.07721628312926e-11)
(-5.05059705632446e-12,1.71502790755748e-10,-5.0682480967194e-11)
(-1.1950665013778e-11,2.87562746069165e-10,-4.04948335286273e-11)
(-1.78980696441609e-11,4.77763520185683e-10,-3.16011908938142e-11)
(-2.11788569465647e-11,7.84455917684093e-10,-2.27726508156712e-11)
(-2.22008170562712e-11,1.20788010228792e-09,-1.22229725171951e-11)
(0,0,0)
(0,0,0)
(0,0,0)
(0,0,0)
(0,0,0)
(0,0,0)
(6.14166422611117e-13,7.41029928038958e-12,-1.22594023677336e-10)
(1.65049050258057e-12,1.65864570090621e-11,-1.20877353192027e-10)
(4.14199219566594e-12,2.99573443033852e-11,-1.17680232029018e-10)
(2.57747698659018e-12,5.1608779871066e-11,-1.11871472951358e-10)
(-9.05793943371169e-13,9.00867022979269e-11,-1.04182466231765e-10)
(-6.63648096809899e-12,1.58148114641399e-10,-9.49726652905442e-11)
(-1.28853064579637e-11,2.76220014887589e-10,-8.44078577201698e-11)
(-1.8078547941838e-11,4.69908330469155e-10,-6.84241724034783e-11)
(-2.12149008719931e-11,7.76022490265237e-10,-4.90570564449191e-11)
(-2.20431176540118e-11,1.19832850997935e-09,-2.60439430689438e-11)
(0,0,0)
(0,0,0)
(0,0,0)
(0,0,0)
(0,0,0)
(0,0,0)
(-4.73666946350594e-14,5.96912861733404e-12,-1.89606313816861e-10)
(6.87901250888222e-13,1.34978148208083e-11,-1.87748625954798e-10)
(3.09730816455349e-12,2.35705150350796e-11,-1.84535342670125e-10)
(2.05448722721908e-12,4.18604980035105e-11,-1.7965441702316e-10)
(-1.37846414660972e-12,7.71763866204167e-11,-1.7331220379512e-10)
(-6.53381411369835e-12,1.43333283765603e-10,-1.64305387016262e-10)
(-1.20677047260463e-11,2.62277774061496e-10,-1.50496520436135e-10)
(-1.67269662640519e-11,4.54120582768633e-10,-1.26501582939559e-10)
(-1.93862029734101e-11,7.55966475281733e-10,-9.22588937257859e-11)
(-1.92028843625854e-11,1.17509274239747e-09,-4.92931549966609e-11)
(0,0,0)
(0,0,0)
(0,0,0)
(0,0,0)
(0,0,0)
(0,0,0)
(8.36246169384926e-13,4.24362462338029e-12,-2.95721896288167e-10)
(1.16446548804536e-12,9.97396742964991e-12,-2.9447860695729e-10)
(2.43292551892315e-12,1.78676109712997e-11,-2.92135286078948e-10)
(1.72457734465555e-12,3.34865791982485e-11,-2.88747171893579e-10)
(-1.21502688121483e-12,6.45015980869876e-11,-2.83419402530135e-10)
(-5.93709881897245e-12,1.25653527733108e-10,-2.73535709889259e-10)
(-1.03935624575328e-11,2.39958364336477e-10,-2.53145146809048e-10)
(-1.34703192858812e-11,4.22842131200018e-10,-2.18843746130769e-10)
(-1.49949366632475e-11,7.15456017351382e-10,-1.63686820967205e-10)
(-1.50521180839628e-11,1.1284278631433e-09,-8.92311903968869e-11)
(0,0,0)
(0,0,0)
(0,0,0)
(0,0,0)
(0,0,0)
(0,0,0)
(2.75055270357397e-12,3.07068097311652e-12,-4.75341436903789e-10)
(4.09773449951459e-12,7.01126828003321e-12,-4.7473100135303e-10)
(5.4403467515925e-12,1.31819124912017e-11,-4.730370090815e-10)
(4.89864812454718e-12,2.64855359789611e-11,-4.69779758035668e-10)
(1.73224063960595e-12,5.32614340984979e-11,-4.63710885884319e-10)
(-1.90570059484198e-12,1.06779967083511e-10,-4.51527636985547e-10)
(-5.60900483450632e-12,2.06137153393123e-10,-4.24724546444615e-10)
(-8.54837321914445e-12,3.68661637903919e-10,-3.73762360093985e-10)
(-1.0565758165018e-11,6.42670878095368e-10,-2.89259935720285e-10)
(-1.20473221190788e-11,1.04150604246627e-09,-1.63755028822887e-10)
(0,0,0)
(0,0,0)
(0,0,0)
(0,0,0)
(0,0,0)
(0,0,0)
(5.30923230156695e-12,2.39848167308924e-12,-7.78261350549838e-10)
(8.44967518801129e-12,4.99708211639753e-12,-7.77626482942074e-10)
(1.00695188208853e-11,9.37717316572474e-12,-7.75547744006162e-10)
(9.75186672512314e-12,1.94344759711277e-11,-7.71357412979348e-10)
(6.30125883734098e-12,3.97526644508361e-11,-7.631546909987e-10)
(3.64342809183391e-12,8.00565057119108e-11,-7.46571672663992e-10)
(7.13064534608964e-13,1.54738645816216e-10,-7.10838251124447e-10)
(-3.63195195230793e-12,2.83952965520987e-10,-6.41439783524928e-10)
(-7.8280688338193e-12,5.17962040177987e-10,-5.18632997592561e-10)
(-1.07399111453256e-11,8.78935293001522e-10,-3.11405447667746e-10)
(0,0,0)
(0,0,0)
(0,0,0)
(0,0,0)
(0,0,0)
(0,0,0)
(6.80043202885668e-12,1.51189566340351e-12,-1.20118181091554e-09)
(1.06403643795811e-11,2.85409032150897e-12,-1.20006836291967e-09)
(1.18030527032663e-11,5.11592081646248e-12,-1.19728059090519e-09)
(1.16994309457762e-11,1.04573868651549e-11,-1.19216447934993e-09)
(9.12862697519895e-12,2.14204208929401e-11,-1.18260566764168e-09)
(7.04073459308856e-12,4.33854371789599e-11,-1.1631278124318e-09)
(3.87015205027926e-12,8.46196240691749e-11,-1.12107600922149e-09)
(-1.07701775427527e-12,1.60677769913591e-10,-1.03733064214537e-09)
(-5.72549026149662e-12,3.10575923787108e-10,-8.76893040278106e-10)
(-9.02433193067263e-12,5.67239036174476e-10,-5.66611829988663e-10)
(0,0,0)
(0,0,0)
(0,0,0)
(0,0,0)
(0,0,0)
(0,0,0)
(0,0,0)
(0,0,0)
(0,0,0)
(0,0,0)
(0,0,0)
(0,0,0)
(0,0,0)
(0,0,0)
(0,0,0)
(0,0,0)
(0,0,0)
(0,0,0)
(0,0,0)
(0,0,0)
(0,0,0)
(0,0,0)
(0,0,0)
(0,0,0)
(0,0,0)
(0,0,0)
(0,0,0)
(0,0,0)
(0,0,0)
(0,0,0)
(0,0,0)
(0,0,0)
(0,0,0)
(0,0,0)
(0,0,0)
(0,0,0)
(0,0,0)
(0,0,0)
(0,0,0)
(0,0,0)
(0,0,0)
(0,0,0)
(0,0,0)
(0,0,0)
(0,0,0)
(0,0,0)
(0,0,0)
(0,0,0)
(0,0,0)
(0,0,0)
(0,0,0)
(0,0,0)
(0,0,0)
(0,0,0)
(0,0,0)
(0,0,0)
(0,0,0)
(0,0,0)
(0,0,0)
(0,0,0)
(0,0,0)
(0,0,0)
(0,0,0)
(0,0,0)
(0,0,0)
(0,0,0)
(0,0,0)
(0,0,0)
(0,0,0)
(0,0,0)
(0,0,0)
(0,0,0)
(0,0,0)
(0,0,0)
(0,0,0)
(0,0,0)
(0,0,0)
(0,0,0)
(0,0,0)
(0,0,0)
(0,0,0)
(0,0,0)
(0,0,0)
(0,0,0)
(0,0,0)
(0,0,0)
(0,0,0)
(0,0,0)
(0,0,0)
(0,0,0)
(0,0,0)
(0,0,0)
(0,0,0)
(0,0,0)
(0,0,0)
(0,0,0)
(0,0,0)
(0,0,0)
(0,0,0)
(0,0,0)
(0,0,0)
(0,0,0)
(1.68171276085719e-13,2.43452200568846e-11,-2.57557165114422e-11)
(8.67461297886625e-13,5.18112166784837e-11,-2.44428874918428e-11)
(1.78585745603651e-12,8.75134703595363e-11,-2.19671861441835e-11)
(1.78394883345557e-12,1.38913363459641e-10,-1.80670174019145e-11)
(7.93487222688698e-13,2.16304745495726e-10,-1.26192043936082e-11)
(-8.15734572723941e-13,3.36062956386452e-10,-6.92190093265766e-12)
(-3.59586068714379e-12,5.25442502259156e-10,-1.92245180787299e-12)
(-6.00873389826306e-12,8.45162483262031e-10,5.71966943119812e-13)
(-8.13382102803417e-12,1.45447125557039e-09,9.96457691824461e-13)
(-8.80360101057623e-12,2.84544581300803e-09,4.60518986291136e-13)
(0,0,0)
(0,0,0)
(0,0,0)
(0,0,0)
(0,0,0)
(0,0,0)
(3.27756355272691e-13,2.3020830374922e-11,-5.51899954931593e-11)
(9.15365460099604e-13,4.92887479121541e-11,-5.27478184676934e-11)
(2.00927888304735e-12,8.39964346041285e-11,-4.81268361961351e-11)
(2.10661065831237e-12,1.3446201807641e-10,-4.08167042400438e-11)
(5.71592742158154e-13,2.11638652141047e-10,-3.02723869046141e-11)
(-2.33863665315454e-12,3.31923311410893e-10,-1.78489927594161e-11)
(-7.27299319674176e-12,5.23755722713521e-10,-6.61778319821e-12)
(-1.16782468961212e-11,8.45727982605374e-10,-1.62276065856339e-12)
(-1.49643228938105e-11,1.45586000063125e-09,-8.88338587499249e-13)
(-1.61738336214447e-11,2.84678097846205e-09,-6.98272174541052e-13)
(0,0,0)
(0,0,0)
(0,0,0)
(0,0,0)
(0,0,0)
(0,0,0)
(1.20744648125895e-12,2.05613391819177e-11,-9.58789643316075e-11)
(1.83424092702642e-12,4.45676110531909e-11,-9.26580138347026e-11)
(3.20591986482803e-12,7.6847625916817e-11,-8.61192440281732e-11)
(3.29661777344647e-12,1.24217581803555e-10,-7.52675881261077e-11)
(1.10078216309007e-12,1.9946563518743e-10,-5.9713914601283e-11)
(-2.7623153464104e-12,3.21052487420996e-10,-4.0292937135872e-11)
(-9.19857881537314e-12,5.19027754519433e-10,-2.13837778574911e-11)
(-1.60701417679763e-11,8.46531401825135e-10,-1.33713439073268e-11)
(-2.0067650776317e-11,1.457666761718e-09,-1.05366765053675e-11)
(-2.15803565629821e-11,2.84841711955062e-09,-6.46559846127892e-12)
(0,0,0)
(0,0,0)
(0,0,0)
(0,0,0)
(0,0,0)
(0,0,0)
(1.36848384756568e-12,1.72049764341328e-11,-1.49763895119225e-10)
(2.21495681684777e-12,3.76890746445301e-11,-1.46324952984192e-10)
(4.66429396362329e-12,6.58527844575124e-11,-1.39308192884306e-10)
(4.88980613246422e-12,1.08139087685699e-10,-1.26504844663277e-10)
(2.64620193988198e-12,1.79003365784772e-10,-1.08345011504854e-10)
(-1.88356838051814e-12,3.0001570336905e-10,-8.50875697596078e-11)
(-9.50157646702012e-12,5.074141334634e-10,-6.05687935877026e-11)
(-1.88714200057542e-11,8.45498518081282e-10,-4.64294049135426e-11)
(-2.3295107825656e-11,1.45729504113253e-09,-3.44894294252295e-11)
(-2.48721972639988e-11,2.84613048740077e-09,-1.90249635324052e-11)
(0,0,0)
(0,0,0)
(0,0,0)
(0,0,0)
(0,0,0)
(0,0,0)
(3.38666600357101e-13,1.354480680331e-11,-2.24325056221336e-10)
(1.54201152782447e-12,2.98123726057474e-11,-2.20925902821467e-10)
(4.72006238630844e-12,5.19237839503918e-11,-2.14687757051819e-10)
(4.63675213454372e-12,8.7484867299289e-11,-2.03194199357214e-10)
(2.79472079293875e-12,1.51206455578122e-10,-1.87684574782056e-10)
(-2.38645766273793e-12,2.6676588876607e-10,-1.69716693954838e-10)
(-1.49267509484985e-11,4.80895161095353e-10,-1.54102715180294e-10)
(-2.16579161997074e-11,8.36931959340139e-10,-1.20549152851793e-10)
(-2.41719992647314e-11,1.44766379114981e-09,-8.47918559046646e-11)
(-2.48512931414222e-11,2.83253039808081e-09,-4.454491870647e-11)
(0,0,0)
(0,0,0)
(0,0,0)
(0,0,0)
(0,0,0)
(0,0,0)
(-1.79550562743141e-13,1.03602892167428e-11,-3.39569020738063e-10)
(9.98465357369285e-13,2.31626704514501e-11,-3.36273692256852e-10)
(3.91928658136462e-12,3.90701305462776e-11,-3.304480065642e-10)
(4.08619280444976e-12,6.73884289465761e-11,-3.21602924114278e-10)
(2.28950760797433e-12,1.23237277594866e-10,-3.10399335420465e-10)
(-2.66292466137538e-12,2.34701679920005e-10,-2.95556648681536e-10)
(-1.37432324975652e-11,4.59564296543729e-10,-2.75043174609477e-10)
(-1.96912039092964e-11,8.13049135405037e-10,-2.29340492081527e-10)
(-2.18414837722747e-11,1.41567392608203e-09,-1.64796364815516e-10)
(-2.18311601044746e-11,2.79409548846661e-09,-8.68148730349214e-11)
(0,0,0)
(0,0,0)
(0,0,0)
(0,0,0)
(0,0,0)
(0,0,0)
(7.65900488769847e-13,7.2918911775372e-12,-5.20679224371735e-10)
(1.78384375932245e-12,1.66696847956157e-11,-5.1808157079002e-10)
(3.73050981365593e-12,2.81912211539857e-11,-5.13912149215831e-10)
(3.39785120049225e-12,5.07546904149855e-11,-5.09139592668241e-10)
(1.41444466428063e-13,9.76295133729083e-11,-5.02833864814133e-10)
(-7.45410124956603e-12,1.98344738233579e-10,-4.90076928104633e-10)
(-1.08737521924615e-11,4.21735550200717e-10,-4.5165947648558e-10)
(-1.44467511535049e-11,7.58674348885809e-10,-3.96105033604455e-10)
(-1.6665427977573e-11,1.34477866865112e-09,-2.92420915253728e-10)
(-1.73614878034366e-11,2.71288553612585e-09,-1.57472277811692e-10)
(0,0,0)
(0,0,0)
(0,0,0)
(0,0,0)
(0,0,0)
(0,0,0)
(2.81231645284198e-12,5.11613913528265e-12,-8.3243059575311e-10)
(4.41792839162209e-12,1.15425247397111e-11,-8.30556927225733e-10)
(5.98783503124028e-12,2.06115500590392e-11,-8.27519981731267e-10)
(5.88083598102534e-12,4.03255323697784e-11,-8.2378505856916e-10)
(3.05776138847293e-12,8.32348720515539e-11,-8.17164336987626e-10)
(-1.98532976414605e-12,1.76520822948816e-10,-8.01857008917376e-10)
(-5.17268360818375e-12,3.65738863706096e-10,-7.5961210976988e-10)
(-8.34212521005227e-12,6.57653970939543e-10,-6.67343592333657e-10)
(-1.13618271448821e-11,1.21336949275165e-09,-5.13479595344717e-10)
(-1.32316014776564e-11,2.55914603725856e-09,-2.91386127165513e-10)
(0,0,0)
(0,0,0)
(0,0,0)
(0,0,0)
(0,0,0)
(0,0,0)
(5.56095070348832e-12,3.76521834996467e-12,-1.43712191706221e-09)
(8.5139280469887e-12,7.99148371443586e-12,-1.43493956884391e-09)
(1.01404401433372e-11,1.47338453703777e-11,-1.43134347554916e-09)
(1.05262338504556e-11,3.0544971638125e-11,-1.42620254590749e-09)
(8.05048406053791e-12,6.46342567866116e-11,-1.41509072456134e-09)
(4.58107508522511e-12,1.35876435442381e-10,-1.39016316452875e-09)
(1.43361868214133e-12,2.71839443314065e-10,-1.33124503515827e-09)
(-3.16354227729191e-12,5.03469576600572e-10,-1.20897187295672e-09)
(-7.66950236775687e-12,9.92064699666893e-10,-9.92584270076201e-10)
(-1.04491019863119e-11,2.26870862009014e-09,-6.19736191103441e-10)
(0,0,0)
(0,0,0)
(0,0,0)
(0,0,0)
(0,0,0)
(0,0,0)
(7.19887969639784e-12,2.14083192080752e-12,-2.82668687551479e-09)
(1.07066826866047e-11,4.31486095802148e-12,-2.82395399976691e-09)
(1.18028619644635e-11,8.09572838336537e-12,-2.81933670627591e-09)
(1.25980061026792e-11,1.69492340205643e-11,-2.81235719309136e-09)
(1.10711926582589e-11,3.57236634805261e-11,-2.79767740779437e-09)
(8.37436856172166e-12,7.42710206525412e-11,-2.76570876260463e-09)
(4.74440904331108e-12,1.47505309718694e-10,-2.69440164105973e-09)
(-8.36849707913942e-13,2.85715615173705e-10,-2.54875105446413e-09)
(-5.43077676383607e-12,6.18379744076016e-10,-2.26431479375813e-09)
(-8.39712574475415e-12,1.64810275901576e-09,-1.64699413298366e-09)
(0,0,0)
(0,0,0)
(0,0,0)
(0,0,0)
(0,0,0)
(0,0,0)
(0,0,0)
(0,0,0)
(0,0,0)
(0,0,0)
(0,0,0)
(0,0,0)
(0,0,0)
(0,0,0)
(0,0,0)
(0,0,0)
(0,0,0)
(0,0,0)
(0,0,0)
(0,0,0)
(0,0,0)
(0,0,0)
(0,0,0)
(0,0,0)
(0,0,0)
(0,0,0)
(0,0,0)
(0,0,0)
(0,0,0)
(0,0,0)
(0,0,0)
(0,0,0)
(0,0,0)
(0,0,0)
(0,0,0)
(0,0,0)
(0,0,0)
(0,0,0)
(0,0,0)
(0,0,0)
(0,0,0)
(0,0,0)
(0,0,0)
(0,0,0)
(0,0,0)
(0,0,0)
(0,0,0)
(0,0,0)
(0,0,0)
(0,0,0)
(0,0,0)
(0,0,0)
(0,0,0)
(0,0,0)
(0,0,0)
(0,0,0)
(0,0,0)
(0,0,0)
(0,0,0)
(0,0,0)
(0,0,0)
(0,0,0)
(0,0,0)
(0,0,0)
(0,0,0)
(0,0,0)
(0,0,0)
(0,0,0)
(0,0,0)
(0,0,0)
(0,0,0)
(0,0,0)
(0,0,0)
(0,0,0)
(0,0,0)
(0,0,0)
(0,0,0)
(0,0,0)
(0,0,0)
(0,0,0)
(0,0,0)
(0,0,0)
(0,0,0)
(0,0,0)
(0,0,0)
(0,0,0)
(0,0,0)
(0,0,0)
(0,0,0)
(0,0,0)
(0,0,0)
(0,0,0)
(0,0,0)
(0,0,0)
(0,0,0)
(0,0,0)
(0,0,0)
(0,0,0)
(0,0,0)
(0,0,0)
(0,0,0)
(0,0,0)
(1.79731938052577e-13,3.29508208865604e-11,-3.60802296969143e-11)
(9.14228716297647e-13,7.04997150663838e-11,-3.40389160977147e-11)
(1.40272447017968e-12,1.19011347143677e-10,-3.06230773517123e-11)
(7.87481207888358e-13,1.8569671382148e-10,-2.47651511675133e-11)
(-2.37722883353502e-13,2.80859554343589e-10,-1.58479488803984e-11)
(-1.67553872174518e-12,4.20758625098076e-10,-5.62565223629166e-12)
(-4.40349989316646e-12,6.24906849862738e-10,3.14741972718632e-12)
(-6.99872399059157e-12,9.18661054631386e-10,6.29090696954612e-12)
(-8.98662738283042e-12,1.3358042338912e-09,5.39063710552811e-12)
(-9.67824747927364e-12,1.84275996015557e-09,2.69890934505941e-12)
(0,0,0)
(0,0,0)
(0,0,0)
(0,0,0)
(0,0,0)
(0,0,0)
(3.45070522704434e-13,3.07308611252408e-11,-7.71182670612168e-11)
(1.01552004719545e-12,6.65510400745048e-11,-7.35175784439807e-11)
(1.84795561274137e-12,1.13022780784809e-10,-6.67581071433539e-11)
(1.80672959628117e-12,1.77423003758189e-10,-5.49616758373906e-11)
(3.21215551074961e-13,2.71781237714114e-10,-3.70156080965158e-11)
(-2.6990222248536e-12,4.13508155167662e-10,-1.42824760930844e-11)
(-7.54004754261301e-12,6.23859789585123e-10,6.77241240762936e-12)
(-1.32160881863309e-11,9.22036262250375e-10,1.18403038199293e-11)
(-1.69611503930918e-11,1.34040085534702e-09,8.24558132264993e-12)
(-1.85082468843951e-11,1.84700471441897e-09,3.47055580843295e-12)
(0,0,0)
(0,0,0)
(0,0,0)
(0,0,0)
(0,0,0)
(0,0,0)
(1.34285873048205e-12,2.71496686821303e-11,-1.30523033408309e-10)
(2.17400753006644e-12,5.93254510285473e-11,-1.26015573668469e-10)
(3.34910542249757e-12,1.01100672383866e-10,-1.16324660844007e-10)
(3.82143836606533e-12,1.6010666977797e-10,-9.88330366497062e-11)
(2.1420740999667e-12,2.50649702777812e-10,-7.19276949732501e-11)
(-6.34690572749128e-13,3.94817369869398e-10,-3.4179807227619e-11)
(-5.59739170954262e-12,6.21718823901992e-10,6.88906146082713e-12)
(-1.78719254260044e-11,9.30993059448143e-10,1.07028604962247e-11)
(-2.3767008233984e-11,1.34978014140695e-09,2.87647730531054e-12)
(-2.57593228750402e-11,1.85449628853146e-09,-1.25557291052306e-12)
(0,0,0)
(0,0,0)
(0,0,0)
(0,0,0)
(0,0,0)
(0,0,0)
(1.58971134291791e-12,2.30654373625752e-11,-1.99552849925613e-10)
(3.07489875653253e-12,4.95023743951684e-11,-1.9440209172401e-10)
(5.7899462490417e-12,8.37666682574845e-11,-1.8332372989358e-10)
(7.38419335934016e-12,1.33596323413013e-10,-1.6288537186411e-10)
(7.18567040154136e-12,2.13779166618979e-10,-1.30860833792529e-10)
(6.84747005155862e-12,3.53927558935482e-10,-8.24430899213349e-11)
(2.87800722694149e-12,6.13010929395493e-10,-1.81381146023332e-11)
(-2.22448367531839e-11,9.47727269427191e-10,-1.84475061744173e-11)
(-2.91283237348305e-11,1.36241908762456e-09,-2.29755579072083e-11)
(-3.02970714779151e-11,1.86019672716497e-09,-1.58878738904372e-11)
(0,0,0)
(0,0,0)
(0,0,0)
(0,0,0)
(0,0,0)
(0,0,0)
(1.24030786490346e-13,1.82351846728278e-11,-2.91874763130748e-10)
(1.95356791333323e-12,3.81823489469139e-11,-2.87169786224246e-10)
(6.080158094425e-12,6.301924848089e-11,-2.77264072964818e-10)
(9.22356591216245e-12,1.00019384562091e-10,-2.59145549180954e-10)
(1.279601795062e-11,1.61102258443203e-10,-2.32868456681396e-10)
(1.40637724076702e-11,2.74433936865791e-10,-2.02798964384906e-10)
(-2.71494487264334e-11,5.39482931892509e-10,-2.15851785986991e-10)
(-3.35323892119297e-11,9.65277676576366e-10,-1.41138561469089e-10)
(-3.2429071393444e-11,1.3681476395915e-09,-9.61415440043254e-11)
(-3.09613022340968e-11,1.85324820790258e-09,-5.06434019331795e-11)
(0,0,0)
(0,0,0)
(0,0,0)
(0,0,0)
(0,0,0)
(0,0,0)
(-4.06481004542691e-13,1.36291883897201e-11,-4.25783672420802e-10)
(1.66576532025922e-12,2.77060913863414e-11,-4.21659466332084e-10)
(5.95311352401799e-12,4.32272785257935e-11,-4.13424799691975e-10)
(9.51634264321175e-12,6.74109290801212e-11,-4.00729209602063e-10)
(1.30545850904636e-11,1.11555375217571e-10,-3.84368858563479e-10)
(1.31805429524893e-11,2.15684705685447e-10,-3.65039013163652e-10)
(-2.16171686813195e-11,5.44602367053513e-10,-3.69680570870952e-10)
(-2.98605446569861e-11,9.52343479212653e-10,-2.92737150565315e-10)
(-2.89277181213172e-11,1.33774962975912e-09,-2.03495551289178e-10)
(-2.74360807991711e-11,1.81180819809205e-09,-1.04968919678153e-10)
(0,0,0)
(0,0,0)
(0,0,0)
(0,0,0)
(0,0,0)
(0,0,0)
(3.43998951011264e-13,9.29510863205224e-12,-6.17951294085484e-10)
(2.74158223910524e-12,1.82775430917036e-11,-6.14835464793276e-10)
(6.53762436123178e-12,2.72734450188993e-11,-6.09834215198956e-10)
(7.5212813917209e-12,4.12700570421076e-11,-6.05555113455595e-10)
(1.77914907825423e-12,6.5491481599137e-11,-6.06339411575848e-10)
(-2.40476375834222e-11,1.31764721658139e-10,-6.14099487341501e-10)
(-1.04315085792311e-11,5.05842595141901e-10,-5.35755392752899e-10)
(-1.71104915588971e-11,8.90379051669943e-10,-5.15271868967967e-10)
(-2.02048895194972e-11,1.25167382865434e-09,-3.5839905506435e-10)
(-2.10942667479354e-11,1.71423780546061e-09,-1.84470722032451e-10)
(0,0,0)
(0,0,0)
(0,0,0)
(0,0,0)
(0,0,0)
(0,0,0)
(2.28956871177872e-12,5.83136525294688e-12,-9.00059269504142e-10)
(4.93202392257905e-12,1.16444134625163e-11,-8.98056999188288e-10)
(8.13061655700062e-12,1.88291560603376e-11,-8.95129255696171e-10)
(9.04067513197205e-12,3.32059336984e-11,-8.9333382231291e-10)
(6.35104858259318e-12,6.75181231187968e-11,-8.95467630985262e-10)
(-3.58584140506661e-12,1.67818060117729e-10,-9.00993735126753e-10)
(-3.54178065276148e-12,4.5796508679594e-10,-8.79227715483069e-10)
(-8.02172786055708e-12,7.35437041108645e-10,-7.49591239868011e-10)
(-1.21505022395284e-11,1.08150324894921e-09,-5.4650758275028e-10)
(-1.41803114739608e-11,1.53292610433805e-09,-2.94371755313068e-10)
(0,0,0)
(0,0,0)
(0,0,0)
(0,0,0)
(0,0,0)
(0,0,0)
(5.00298891359528e-12,3.84896355729787e-12,-1.31145818234559e-09)
(8.59445750839055e-12,7.6748722251672e-12,-1.30893733230378e-09)
(1.1637627489872e-11,1.36419993246392e-11,-1.30549688327922e-09)
(1.30101501213858e-11,2.79867003049884e-11,-1.30172938621637e-09)
(1.20335173344973e-11,6.22648270063527e-11,-1.29502970845288e-09)
(7.26836050455102e-12,1.46115213466491e-10,-1.27808901246007e-09)
(3.49459007640395e-12,3.21282326565754e-10,-1.22217365224723e-09)
(-1.79718373263365e-12,5.30784668183087e-10,-1.07321361941073e-09)
(-6.83262574826238e-12,8.29436321674079e-10,-8.30472004244999e-10)
(-9.57943201578201e-12,1.23869128284684e-09,-4.76518583592287e-10)
(0,0,0)
(0,0,0)
(0,0,0)
(0,0,0)
(0,0,0)
(0,0,0)
(6.60683586812026e-12,1.98201110512987e-12,-1.81581374329367e-09)
(1.0404250153685e-11,4.10606654842311e-12,-1.81309852083647e-09)
(1.29190771633667e-11,7.85596294070238e-12,-1.80901956297602e-09)
(1.48674548265478e-11,1.67587189016283e-11,-1.8028471233032e-09)
(1.48262109491758e-11,3.73102154178846e-11,-1.78933530663366e-09)
(1.13382676684736e-11,8.27315287252411e-11,-1.75765855215653e-09)
(6.59913216708178e-12,1.67473896482292e-10,-1.68035296123475e-09)