/*--------------------------------*- C++ -*----------------------------------*\
| =========                 |                                                 |
| \\      /  F ield         | foam-extend: Open Source CFD                    |
|  \\    /   O peration     | Version:     4.0                                |
|   \\  /    A nd           | Web:         http://www.foam-extend.org         |
|    \\/     M anipulation  |                                                 |
\*---------------------------------------------------------------------------*/
FoamFile
{
    version 2.0;
    format ascii;
    class volVectorField;
    location "3850";
    object      H;
}
// * * * * * * * * * * * * * * * * * * * * * * * * * * * * * * * * * * * * * //

dimensions      [0 1 -1 0 0 0 0];

internalField   nonuniform List<vector>
4096
(
(0,0,0)
(0,0,0)
(0,0,0)
(0,0,0)
(0,0,0)
(0,0,0)
(0,0,0)
(0,0,0)
(0,0,0)
(0,0,0)
(0,0,0)
(0,0,0)
(0,0,0)
(0,0,0)
(0,0,0)
(0,0,0)
(0,0,0)
(0,0,0)
(0,0,0)
(0,0,0)
(0,0,0)
(0,0,0)
(0,0,0)
(0,0,0)
(0,0,0)
(0,0,0)
(0,0,0)
(0,0,0)
(0,0,0)
(0,0,0)
(0,0,0)
(0,0,0)
(0,0,0)
(0,0,0)
(0,0,0)
(0,0,0)
(0,0,0)
(0,0,0)
(0,0,0)
(0,0,0)
(0,0,0)
(0,0,0)
(0,0,0)
(0,0,0)
(0,0,0)
(0,0,0)
(0,0,0)
(0,0,0)
(0,0,0)
(0,0,0)
(0,0,0)
(0,0,0)
(0,0,0)
(0,0,0)
(0,0,0)
(0,0,0)
(0,0,0)
(0,0,0)
(0,0,0)
(0,0,0)
(0,0,0)
(0,0,0)
(0,0,0)
(0,0,0)
(0,0,0)
(0,0,0)
(0,0,0)
(0,0,0)
(0,0,0)
(0,0,0)
(0,0,0)
(0,0,0)
(0,0,0)
(0,0,0)
(0,0,0)
(0,0,0)
(0,0,0)
(0,0,0)
(0,0,0)
(0,0,0)
(0,0,0)
(0,0,0)
(0,0,0)
(0,0,0)
(0,0,0)
(0,0,0)
(0,0,0)
(0,0,0)
(0,0,0)
(0,0,0)
(0,0,0)
(0,0,0)
(0,0,0)
(0,0,0)
(0,0,0)
(0,0,0)
(0,0,0)
(0,0,0)
(0,0,0)
(0,0,0)
(0,0,0)
(0,0,0)
(0,0,0)
(0,0,0)
(0,0,0)
(0,0,0)
(0,0,0)
(0,0,0)
(0,0,0)
(0,0,0)
(0,0,0)
(0,0,0)
(0,0,0)
(0,0,0)
(0,0,0)
(0,0,0)
(0,0,0)
(0,0,0)
(0,0,0)
(0,0,0)
(0,0,0)
(0,0,0)
(0,0,0)
(0,0,0)
(0,0,0)
(0,0,0)
(0,0,0)
(0,0,0)
(0,0,0)
(0,0,0)
(0,0,0)
(0,0,0)
(0,0,0)
(0,0,0)
(0,0,0)
(0,0,0)
(0,0,0)
(0,0,0)
(0,0,0)
(0,0,0)
(0,0,0)
(0,0,0)
(0,0,0)
(0,0,0)
(0,0,0)
(0,0,0)
(0,0,0)
(0,0,0)
(0,0,0)
(0,0,0)
(0,0,0)
(0,0,0)
(0,0,0)
(0,0,0)
(0,0,0)
(0,0,0)
(0,0,0)
(0,0,0)
(0,0,0)
(0,0,0)
(0,0,0)
(0,0,0)
(0,0,0)
(0,0,0)
(0,0,0)
(0,0,0)
(0,0,0)
(0,0,0)
(0,0,0)
(0,0,0)
(0,0,0)
(0,0,0)
(0,0,0)
(0,0,0)
(0,0,0)
(0,0,0)
(0,0,0)
(0,0,0)
(0,0,0)
(0,0,0)
(0,0,0)
(0,0,0)
(0,0,0)
(0,0,0)
(0,0,0)
(0,0,0)
(0,0,0)
(0,0,0)
(0,0,0)
(0,0,0)
(0,0,0)
(0,0,0)
(0,0,0)
(0,0,0)
(0,0,0)
(0,0,0)
(0,0,0)
(0,0,0)
(0,0,0)
(0,0,0)
(0,0,0)
(0,0,0)
(0,0,0)
(0,0,0)
(0,0,0)
(0,0,0)
(0,0,0)
(0,0,0)
(0,0,0)
(0,0,0)
(0,0,0)
(0,0,0)
(0,0,0)
(0,0,0)
(0,0,0)
(0,0,0)
(0,0,0)
(0,0,0)
(0,0,0)
(0,0,0)
(0,0,0)
(0,0,0)
(0,0,0)
(0,0,0)
(0,0,0)
(0,0,0)
(0,0,0)
(0,0,0)
(0,0,0)
(0,0,0)
(0,0,0)
(0,0,0)
(0,0,0)
(0,0,0)
(0,0,0)
(0,0,0)
(0,0,0)
(0,0,0)
(0,0,0)
(0,0,0)
(0,0,0)
(0,0,0)
(0,0,0)
(0,0,0)
(0,0,0)
(0,0,0)
(0,0,0)
(0,0,0)
(0,0,0)
(0,0,0)
(0,0,0)
(0,0,0)
(0,0,0)
(0,0,0)
(0,0,0)
(0,0,0)
(0,0,0)
(0,0,0)
(0,0,0)
(0,0,0)
(0,0,0)
(0,0,0)
(0,0,0)
(0,0,0)
(0,0,0)
(0,0,0)
(0,0,0)
(0,0,0)
(0,0,0)
(0,0,0)
(0,0,0)
(0,0,0)
(0,0,0)
(0,0,0)
(0,0,0)
(0,0,0)
(0,0,0)
(0,0,0)
(0,0,0)
(0,0,0)
(0,0,0)
(0,0,0)
(0,0,0)
(0,0,0)
(0,0,0)
(0,0,0)
(0,0,0)
(0,0,0)
(0,0,0)
(0,0,0)
(0,0,0)
(0,0,0)
(0,0,0)
(0,0,0)
(0,0,0)
(0,0,0)
(0,0,0)
(0,0,0)
(0,0,0)
(0,0,0)
(0,0,0)
(0,0,0)
(0,0,0)
(0,0,0)
(0,0,0)
(0,0,0)
(0,0,0)
(0,0,0)
(0,0,0)
(0,0,0)
(0,0,0)
(0,0,0)
(0,0,0)
(0,0,0)
(0,0,0)
(0,0,0)
(0,0,0)
(0,0,0)
(0,0,0)
(0,0,0)
(0,0,0)
(0,0,0)
(0,0,0)
(0,0,0)
(0,0,0)
(0,0,0)
(0,0,0)
(0,0,0)
(0,0,0)
(0,0,0)
(0,0,0)
(0,0,0)
(0,0,0)
(0,0,0)
(0,0,0)
(0,0,0)
(0,0,0)
(0,0,0)
(0,0,0)
(0,0,0)
(0,0,0)
(0,0,0)
(0,0,0)
(0,0,0)
(0,0,0)
(0,0,0)
(0,0,0)
(0,0,0)
(0,0,0)
(0,0,0)
(0,0,0)
(0,0,0)
(0,0,0)
(0,0,0)
(0,0,0)
(0,0,0)
(0,0,0)
(0,0,0)
(0,0,0)
(0,0,0)
(0,0,0)
(0,0,0)
(0,0,0)
(0,0,0)
(0,0,0)
(0,0,0)
(0,0,0)
(0,0,0)
(0,0,0)
(0,0,0)
(0,0,0)
(0,0,0)
(0,0,0)
(0,0,0)
(0,0,0)
(0,0,0)
(0,0,0)
(0,0,0)
(0,0,0)
(0,0,0)
(0,0,0)
(0,0,0)
(0,0,0)
(0,0,0)
(0,0,0)
(0,0,0)
(0,0,0)
(0,0,0)
(0,0,0)
(0,0,0)
(0,0,0)
(0,0,0)
(0,0,0)
(0,0,0)
(0,0,0)
(0,0,0)
(0,0,0)
(0,0,0)
(0,0,0)
(0,0,0)
(0,0,0)
(0,0,0)
(0,0,0)
(0,0,0)
(0,0,0)
(0,0,0)
(0,0,0)
(0,0,0)
(0,0,0)
(0,0,0)
(0,0,0)
(0,0,0)
(0,0,0)
(0,0,0)
(0,0,0)
(0,0,0)
(0,0,0)
(0,0,0)
(0,0,0)
(0,0,0)
(0,0,0)
(0,0,0)
(0,0,0)
(0,0,0)
(0,0,0)
(0,0,0)
(0,0,0)
(0,0,0)
(0,0,0)
(0,0,0)
(0,0,0)
(0,0,0)
(0,0,0)
(0,0,0)
(0,0,0)
(0,0,0)
(0,0,0)
(0,0,0)
(0,0,0)
(0,0,0)
(0,0,0)
(0,0,0)
(0,0,0)
(0,0,0)
(0,0,0)
(0,0,0)
(0,0,0)
(0,0,0)
(0,0,0)
(0,0,0)
(0,0,0)
(0,0,0)
(0,0,0)
(0,0,0)
(0,0,0)
(0,0,0)
(0,0,0)
(0,0,0)
(0,0,0)
(0,0,0)
(0,0,0)
(0,0,0)
(0,0,0)
(0,0,0)
(0,0,0)
(0,0,0)
(0,0,0)
(0,0,0)
(0,0,0)
(0,0,0)
(0,0,0)
(0,0,0)
(0,0,0)
(0,0,0)
(0,0,0)
(0,0,0)
(0,0,0)
(0,0,0)
(0,0,0)
(0,0,0)
(0,0,0)
(0,0,0)
(0,0,0)
(0,0,0)
(0,0,0)
(0,0,0)
(0,0,0)
(0,0,0)
(0,0,0)
(0,0,0)
(0,0,0)
(0,0,0)
(0,0,0)
(0,0,0)
(0,0,0)
(0,0,0)
(0,0,0)
(0,0,0)
(0,0,0)
(0,0,0)
(0,0,0)
(0,0,0)
(0,0,0)
(0,0,0)
(0,0,0)
(0,0,0)
(0,0,0)
(0,0,0)
(0,0,0)
(0,0,0)
(0,0,0)
(0,0,0)
(0,0,0)
(0,0,0)
(0,0,0)
(0,0,0)
(0,0,0)
(0,0,0)
(0,0,0)
(0,0,0)
(0,0,0)
(0,0,0)
(0,0,0)
(0,0,0)
(0,0,0)
(0,0,0)
(0,0,0)
(0,0,0)
(0,0,0)
(0,0,0)
(0,0,0)
(0,0,0)
(0,0,0)
(0,0,0)
(0,0,0)
(0,0,0)
(0,0,0)
(0,0,0)
(0,0,0)
(0,0,0)
(0,0,0)
(0,0,0)
(0,0,0)
(0,0,0)
(0,0,0)
(0,0,0)
(0,0,0)
(0,0,0)
(0,0,0)
(0,0,0)
(0,0,0)
(0,0,0)
(0,0,0)
(0,0,0)
(0,0,0)
(0,0,0)
(0,0,0)
(0,0,0)
(0,0,0)
(0,0,0)
(0,0,0)
(0,0,0)
(0,0,0)
(0,0,0)
(0,0,0)
(0,0,0)
(0,0,0)
(0,0,0)
(0,0,0)
(0,0,0)
(0,0,0)
(0,0,0)
(0,0,0)
(0,0,0)
(0,0,0)
(0,0,0)
(0,0,0)
(0,0,0)
(0,0,0)
(0,0,0)
(0,0,0)
(0,0,0)
(0,0,0)
(0,0,0)
(0,0,0)
(0,0,0)
(0,0,0)
(0,0,0)
(0,0,0)
(0,0,0)
(0,0,0)
(0,0,0)
(0,0,0)
(0,0,0)
(0,0,0)
(0,0,0)
(0,0,0)
(0,0,0)
(0,0,0)
(0,0,0)
(0,0,0)
(0,0,0)
(0,0,0)
(0,0,0)
(0,0,0)
(0,0,0)
(0,0,0)
(0,0,0)
(0,0,0)
(0,0,0)
(0,0,0)
(0,0,0)
(0,0,0)
(0,0,0)
(0,0,0)
(0,0,0)
(0,0,0)
(0,0,0)
(0,0,0)
(0,0,0)
(0,0,0)
(0,0,0)
(0,0,0)
(0,0,0)
(0,0,0)
(0,0,0)
(0,0,0)
(0,0,0)
(0,0,0)
(0,0,0)
(0,0,0)
(0,0,0)
(0,0,0)
(0,0,0)
(0,0,0)
(0,0,0)
(0,0,0)
(0,0,0)
(0,0,0)
(0,0,0)
(0,0,0)
(0,0,0)
(0,0,0)
(0,0,0)
(0,0,0)
(0,0,0)
(0,0,0)
(0,0,0)
(0,0,0)
(0,0,0)
(0,0,0)
(0,0,0)
(0,0,0)
(0,0,0)
(0,0,0)
(0,0,0)
(0,0,0)
(0,0,0)
(0,0,0)
(0,0,0)
(0,0,0)
(0,0,0)
(0,0,0)
(0,0,0)
(0,0,0)
(0,0,0)
(0,0,0)
(0,0,0)
(0,0,0)
(0,0,0)
(0,0,0)
(0,0,0)
(0,0,0)
(0,0,0)
(0,0,0)
(0,0,0)
(0,0,0)
(0,0,0)
(0,0,0)
(0,0,0)
(0,0,0)
(0,0,0)
(0,0,0)
(0,0,0)
(0,0,0)
(0,0,0)
(0,0,0)
(0,0,0)
(0,0,0)
(0,0,0)
(0,0,0)
(0,0,0)
(0,0,0)
(0,0,0)
(0,0,0)
(0,0,0)
(0,0,0)
(0,0,0)
(0,0,0)
(0,0,0)
(0,0,0)
(0,0,0)
(0,0,0)
(0,0,0)
(0,0,0)
(0,0,0)
(0,0,0)
(0,0,0)
(0,0,0)
(0,0,0)
(0,0,0)
(0,0,0)
(0,0,0)
(0,0,0)
(0,0,0)
(0,0,0)
(0,0,0)
(0,0,0)
(0,0,0)
(0,0,0)
(0,0,0)
(0,0,0)
(0,0,0)
(0,0,0)
(0,0,0)
(0,0,0)
(0,0,0)
(0,0,0)
(0,0,0)
(0,0,0)
(0,0,0)
(0,0,0)
(0,0,0)
(0,0,0)
(0,0,0)
(0,0,0)
(0,0,0)
(0,0,0)
(0,0,0)
(0,0,0)
(0,0,0)
(0,0,0)
(0,0,0)
(0,0,0)
(0,0,0)
(0,0,0)
(0,0,0)
(0,0,0)
(0,0,0)
(0,0,0)
(0,0,0)
(0,0,0)
(0,0,0)
(0,0,0)
(0,0,0)
(0,0,0)
(0,0,0)
(0,0,0)
(0,0,0)
(0,0,0)
(0,0,0)
(0,0,0)
(0,0,0)
(0,0,0)
(0,0,0)
(0,0,0)
(0,0,0)
(0,0,0)
(0,0,0)
(0,0,0)
(0,0,0)
(0,0,0)
(0,0,0)
(0,0,0)
(0,0,0)
(0,0,0)
(0,0,0)
(0,0,0)
(0,0,0)
(0,0,0)
(0,0,0)
(0,0,0)
(0,0,0)
(0,0,0)
(0,0,0)
(0,0,0)
(0,0,0)
(0,0,0)
(0,0,0)
(0,0,0)
(0,0,0)
(0,0,0)
(0,0,0)
(0,0,0)
(0,0,0)
(0,0,0)
(0,0,0)
(0,0,0)
(0,0,0)
(0,0,0)
(0,0,0)
(0,0,0)
(0,0,0)
(0,0,0)
(0,0,0)
(0,0,0)
(0,0,0)
(0,0,0)
(0,0,0)
(0,0,0)
(0,0,0)
(0,0,0)
(0,0,0)
(0,0,0)
(0,0,0)
(0,0,0)
(0,0,0)
(0,0,0)
(0,0,0)
(1.17158084801923e-12,-1.37379606834177e-11,1.50808334560872e-11)
(1.49474718711946e-12,-2.87443710750368e-11,1.42883867997702e-11)
(1.40148984826879e-12,-4.83508464841467e-11,1.30800411009789e-11)
(2.85526344200001e-14,-7.72930448588117e-11,1.14824968791248e-11)
(-1.83458411985956e-12,-1.18905504151233e-10,9.09426351285579e-12)
(-1.66649753079642e-12,-1.83543011578781e-10,6.34648407179911e-12)
(-7.05863671306643e-13,-2.89550713876296e-10,3.64186349532908e-12)
(-2.10408000807154e-13,-4.67122587978128e-10,2.13566842846247e-12)
(-7.60229062003903e-13,-7.62805490600967e-10,1.24196451621555e-12)
(-1.69433503021631e-12,-1.17636894565722e-09,5.80431121209364e-13)
(0,0,0)
(0,0,0)
(0,0,0)
(0,0,0)
(0,0,0)
(0,0,0)
(2.2707266745257e-12,-1.3010368342749e-11,3.09020734265913e-11)
(3.5312171682013e-12,-2.76301694405009e-11,2.96272003639394e-11)
(3.05171656106447e-12,-4.63818866969542e-11,2.71854167484522e-11)
(-9.84600452242271e-14,-7.45163413792431e-11,2.36964152879465e-11)
(-3.23136887818026e-12,-1.16114469282558e-10,1.8807131279148e-11)
(-2.98778103571458e-12,-1.81193457488397e-10,1.32349480700225e-11)
(-1.95539904657638e-12,-2.88612785400076e-10,8.39595592201605e-12)
(-1.35137399383427e-12,-4.66983289123199e-10,5.43740958709843e-12)
(-1.83457071639342e-12,-7.62876566287848e-10,3.31584109023769e-12)
(-2.68658915308243e-12,-1.17652738601174e-09,1.52176728218663e-12)
(0,0,0)
(0,0,0)
(0,0,0)
(0,0,0)
(0,0,0)
(0,0,0)
(3.28917708054892e-12,-1.19368559720146e-11,5.00046289022096e-11)
(4.43285590136846e-12,-2.53458122730364e-11,4.88973175148082e-11)
(3.01071193986668e-12,-4.29907593435946e-11,4.5914965992068e-11)
(-4.58762375860835e-13,-6.99201491310062e-11,4.09077501780933e-11)
(-3.25513168442259e-12,-1.10946218769286e-10,3.38859338151694e-11)
(-3.49782392627146e-12,-1.76626504185879e-10,2.56222085785135e-11)
(-2.47262064245344e-12,-2.86136490328317e-10,1.78855589731862e-11)
(-1.05349828309784e-12,-4.66334726564217e-10,1.26390003752451e-11)
(-2.00674429446408e-12,-7.62917974942124e-10,8.59578829253244e-12)
(-2.82227957230387e-12,-1.17646294608793e-09,4.19418492937672e-12)
(0,0,0)
(0,0,0)
(0,0,0)
(0,0,0)
(0,0,0)
(0,0,0)
(4.34513149104495e-12,-1.07102172060867e-11,7.61867486200731e-11)
(5.79837748691112e-12,-2.21291996366667e-11,7.5441115465741e-11)
(4.18419281180565e-12,-3.79268037855922e-11,7.26523143824843e-11)
(-3.66703839595699e-14,-6.27915568623337e-11,6.72354041481879e-11)
(-3.09373153146246e-12,-1.02262015869378e-10,5.90078895432867e-11)
(-3.90514651262491e-12,-1.67933357759321e-10,4.90971105739058e-11)
(-2.80327084075985e-12,-2.80019269517874e-10,3.88047963183329e-11)
(-5.67730100268468e-13,-4.63695936581448e-10,3.00911793909171e-11)
(-1.48997987969929e-12,-7.61193917995493e-10,2.14927545309485e-11)
(-1.87374671671182e-12,-1.17465002272178e-09,1.13304435519073e-11)
(0,0,0)
(0,0,0)
(0,0,0)
(0,0,0)
(0,0,0)
(0,0,0)
(4.28062494353675e-12,-8.75677185892385e-12,1.1664956024336e-10)
(6.76376597226531e-12,-1.82185289960133e-11,1.16018375002237e-10)
(5.79344274811602e-12,-3.16080616508007e-11,1.13825563913366e-10)
(1.60242357956868e-12,-5.34491128213825e-11,1.09048782687383e-10)
(-2.14402234140528e-12,-9.03986055757339e-11,1.01372569181321e-10)
(-3.46354011998744e-12,-1.54867439652646e-10,9.14277448747753e-11)
(-1.15388358606661e-12,-2.6905378971407e-10,7.9645992372508e-11)
(1.00725518210154e-12,-4.56860211960234e-10,6.4175399537619e-11)
(2.24229217406477e-13,-7.54340634993156e-10,4.58764113623385e-11)
(3.38688398526107e-13,-1.16638295499046e-09,2.4152494832386e-11)
(0,0,0)
(0,0,0)
(0,0,0)
(0,0,0)
(0,0,0)
(0,0,0)
(3.63811900936741e-12,-6.49565053863802e-12,1.8135944400887e-10)
(5.86535103730987e-12,-1.41346296002975e-11,1.8047468833837e-10)
(5.21172185823164e-12,-2.49363347381167e-11,1.78679090876775e-10)
(2.39978454224815e-12,-4.35628177864961e-11,1.74733470646369e-10)
(-4.87764794577313e-13,-7.74127987966337e-11,1.68208222268601e-10)
(-1.93989825007046e-12,-1.39895334139611e-10,1.58339304884673e-10)
(-4.51522454878873e-13,-2.54755037050149e-10,1.43368442589551e-10)
(7.18443986309833e-13,-4.41448927952399e-10,1.19942305097562e-10)
(5.77938282838053e-13,-7.35724646312151e-10,8.71813225169303e-11)
(1.11829585650131e-12,-1.14490138721914e-09,4.61800405432015e-11)
(0,0,0)
(0,0,0)
(0,0,0)
(0,0,0)
(0,0,0)
(0,0,0)
(3.28907645526141e-12,-4.68187634535608e-12,2.83970699466233e-10)
(4.9139038515716e-12,-1.08499386742934e-11,2.83570856657381e-10)
(4.3950050611027e-12,-1.91228932158477e-11,2.82555780192175e-10)
(1.90039248415746e-12,-3.44153451809449e-11,2.79684436664956e-10)
(-7.7751517217705e-13,-6.42929029121797e-11,2.74002725023524e-10)
(-1.45158535237151e-12,-1.22503560188388e-10,2.63371328908134e-10)
(-1.49986870763726e-12,-2.32649755052138e-10,2.42510315457233e-10)
(-7.48957595405868e-13,-4.11101816307724e-10,2.09058573466122e-10)
(-1.15527112909616e-13,-6.9697757472919e-10,1.5618056819875e-10)
(1.06680569829847e-12,-1.10046193695825e-09,8.48638188151151e-11)
(0,0,0)
(0,0,0)
(0,0,0)
(0,0,0)
(0,0,0)
(0,0,0)
(1.77900017528607e-12,-3.43643659050583e-12,4.58460853884061e-10)
(2.46780942762856e-12,-8.33472731386163e-12,4.58369407342093e-10)
(2.11268538143663e-12,-1.43973587304616e-11,4.57274968566992e-10)
(-1.25197173770248e-13,-2.69271144729165e-11,4.54621983881639e-10)
(-2.70781766900149e-12,-5.32398994453221e-11,4.48391480121643e-10)
(-3.59428654437091e-12,-1.04686034995293e-10,4.35335937317912e-10)
(-3.4459237410174e-12,-2.00112385644322e-10,4.08637068864113e-10)
(-2.17818955094975e-12,-3.58846600420706e-10,3.59168505182227e-10)
(-1.13335683831709e-12,-6.26261044111261e-10,2.77653713519587e-10)
(-1.67795170599847e-13,-1.01584592915782e-09,1.5720032618881e-10)
(0,0,0)
(0,0,0)
(0,0,0)
(0,0,0)
(0,0,0)
(0,0,0)
(-2.2756508713297e-13,-2.34827816043912e-12,7.51751165592567e-10)
(-1.52523509962381e-12,-5.75097652277682e-12,7.51787970542286e-10)
(-1.80618523531532e-12,-9.97386210772649e-12,7.50261881299573e-10)
(-2.91081401254318e-12,-1.92766522914076e-11,7.46819542067079e-10)
(-4.37815796728958e-12,-3.97173214706623e-11,7.38819738239314e-10)
(-5.11513827508039e-12,-7.86914664598287e-11,7.21670560144345e-10)
(-4.55315874794401e-12,-1.50325814593968e-10,6.86786883399539e-10)
(-3.09993836723037e-12,-2.76665151363087e-10,6.2021604406208e-10)
(-1.41829235968945e-12,-5.04929200057435e-10,5.01871559319678e-10)
(-1.05804715217243e-12,-8.57509070080063e-10,3.0191710295517e-10)
(0,0,0)
(0,0,0)
(0,0,0)
(0,0,0)
(0,0,0)
(0,0,0)
(-1.05874775142677e-12,-1.44442561355928e-12,1.1631988192231e-09)
(-3.18865166622819e-12,-3.00566499446494e-12,1.16265869359191e-09)
(-3.55057901433642e-12,-5.13534431051102e-12,1.16116652803904e-09)
(-4.838155652704e-12,-9.98291339999966e-12,1.15723556310027e-09)
(-6.17366525649134e-12,-2.13258967497108e-11,1.14816484154218e-09)
(-6.6646692320251e-12,-4.26779492640588e-11,1.12831720611798e-09)
(-5.49506586896419e-12,-8.212509051466e-11,1.08743952825032e-09)
(-3.78420965113894e-12,-1.56611448451654e-10,1.00767400221265e-09)
(-2.12711628306947e-12,-3.03071594283177e-10,8.53333000108857e-10)
(-1.82544806222962e-12,-5.53673324702048e-10,5.52290838585808e-10)
(0,0,0)
(0,0,0)
(0,0,0)
(0,0,0)
(0,0,0)
(0,0,0)
(0,0,0)
(0,0,0)
(0,0,0)
(0,0,0)
(0,0,0)
(0,0,0)
(0,0,0)
(0,0,0)
(0,0,0)
(0,0,0)
(0,0,0)
(0,0,0)
(0,0,0)
(0,0,0)
(0,0,0)
(0,0,0)
(0,0,0)
(0,0,0)
(0,0,0)
(0,0,0)
(0,0,0)
(0,0,0)
(0,0,0)
(0,0,0)
(0,0,0)
(0,0,0)
(0,0,0)
(0,0,0)
(0,0,0)
(0,0,0)
(0,0,0)
(0,0,0)
(0,0,0)
(0,0,0)
(0,0,0)
(0,0,0)
(0,0,0)
(0,0,0)
(0,0,0)
(0,0,0)
(0,0,0)
(0,0,0)
(0,0,0)
(0,0,0)
(0,0,0)
(0,0,0)
(0,0,0)
(0,0,0)
(0,0,0)
(0,0,0)
(0,0,0)
(0,0,0)
(0,0,0)
(0,0,0)
(0,0,0)
(0,0,0)
(0,0,0)
(0,0,0)
(0,0,0)
(0,0,0)
(0,0,0)
(0,0,0)
(0,0,0)
(0,0,0)
(0,0,0)
(0,0,0)
(0,0,0)
(0,0,0)
(0,0,0)
(0,0,0)
(0,0,0)
(0,0,0)
(0,0,0)
(0,0,0)
(0,0,0)
(0,0,0)
(0,0,0)
(0,0,0)
(0,0,0)
(0,0,0)
(0,0,0)
(0,0,0)
(0,0,0)
(0,0,0)
(0,0,0)
(0,0,0)
(0,0,0)
(0,0,0)
(0,0,0)
(0,0,0)
(0,0,0)
(0,0,0)
(0,0,0)
(0,0,0)
(0,0,0)
(0,0,0)
(1.2364351636649e-12,-2.68754687835055e-11,2.75979565710509e-11)
(1.58889125137006e-12,-5.55455244621244e-11,2.66392560843558e-11)
(1.03007428291282e-12,-9.15280757836968e-11,2.42660367118763e-11)
(-3.59917478891194e-13,-1.43228831325213e-10,2.09135416284998e-11)
(-1.87783954752988e-12,-2.17130177655612e-10,1.60111463626172e-11)
(-1.31143104463073e-12,-3.29559082465759e-10,9.85600279175921e-12)
(-1.37597080535807e-13,-5.10719363050017e-10,4.19316875406089e-12)
(5.43997056389915e-13,-8.18315615170155e-10,1.26657801971646e-12)
(-2.76199806780188e-14,-1.40983502118571e-09,6.33304358433046e-13)
(-9.55463554717732e-13,-2.7668336740108e-09,4.63770865471988e-13)
(0,0,0)
(0,0,0)
(0,0,0)
(0,0,0)
(0,0,0)
(0,0,0)
(2.47208736644336e-12,-2.53208273325929e-11,5.62863814009794e-11)
(3.68864361623803e-12,-5.27612055861146e-11,5.46236920289108e-11)
(3.14959066819182e-12,-8.75530765934809e-11,5.04471061661014e-11)
(1.9463171535885e-13,-1.37784349032919e-10,4.35510936928359e-11)
(-2.82743618231704e-12,-2.11200798689668e-10,3.33867907277508e-11)
(-2.71574219024062e-12,-3.24706468921648e-10,2.06246530653399e-11)
(-1.47314778355744e-12,-5.08921496266766e-10,9.30233819266835e-12)
(1.21631944510476e-13,-8.19044750768383e-10,3.71987339769235e-12)
(9.11746315813124e-16,-1.4112588373373e-09,2.25735575955362e-12)
(-1.22926179481e-12,-2.76835989961612e-09,1.55495361415484e-12)
(0,0,0)
(0,0,0)
(0,0,0)
(0,0,0)
(0,0,0)
(0,0,0)
(3.16984970202284e-12,-2.25143615204413e-11,9.2057966128031e-11)
(4.1985947877415e-12,-4.73961021170416e-11,8.98069501719167e-11)
(2.95397219587441e-12,-7.98624518400548e-11,8.43082572189205e-11)
(-5.65538281618897e-13,-1.27296115726117e-10,7.42953786792941e-11)
(-3.67560934774364e-12,-1.9912641176799e-10,5.94837953218612e-11)
(-4.45432074751437e-12,-3.14494166059424e-10,4.02449906590732e-11)
(-3.34328285485469e-12,-5.04912700204447e-10,2.15531745226398e-11)
(3.50923816669933e-13,-8.20579980215977e-10,1.28736509290992e-11)
(6.70802121995647e-13,-1.41397908450781e-09,9.579431521767e-12)
(-4.41018009684873e-13,-2.77034404996356e-09,5.57891131683269e-12)
(0,0,0)
(0,0,0)
(0,0,0)
(0,0,0)
(0,0,0)
(0,0,0)
(3.13731929821494e-12,-1.89847501831708e-11,1.40993132166623e-10)
(4.67650792951373e-12,-4.03537923297325e-11,1.38557891660838e-10)
(3.28236091129771e-12,-6.90081519937104e-11,1.32710777473254e-10)
(-1.15159982001033e-12,-1.11732190114443e-10,1.21423591269846e-10)
(-5.0463628557082e-12,-1.79496416513041e-10,1.04018271981955e-10)
(-6.6787503637228e-12,-2.9497788439406e-10,8.1241096411531e-11)
(-5.05513371717834e-12,-4.94748721086717e-10,5.66005478091696e-11)
(1.19497013851202e-12,-8.20759007675899e-10,4.26494626147829e-11)
(1.81904809781523e-12,-1.41514427298911e-09,3.17928483025927e-11)
(1.18962910547311e-12,-2.76990998753929e-09,1.75764763468366e-11)
(0,0,0)
(0,0,0)
(0,0,0)
(0,0,0)
(0,0,0)
(0,0,0)
(2.65068886437253e-12,-1.52529571057971e-11,2.13089851962294e-10)
(4.87267766541773e-12,-3.29120534681916e-11,2.10878886434665e-10)
(3.89849706141056e-12,-5.63774156844614e-11,2.05818872078497e-10)
(-6.07657949252854e-13,-9.22998851346232e-11,1.95904871393322e-10)
(-5.18500481396007e-12,-1.53136635709733e-10,1.80504099950983e-10)
(-6.65389313082939e-12,-2.63408784662419e-10,1.61274717181003e-10)
(1.79565849953994e-14,-4.698013133544e-10,1.42859217224611e-10)
(3.89495934972815e-12,-8.13587047131918e-10,1.11301595487559e-10)
(3.33215706593848e-12,-1.40750113055102e-09,7.90527830434595e-11)
(3.00961545939895e-12,-2.75859412721194e-09,4.17799503418716e-11)
(0,0,0)
(0,0,0)
(0,0,0)
(0,0,0)
(0,0,0)
(0,0,0)
(2.70910048658684e-12,-1.1655889329082e-11,3.24120884902598e-10)
(4.37625757289643e-12,-2.54602553197962e-11,3.22113830431066e-10)
(3.3439005663599e-12,-4.34308065914696e-11,3.18319816735701e-10)
(-2.22439685532065e-13,-7.21975947665202e-11,3.11013156448283e-10)
(-3.73874329508903e-12,-1.25584197135448e-10,2.99469173795706e-10)
(-4.36080990617502e-12,-2.31582225169018e-10,2.82354373983122e-10)
(8.69333039030933e-13,-4.4770316916118e-10,2.58501109452429e-10)
(3.13231492216299e-12,-7.90355006110943e-10,2.15031541105383e-10)
(2.83214867359735e-12,-1.37692439098488e-09,1.55206692567899e-10)
(2.85888613917235e-12,-2.72203455337542e-09,8.19813955088087e-11)
(0,0,0)
(0,0,0)
(0,0,0)
(0,0,0)
(0,0,0)
(0,0,0)
(2.44347950926108e-12,-8.32013073402934e-12,4.99402603689627e-10)
(3.4137689563488e-12,-1.86533751726711e-11,4.98241807956892e-10)
(2.54081410294193e-12,-3.2097923169949e-11,4.96010515101801e-10)
(9.38734175531925e-14,-5.48144414146997e-11,4.91649567455952e-10)
(-1.19912252360125e-12,-9.95630068675242e-11,4.84315380333155e-10)
(1.59190290542097e-12,-1.9506501575111e-10,4.69362899295712e-10)
(-5.85496124330829e-13,-4.09369486997658e-10,4.2917793404184e-10)
(-1.2616821528564e-13,-7.36955027640628e-10,3.75353691102133e-10)
(4.84691653185738e-13,-1.30780445983239e-09,2.77421825984163e-10)
(1.31461671384907e-12,-2.64261861754922e-09,1.49624556721731e-10)
(0,0,0)
(0,0,0)
(0,0,0)
(0,0,0)
(0,0,0)
(0,0,0)
(7.82288287188561e-13,-5.62300520315671e-12,8.01990335188762e-10)
(9.78497411645877e-13,-1.31907511221543e-11,8.01336173008288e-10)
(3.42173444059378e-13,-2.35432608306677e-11,7.99322405800045e-10)
(-1.54515559528464e-12,-4.31981875633773e-11,7.95588692067268e-10)
(-3.1748528399558e-12,-8.45078652507089e-11,7.87848698955596e-10)
(-2.88998662595716e-12,-1.73206837077947e-10,7.70613461834042e-10)
(-3.76393110941927e-12,-3.54844823821789e-10,7.27901441829463e-10)
(-2.84484694617129e-12,-6.38387774112106e-10,6.38703978126579e-10)
(-2.01181356129004e-12,-1.17951379803953e-09,4.91788384069068e-10)
(-1.30432806048969e-12,-2.4922056455621e-09,2.7964226092903e-10)
(0,0,0)
(0,0,0)
(0,0,0)
(0,0,0)
(0,0,0)
(0,0,0)
(-1.16822258373262e-12,-3.74686168228288e-12,1.38903250834916e-09)
(-2.74445738522215e-12,-8.97342176858374e-12,1.38856344988745e-09)
(-3.20236380003127e-12,-1.65707260330523e-11,1.38589865058749e-09)
(-4.20474907618024e-12,-3.19848906994475e-11,1.38063962805187e-09)
(-5.62040459326312e-12,-6.51982267948498e-11,1.36902703008639e-09)
(-6.2449787260826e-12,-1.3308661601959e-10,1.34295345195861e-09)
(-6.18304348976368e-12,-2.63620414108104e-10,1.2851330528841e-09)
(-4.80915653624717e-12,-4.8879587900128e-10,1.16781241025577e-09)
(-3.3214417694998e-12,-9.64969603888166e-10,9.60156929214668e-10)
(-2.97668957502298e-12,-2.21046919642186e-09,6.00601010625792e-10)
(0,0,0)
(0,0,0)
(0,0,0)
(0,0,0)
(0,0,0)
(0,0,0)
(-1.9630477337971e-12,-2.01705243023412e-12,2.74213862825799e-09)
(-4.70215110782889e-12,-4.67330030257791e-12,2.74179317463296e-09)
(-4.7549583860823e-12,-8.85719349182528e-12,2.73906151470844e-09)
(-5.75034749461439e-12,-1.72008289957505e-11,2.73229421861762e-09)
(-7.65192658201187e-12,-3.57483838524529e-11,2.71779735732216e-09)
(-8.46494062842958e-12,-7.26731096520599e-11,2.6854970556227e-09)
(-7.85463034598603e-12,-1.43018475340859e-10,2.61614363744783e-09)
(-6.05465599896974e-12,-2.77648480089468e-10,2.47663222475371e-09)
(-4.15654904319971e-12,-6.02169204270744e-10,2.20259009699599e-09)
(-3.20793417834376e-12,-1.60680341560355e-09,1.60366172885218e-09)
(0,0,0)
(0,0,0)
(0,0,0)
(0,0,0)
(0,0,0)
(0,0,0)
(0,0,0)
(0,0,0)
(0,0,0)
(0,0,0)
(0,0,0)
(0,0,0)
(0,0,0)
(0,0,0)
(0,0,0)
(0,0,0)
(0,0,0)
(0,0,0)
(0,0,0)
(0,0,0)
(0,0,0)
(0,0,0)
(0,0,0)
(0,0,0)
(0,0,0)
(0,0,0)
(0,0,0)
(0,0,0)
(0,0,0)
(0,0,0)
(0,0,0)
(0,0,0)
(0,0,0)
(0,0,0)
(0,0,0)
(0,0,0)
(0,0,0)
(0,0,0)
(0,0,0)
(0,0,0)
(0,0,0)
(0,0,0)
(0,0,0)
(0,0,0)
(0,0,0)
(0,0,0)
(0,0,0)
(0,0,0)
(0,0,0)
(0,0,0)
(0,0,0)
(0,0,0)
(0,0,0)
(0,0,0)
(0,0,0)
(0,0,0)
(0,0,0)
(0,0,0)
(0,0,0)
(0,0,0)
(0,0,0)
(0,0,0)
(0,0,0)
(0,0,0)
(0,0,0)
(0,0,0)
(0,0,0)
(0,0,0)
(0,0,0)
(0,0,0)
(0,0,0)
(0,0,0)
(0,0,0)
(0,0,0)
(0,0,0)
(0,0,0)
(0,0,0)
(0,0,0)
(0,0,0)
(0,0,0)
(0,0,0)
(0,0,0)
(0,0,0)
(0,0,0)
(0,0,0)
(0,0,0)
(0,0,0)
(0,0,0)
(0,0,0)
(0,0,0)
(0,0,0)
(0,0,0)
(0,0,0)
(0,0,0)
(0,0,0)
(0,0,0)
(0,0,0)
(0,0,0)
(0,0,0)
(0,0,0)
(0,0,0)
(0,0,0)
(6.40494198907942e-13,-3.50474082826183e-11,3.79593465280924e-11)
(1.17779174813017e-12,-7.48373491509279e-11,3.68800439283161e-11)
(4.07570176934662e-13,-1.23577247650125e-10,3.3586685956235e-11)
(-9.02004505225602e-13,-1.89089272633314e-10,2.78270323171098e-11)
(-1.65207494328018e-12,-2.80437186043146e-10,1.91726202638366e-11)
(-5.0121055065934e-13,-4.11590071869675e-10,8.80710719804482e-12)
(9.91126869906509e-13,-6.06396987464481e-10,-1.80235560686e-13)
(1.90640631565276e-12,-8.88590807902272e-10,-3.57393103326171e-12)
(1.56572966455696e-12,-1.29348472282545e-09,-2.87389410471017e-12)
(1.03453291509033e-12,-1.78801913251632e-09,-1.28662595761773e-12)
(0,0,0)
(0,0,0)
(0,0,0)
(0,0,0)
(0,0,0)
(0,0,0)
(1.32831092621202e-12,-3.33167089365736e-11,7.7313428122821e-11)
(2.50012600901162e-12,-7.10342580733731e-11,7.52979672512511e-11)
(2.35497838745607e-12,-1.17747761604847e-10,6.91846833225354e-11)
(-1.29298625995184e-13,-1.81036841344827e-10,5.78235264780494e-11)
(-2.13968544125835e-12,-2.71132512200308e-10,4.02592404276397e-11)
(-1.60573018030547e-12,-4.04238737082129e-10,1.7523301401256e-11)
(1.0052094851778e-13,-6.05224320460132e-10,-3.55308047125641e-12)
(3.11937903101764e-12,-8.92075716549741e-10,-9.13641385403334e-12)
(3.42356106248586e-12,-1.29757377141216e-09,-6.05526887977781e-12)
(2.30984216743991e-12,-1.79145487075698e-09,-2.15259654549643e-12)
(0,0,0)
(0,0,0)
(0,0,0)
(0,0,0)
(0,0,0)
(0,0,0)
(1.89125431892831e-12,-2.99971821474246e-11,1.2517255071016e-10)
(2.65497795433964e-12,-6.36070896983337e-11,1.21676892980432e-10)
(2.11255088951573e-12,-1.05754683309379e-10,1.13036847626653e-10)
(-1.31788053585687e-12,-1.64116556160712e-10,9.69701597482877e-11)
(-4.06679994014849e-12,-2.50481948215828e-10,7.10886190437731e-11)
(-5.27878627674749e-12,-3.86695396234422e-10,3.39098397279682e-11)
(-4.82773837869425e-12,-6.03831816918799e-10,-6.88788022605919e-12)
(3.82417068396956e-12,-9.01327194322936e-10,-1.117732133204e-11)
(5.8365108086917e-12,-1.30680465299264e-09,-3.51433243646074e-12)
(4.70383088280713e-12,-1.79811492471045e-09,5.59211473808612e-13)
(0,0,0)
(0,0,0)
(0,0,0)
(0,0,0)
(0,0,0)
(0,0,0)
(1.84076672545058e-12,-2.4973997988178e-11,1.88329215693334e-10)
(3.08188325658187e-12,-5.33821706911148e-11,1.84146335394572e-10)
(1.93881080528967e-12,-8.88028643037312e-11,1.74705199158113e-10)
(-3.17858551332495e-12,-1.3851172197766e-10,1.56547883772474e-10)
(-8.62896808961434e-12,-2.15132641866428e-10,1.25720677657208e-10)
(-1.3607301491226e-11,-3.4857744684463e-10,7.78844727163095e-11)
(-1.60514562547193e-11,-5.97166354265948e-10,1.26021601473982e-11)
(4.87962390644782e-12,-9.18333802367288e-10,1.35499053959029e-11)
(8.39227761628331e-12,-1.31971659895841e-09,1.99410188549546e-11)
(7.45024512343824e-12,-1.80490662978331e-09,1.43860109971523e-11)
(0,0,0)
(0,0,0)
(0,0,0)
(0,0,0)
(0,0,0)
(0,0,0)
(1.26458661570288e-12,-1.95587327061919e-11,2.7728659363893e-10)
(2.48089387374495e-12,-4.21568700112318e-11,2.7307882576394e-10)
(8.65888651846564e-13,-6.89951723195619e-11,2.64577143740934e-10)
(-5.3091768748689e-12,-1.06252852168218e-10,2.48944710351097e-10)
(-1.35080606164043e-11,-1.64981022251315e-10,2.2317074908174e-10)
(-2.0064952668587e-11,-2.7295470766387e-10,1.91072880353658e-10)
(9.47743412726881e-12,-5.28570853712943e-10,1.92878605992948e-10)
(1.291173077229e-11,-9.35739184261702e-10,1.26657364986634e-10)
(1.0028250203268e-11,-1.3259617751313e-09,8.85600232588691e-11)
(8.22999196421816e-12,-1.79943634432833e-09,4.74139302263375e-11)
(0,0,0)
(0,0,0)
(0,0,0)
(0,0,0)
(0,0,0)
(0,0,0)
(1.38039636274945e-12,-1.43211539191677e-11,4.06120736907253e-10)
(1.36339112097977e-12,-3.10551464937847e-11,4.02518180089124e-10)
(-6.82322568016584e-13,-4.96132242609318e-11,3.96008297629485e-10)
(-6.06161038406972e-12,-7.45452692937211e-11,3.85370551227459e-10)
(-1.26451337504484e-11,-1.17334097580052e-10,3.68716484685821e-10)
(-1.70247547938735e-11,-2.15631625571453e-10,3.45930990843169e-10)
(6.00521922370915e-12,-5.29061712440359e-10,3.38725769217844e-10)
(9.55718498763384e-12,-9.23791693877182e-10,2.70186059507388e-10)
(6.93751458197511e-12,-1.29696555787731e-09,1.89856165436219e-10)
(5.42434582118138e-12,-1.75926256565801e-09,9.84736336805738e-11)
(0,0,0)
(0,0,0)
(0,0,0)
(0,0,0)
(0,0,0)
(0,0,0)
(9.07149712756997e-13,-9.53726455434173e-12,5.92064122923997e-10)
(1.82437758668452e-13,-2.10603242837668e-11,5.89957305801069e-10)
(-1.65290059009087e-12,-3.32342472384325e-11,5.86407443775747e-10)
(-4.1881933113471e-12,-4.81534895702316e-11,5.8254922054871e-10)
(-1.30178310215826e-12,-7.18808872656168e-11,5.81372901643634e-10)
(1.9918689485866e-11,-1.33222317200795e-10,5.84911978632121e-10)
(-1.2859163608256e-12,-4.88151925104586e-10,5.01890307236868e-10)
(-7.61556626239739e-13,-8.63646598310285e-10,4.84371355225905e-10)
(-8.70087647275858e-15,-1.21361978346768e-09,3.37682235778432e-10)
(5.26201447947726e-13,-1.66422056170409e-09,1.74075414561767e-10)
(0,0,0)
(0,0,0)
(0,0,0)
(0,0,0)
(0,0,0)
(0,0,0)
(-4.39693051882847e-13,-6.15377924023421e-12,8.6490269906197e-10)
(-1.22506473382672e-12,-1.39016081448339e-11,8.63990779619233e-10)
(-2.89664762095385e-12,-2.31525370545852e-11,8.6209024923168e-10)
(-5.0184593475582e-12,-3.79724308559579e-11,8.60329912240433e-10)
(-5.24925417400861e-12,-7.16957783606834e-11,8.60416567022098e-10)
(-2.98187679505911e-13,-1.66754995060814e-10,8.62347890057373e-10)
(-5.79087712055653e-12,-4.44694476252096e-10,8.37875171688762e-10)
(-5.52114800051413e-12,-7.131566141594e-10,7.13760470214609e-10)
(-4.40988457294816e-12,-1.04860509479821e-09,5.2055139373205e-10)
(-3.39851627055043e-12,-1.4884035265491e-09,2.8067778583755e-10)
(0,0,0)
(0,0,0)
(0,0,0)
(0,0,0)
(0,0,0)
(0,0,0)
(-2.42897337453097e-12,-4.05783889147253e-12,1.26395034001866e-09)
(-4.37977955188704e-12,-9.22998746499382e-12,1.2627888650316e-09)
(-5.65687380490879e-12,-1.65026279154866e-11,1.26012281963963e-09)
(-7.37621281436905e-12,-3.06635577191285e-11,1.25634880979327e-09)
(-8.99666940731149e-12,-6.41150785391558e-11,1.24872054473443e-09)
(-8.83808601897359e-12,-1.43850731006283e-10,1.22953235620063e-09)
(-9.46433962844086e-12,-3.11683341904041e-10,1.17378132687623e-09)
(-8.30107440900465e-12,-5.14453735850641e-10,1.03064008342403e-09)
(-6.56592279655209e-12,-8.0462333165557e-10,7.9800217391004e-10)
(-6.04145976786739e-12,-1.20375507717218e-09,4.58333488845187e-10)
(0,0,0)
(0,0,0)
(0,0,0)
(0,0,0)
(0,0,0)
(0,0,0)
(-3.6346465401642e-12,-1.78622433317813e-12,1.75440559596702e-09)
(-6.64379148603238e-12,-4.69750865285771e-12,1.75351807903669e-09)
(-6.84485578703983e-12,-9.39026791108487e-12,1.75012273784288e-09)
(-8.45431519526553e-12,-1.8045960361835e-11,1.74365364859332e-09)
(-1.11000087339635e-11,-3.79592582522454e-11,1.72985182858656e-09)
(-1.17846321067968e-11,-8.11246048390925e-11,1.69690025747303e-09)
(-1.1361692991426e-11,-1.62415682214293e-10,1.62132049293812e-09)