/*--------------------------------*- C++ -*----------------------------------*\
| =========                 |                                                 |
| \\      /  F ield         | foam-extend: Open Source Cstd::filesystem::create_directory();FD                    |
|  \\    /   O peration     | Version:     4.0                                |
|   \\  /    A nd           | Web:         http://www.foam-extend.org         |
|    \\/     M anipulation  |                                                 |
\*---------------------------------------------------------------------------*/
FoamFile
{
    version 2.0;
    format ascii;
    class volVectorField;
    location "Data/406";
    object      H;
}
// * * * * * * * * * * * * * * * * * * * * * * * * * * * * * * * * * * * * * //

dimensions      [0 1 -1 0 0 0 0];

internalField   nonuniform List<vector>
4096
(
(0,0,0)
(0,0,0)
(0,0,0)
(0,0,0)
(0,0,0)
(0,0,0)
(0,0,0)
(0,0,0)
(0,0,0)
(0,0,0)
(0,0,0)
(0,0,0)
(0,0,0)
(0,0,0)
(0,0,0)
(0,0,0)
(0,0,0)
(0,0,0)
(0,0,0)
(0,0,0)
(0,0,0)
(0,0,0)
(0,0,0)
(0,0,0)
(0,0,0)
(0,0,0)
(0,0,0)
(0,0,0)
(0,0,0)
(0,0,0)
(0,0,0)
(0,0,0)
(0,0,0)
(0,0,0)
(0,0,0)
(0,0,0)
(0,0,0)
(0,0,0)
(0,0,0)
(0,0,0)
(0,0,0)
(0,0,0)
(0,0,0)
(0,0,0)
(0,0,0)
(0,0,0)
(0,0,0)
(0,0,0)
(0,0,0)
(0,0,0)
(0,0,0)
(0,0,0)
(0,0,0)
(0,0,0)
(0,0,0)
(0,0,0)
(0,0,0)
(0,0,0)
(0,0,0)
(0,0,0)
(0,0,0)
(0,0,0)
(0,0,0)
(0,0,0)
(0,0,0)
(0,0,0)
(0,0,0)
(0,0,0)
(0,0,0)
(0,0,0)
(0,0,0)
(0,0,0)
(0,0,0)
(0,0,0)
(0,0,0)
(0,0,0)
(0,0,0)
(0,0,0)
(0,0,0)
(0,0,0)
(0,0,0)
(0,0,0)
(0,0,0)
(0,0,0)
(0,0,0)
(0,0,0)
(0,0,0)
(0,0,0)
(0,0,0)
(0,0,0)
(0,0,0)
(0,0,0)
(0,0,0)
(0,0,0)
(0,0,0)
(0,0,0)
(0,0,0)
(0,0,0)
(0,0,0)
(0,0,0)
(0,0,0)
(0,0,0)
(0,0,0)
(0,0,0)
(0,0,0)
(0,0,0)
(0,0,0)
(0,0,0)
(0,0,0)
(0,0,0)
(0,0,0)
(0,0,0)
(0,0,0)
(0,0,0)
(0,0,0)
(0,0,0)
(0,0,0)
(0,0,0)
(0,0,0)
(0,0,0)
(0,0,0)
(0,0,0)
(0,0,0)
(0,0,0)
(0,0,0)
(0,0,0)
(0,0,0)
(0,0,0)
(0,0,0)
(0,0,0)
(0,0,0)
(0,0,0)
(0,0,0)
(0,0,0)
(0,0,0)
(0,0,0)
(0,0,0)
(0,0,0)
(0,0,0)
(0,0,0)
(0,0,0)
(0,0,0)
(0,0,0)
(0,0,0)
(0,0,0)
(0,0,0)
(0,0,0)
(0,0,0)
(0,0,0)
(0,0,0)
(0,0,0)
(0,0,0)
(0,0,0)
(0,0,0)
(0,0,0)
(0,0,0)
(0,0,0)
(0,0,0)
(0,0,0)
(0,0,0)
(0,0,0)
(0,0,0)
(0,0,0)
(0,0,0)
(0,0,0)
(0,0,0)
(0,0,0)
(0,0,0)
(0,0,0)
(0,0,0)
(0,0,0)
(0,0,0)
(0,0,0)
(0,0,0)
(0,0,0)
(0,0,0)
(0,0,0)
(0,0,0)
(0,0,0)
(0,0,0)
(0,0,0)
(0,0,0)
(0,0,0)
(0,0,0)
(0,0,0)
(0,0,0)
(0,0,0)
(0,0,0)
(0,0,0)
(0,0,0)
(0,0,0)
(0,0,0)
(0,0,0)
(0,0,0)
(0,0,0)
(0,0,0)
(0,0,0)
(0,0,0)
(0,0,0)
(0,0,0)
(0,0,0)
(0,0,0)
(0,0,0)
(0,0,0)
(0,0,0)
(0,0,0)
(0,0,0)
(0,0,0)
(0,0,0)
(0,0,0)
(0,0,0)
(0,0,0)
(0,0,0)
(0,0,0)
(0,0,0)
(0,0,0)
(0,0,0)
(0,0,0)
(0,0,0)
(0,0,0)
(0,0,0)
(0,0,0)
(0,0,0)
(0,0,0)
(0,0,0)
(0,0,0)
(0,0,0)
(0,0,0)
(0,0,0)
(0,0,0)
(0,0,0)
(0,0,0)
(0,0,0)
(0,0,0)
(0,0,0)
(0,0,0)
(0,0,0)
(0,0,0)
(0,0,0)
(0,0,0)
(0,0,0)
(0,0,0)
(0,0,0)
(0,0,0)
(0,0,0)
(0,0,0)
(0,0,0)
(0,0,0)
(0,0,0)
(0,0,0)
(0,0,0)
(0,0,0)
(0,0,0)
(0,0,0)
(0,0,0)
(0,0,0)
(0,0,0)
(0,0,0)
(0,0,0)
(0,0,0)
(0,0,0)
(0,0,0)
(0,0,0)
(0,0,0)
(0,0,0)
(0,0,0)
(0,0,0)
(0,0,0)
(0,0,0)
(0,0,0)
(0,0,0)
(0,0,0)
(0,0,0)
(0,0,0)
(0,0,0)
(0,0,0)
(0,0,0)
(0,0,0)
(0,0,0)
(0,0,0)
(0,0,0)
(0,0,0)
(0,0,0)
(0,0,0)
(0,0,0)
(0,0,0)
(0,0,0)
(0,0,0)
(0,0,0)
(0,0,0)
(0,0,0)
(0,0,0)
(0,0,0)
(0,0,0)
(0,0,0)
(0,0,0)
(0,0,0)
(0,0,0)
(0,0,0)
(0,0,0)
(0,0,0)
(0,0,0)
(0,0,0)
(0,0,0)
(0,0,0)
(0,0,0)
(0,0,0)
(0,0,0)
(0,0,0)
(0,0,0)
(0,0,0)
(0,0,0)
(0,0,0)
(0,0,0)
(0,0,0)
(0,0,0)
(0,0,0)
(0,0,0)
(0,0,0)
(0,0,0)
(0,0,0)
(0,0,0)
(0,0,0)
(0,0,0)
(0,0,0)
(0,0,0)
(0,0,0)
(0,0,0)
(0,0,0)
(0,0,0)
(0,0,0)
(0,0,0)
(0,0,0)
(0,0,0)
(0,0,0)
(0,0,0)
(0,0,0)
(0,0,0)
(0,0,0)
(0,0,0)
(0,0,0)
(0,0,0)
(0,0,0)
(0,0,0)
(0,0,0)
(0,0,0)
(0,0,0)
(0,0,0)
(0,0,0)
(0,0,0)
(0,0,0)
(0,0,0)
(0,0,0)
(0,0,0)
(0,0,0)
(0,0,0)
(0,0,0)
(0,0,0)
(0,0,0)
(0,0,0)
(0,0,0)
(0,0,0)
(0,0,0)
(0,0,0)
(0,0,0)
(0,0,0)
(0,0,0)
(0,0,0)
(0,0,0)
(0,0,0)
(0,0,0)
(0,0,0)
(0,0,0)
(0,0,0)
(0,0,0)
(0,0,0)
(0,0,0)
(0,0,0)
(0,0,0)
(0,0,0)
(0,0,0)
(0,0,0)
(0,0,0)
(0,0,0)
(0,0,0)
(0,0,0)
(0,0,0)
(0,0,0)
(0,0,0)
(0,0,0)
(0,0,0)
(0,0,0)
(0,0,0)
(0,0,0)
(0,0,0)
(0,0,0)
(0,0,0)
(0,0,0)
(0,0,0)
(0,0,0)
(0,0,0)
(0,0,0)
(0,0,0)
(0,0,0)
(0,0,0)
(0,0,0)
(0,0,0)
(0,0,0)
(0,0,0)
(0,0,0)
(0,0,0)
(0,0,0)
(0,0,0)
(0,0,0)
(0,0,0)
(0,0,0)
(0,0,0)
(0,0,0)
(0,0,0)
(0,0,0)
(0,0,0)
(0,0,0)
(0,0,0)
(0,0,0)
(0,0,0)
(0,0,0)
(0,0,0)
(0,0,0)
(0,0,0)
(0,0,0)
(0,0,0)
(0,0,0)
(0,0,0)
(0,0,0)
(0,0,0)
(0,0,0)
(0,0,0)
(0,0,0)
(0,0,0)
(0,0,0)
(0,0,0)
(0,0,0)
(0,0,0)
(0,0,0)
(0,0,0)
(0,0,0)
(0,0,0)
(0,0,0)
(0,0,0)
(0,0,0)
(0,0,0)
(0,0,0)
(0,0,0)
(0,0,0)
(0,0,0)
(0,0,0)
(0,0,0)
(0,0,0)
(0,0,0)
(0,0,0)
(0,0,0)
(0,0,0)
(0,0,0)
(0,0,0)
(0,0,0)
(0,0,0)
(0,0,0)
(0,0,0)
(0,0,0)
(0,0,0)
(0,0,0)
(0,0,0)
(0,0,0)
(0,0,0)
(0,0,0)
(0,0,0)
(0,0,0)
(0,0,0)
(0,0,0)
(0,0,0)
(0,0,0)
(0,0,0)
(0,0,0)
(0,0,0)
(0,0,0)
(0,0,0)
(0,0,0)
(0,0,0)
(0,0,0)
(0,0,0)
(0,0,0)
(0,0,0)
(0,0,0)
(0,0,0)
(0,0,0)
(0,0,0)
(0,0,0)
(0,0,0)
(0,0,0)
(0,0,0)
(0,0,0)
(0,0,0)
(0,0,0)
(0,0,0)
(0,0,0)
(0,0,0)
(0,0,0)
(0,0,0)
(0,0,0)
(0,0,0)
(0,0,0)
(0,0,0)
(0,0,0)
(0,0,0)
(0,0,0)
(0,0,0)
(0,0,0)
(0,0,0)
(0,0,0)
(0,0,0)
(0,0,0)
(0,0,0)
(0,0,0)
(0,0,0)
(0,0,0)
(0,0,0)
(0,0,0)
(0,0,0)
(0,0,0)
(0,0,0)
(0,0,0)
(0,0,0)
(0,0,0)
(0,0,0)
(0,0,0)
(0,0,0)
(0,0,0)
(0,0,0)
(0,0,0)
(0,0,0)
(0,0,0)
(0,0,0)
(0,0,0)
(0,0,0)
(0,0,0)
(0,0,0)
(0,0,0)
(0,0,0)
(0,0,0)
(0,0,0)
(0,0,0)
(0,0,0)
(0,0,0)
(0,0,0)
(0,0,0)
(0,0,0)
(0,0,0)
(0,0,0)
(0,0,0)
(0,0,0)
(0,0,0)
(0,0,0)
(0,0,0)
(0,0,0)
(0,0,0)
(0,0,0)
(0,0,0)
(0,0,0)
(0,0,0)
(0,0,0)
(0,0,0)
(0,0,0)
(0,0,0)
(0,0,0)
(0,0,0)
(0,0,0)
(0,0,0)
(0,0,0)
(0,0,0)
(0,0,0)
(0,0,0)
(0,0,0)
(0,0,0)
(0,0,0)
(0,0,0)
(0,0,0)
(0,0,0)
(0,0,0)
(0,0,0)
(0,0,0)
(0,0,0)
(0,0,0)
(0,0,0)
(0,0,0)
(0,0,0)
(0,0,0)
(0,0,0)
(0,0,0)
(0,0,0)
(0,0,0)
(0,0,0)
(0,0,0)
(0,0,0)
(0,0,0)
(0,0,0)
(0,0,0)
(0,0,0)
(0,0,0)
(0,0,0)
(0,0,0)
(0,0,0)
(0,0,0)
(0,0,0)
(0,0,0)
(0,0,0)
(0,0,0)
(0,0,0)
(0,0,0)
(0,0,0)
(0,0,0)
(0,0,0)
(0,0,0)
(0,0,0)
(0,0,0)
(0,0,0)
(0,0,0)
(0,0,0)
(0,0,0)
(0,0,0)
(0,0,0)
(0,0,0)
(0,0,0)
(0,0,0)
(0,0,0)
(0,0,0)
(0,0,0)
(0,0,0)
(0,0,0)
(0,0,0)
(0,0,0)
(0,0,0)
(0,0,0)
(0,0,0)
(0,0,0)
(0,0,0)
(0,0,0)
(0,0,0)
(0,0,0)
(0,0,0)
(0,0,0)
(0,0,0)
(0,0,0)
(0,0,0)
(0,0,0)
(0,0,0)
(0,0,0)
(0,0,0)
(0,0,0)
(0,0,0)
(0,0,0)
(0,0,0)
(0,0,0)
(0,0,0)
(0,0,0)
(0,0,0)
(0,0,0)
(0,0,0)
(0,0,0)
(0,0,0)
(0,0,0)
(0,0,0)
(0,0,0)
(0,0,0)
(0,0,0)
(0,0,0)
(0,0,0)
(0,0,0)
(0,0,0)
(0,0,0)
(0,0,0)
(0,0,0)
(0,0,0)
(0,0,0)
(0,0,0)
(0,0,0)
(0,0,0)
(0,0,0)
(0,0,0)
(0,0,0)
(0,0,0)
(0,0,0)
(0,0,0)
(0,0,0)
(0,0,0)
(0,0,0)
(0,0,0)
(0,0,0)
(0,0,0)
(0,0,0)
(0,0,0)
(0,0,0)
(0,0,0)
(0,0,0)
(0,0,0)
(0,0,0)
(0,0,0)
(0,0,0)
(0,0,0)
(0,0,0)
(0,0,0)
(0,0,0)
(0,0,0)
(0,0,0)
(0,0,0)
(0,0,0)
(0,0,0)
(0,0,0)
(0,0,0)
(0,0,0)
(0,0,0)
(0,0,0)
(0,0,0)
(0,0,0)
(0,0,0)
(0,0,0)
(0,0,0)
(0,0,0)
(0,0,0)
(0,0,0)
(0,0,0)
(0,0,0)
(0,0,0)
(0,0,0)
(0,0,0)
(0,0,0)
(0,0,0)
(0,0,0)
(0,0,0)
(0,0,0)
(0,0,0)
(0,0,0)
(0,0,0)
(0,0,0)
(0,0,0)
(0,0,0)
(0,0,0)
(0,0,0)
(0,0,0)
(0,0,0)
(0,0,0)
(0,0,0)
(0,0,0)
(0,0,0)
(0,0,0)
(0,0,0)
(0,0,0)
(0,0,0)
(0,0,0)
(0,0,0)
(0,0,0)
(0,0,0)
(0,0,0)
(0,0,0)
(0,0,0)
(0,0,0)
(0,0,0)
(0,0,0)
(0,0,0)
(0,0,0)
(0,0,0)
(0,0,0)
(0,0,0)
(0,0,0)
(0,0,0)
(0,0,0)
(0,0,0)
(0,0,0)
(0,0,0)
(0,0,0)
(0,0,0)
(0,0,0)
(0,0,0)
(0,0,0)
(0,0,0)
(0,0,0)
(0,0,0)
(0,0,0)
(0,0,0)
(0,0,0)
(0,0,0)
(0,0,0)
(0,0,0)
(0,0,0)
(0,0,0)
(0,0,0)
(0,0,0)
(0,0,0)
(0,0,0)
(0,0,0)
(0,0,0)
(0,0,0)
(0,0,0)
(0,0,0)
(0,0,0)
(0,0,0)
(0,0,0)
(0,0,0)
(0,0,0)
(0,0,0)
(0,0,0)
(0,0,0)
(0,0,0)
(0,0,0)
(0,0,0)
(0,0,0)
(0,0,0)
(0,0,0)
(0,0,0)
(0,0,0)
(1.54183190881472e-13,6.88461196941713e-12,-9.48252374978486e-12)
(3.1151776427351e-13,1.71011898672468e-11,-9.45020362258514e-12)
(8.4253198744006e-13,3.05674761350057e-11,-8.78980565724973e-12)
(2.03602256874979e-12,4.83337936351195e-11,-7.30198841153499e-12)
(2.10271031745967e-12,7.51345285085676e-11,-5.52676748831072e-12)
(1.89907000641778e-12,1.17750110747107e-10,-3.50473039633574e-12)
(1.89714108455599e-12,1.87571565535072e-10,-1.61591532654078e-12)
(1.86695151065125e-12,3.03787771650088e-10,-4.04078657360774e-13)
(2.828444048583e-12,4.9740498024769e-10,-2.28711681988237e-13)
(3.19542033918729e-12,7.67667614257412e-10,-1.58751191205751e-13)
(0,0,0)
(0,0,0)
(0,0,0)
(0,0,0)
(0,0,0)
(0,0,0)
(1.24018141800789e-12,6.94068736074181e-12,-1.98957002611042e-11)
(1.87453273054841e-12,1.62465406630472e-11,-1.96077558244902e-11)
(2.22138958892738e-12,2.89503268199256e-11,-1.86486441803551e-11)
(4.02869990196755e-12,4.67490558758949e-11,-1.66644533775459e-11)
(4.82594893743227e-12,7.34535958802278e-11,-1.32371131960682e-11)
(4.20650505972504e-12,1.16237183124173e-10,-9.34989254590167e-12)
(3.67452554171708e-12,1.8689405907046e-10,-5.91599344848623e-12)
(3.48606766698887e-12,3.04323163621093e-10,-3.48363509843041e-12)
(4.52742134577082e-12,4.98352191193789e-10,-1.92353173218583e-12)
(5.25448298570835e-12,7.68163687329125e-10,-7.1983798803824e-13)
(0,0,0)
(0,0,0)
(0,0,0)
(0,0,0)
(0,0,0)
(0,0,0)
(1.52037440359651e-12,6.82021833659247e-12,-3.29576244797369e-11)
(2.67483510266581e-12,1.5175433841453e-11,-3.26427994029551e-11)
(3.67263381537859e-12,2.68940717319134e-11,-3.14603728525775e-11)
(5.3830316983381e-12,4.36650027597209e-11,-2.86646801203861e-11)
(6.26373587387622e-12,7.00901818509337e-11,-2.39768735136933e-11)
(5.54104968106316e-12,1.13308448430003e-10,-1.85841816299696e-11)
(4.65403840999505e-12,1.84984727292279e-10,-1.33814092452038e-11)
(4.16934525710459e-12,3.03854390030425e-10,-9.49785105170678e-12)
(5.43571413052139e-12,4.98661607116982e-10,-6.38744706621869e-12)
(6.76742030856867e-12,7.68471996194993e-10,-3.05753926427787e-12)
(0,0,0)
(0,0,0)
(0,0,0)
(0,0,0)
(0,0,0)
(0,0,0)
(2.32854951933971e-12,6.10779560659159e-12,-5.09141318556301e-11)
(4.46976046323734e-12,1.32181314135414e-11,-5.02721603045635e-11)
(6.11270513760144e-12,2.32087247543686e-11,-4.8536496799354e-11)
(8.01923359283761e-12,3.83018717278685e-11,-4.53382724601666e-11)
(8.58935205169495e-12,6.43915598138827e-11,-4.05494805071991e-11)
(7.40861722680999e-12,1.08093470833389e-10,-3.42809314959926e-11)
(5.66443469867623e-12,1.81331325817807e-10,-2.74230531271325e-11)
(4.6836029419874e-12,3.02094250065854e-10,-2.11270176898347e-11)
(6.28726275357649e-12,4.97334650643133e-10,-1.51838074911825e-11)
(7.74186971620665e-12,7.67348893101802e-10,-7.96340025620188e-12)
(0,0,0)
(0,0,0)
(0,0,0)
(0,0,0)
(0,0,0)
(0,0,0)
(3.21387387114476e-12,5.24537568722348e-12,-7.71790226926686e-11)
(5.84430966721569e-12,1.10205661694066e-11,-7.65449285872461e-11)
(8.44148217347132e-12,1.88279221727678e-11,-7.46550608982908e-11)
(1.10728909431702e-11,3.19119015816585e-11,-7.16274461233379e-11)
(1.11220487490759e-11,5.64103073811353e-11,-6.73506423046589e-11)
(9.90180802514596e-12,9.95148512404705e-11,-6.16569968974225e-11)
(7.13280751389144e-12,1.74244121982914e-10,-5.4666324321425e-11)
(5.58283527982752e-12,2.97316333698814e-10,-4.40549445273974e-11)
(6.82033871221896e-12,4.92222603887355e-10,-3.14099088492672e-11)
(8.11640678875611e-12,7.61646253978241e-10,-1.63122183141908e-11)
(0,0,0)
(0,0,0)
(0,0,0)
(0,0,0)
(0,0,0)
(0,0,0)
(3.84270814525257e-12,4.3352736446266e-12,-1.18292291365057e-10)
(6.88688178551628e-12,8.70366634247777e-12,-1.17471894150361e-10)
(9.86340000997374e-12,1.44584041399613e-11,-1.15920841223696e-10)
(1.18637947293875e-11,2.54281516053263e-11,-1.13644492651527e-10)
(1.17442860762419e-11,4.77451613396852e-11,-1.10347038046481e-10)
(1.08287128519028e-11,8.96417181788855e-11,-1.04739292924743e-10)
(8.67194169648623e-12,1.64838791416983e-10,-9.55149130764683e-11)
(6.70399098141179e-12,2.86701157922016e-10,-7.98001689734765e-11)
(6.99117176111245e-12,4.79511669634539e-10,-5.77377092679044e-11)
(8.49769531861679e-12,7.47764682045077e-10,-3.05518469820189e-11)
(0,0,0)
(0,0,0)
(0,0,0)
(0,0,0)
(0,0,0)
(0,0,0)
(4.26889671760418e-12,3.24324877137509e-12,-1.85815630479624e-10)
(7.99616486479199e-12,6.96616373070527e-12,-1.8487256861605e-10)
(1.04761436931033e-11,1.13114349493979e-11,-1.83430697298811e-10)
(1.07506639528147e-11,2.00649686782302e-11,-1.81829326866551e-10)
(1.00817525975923e-11,3.95230269100096e-11,-1.79815773317147e-10)
(8.64449998611299e-12,7.82480070499944e-11,-1.74028262572311e-10)
(8.13296057159973e-12,1.49998000062707e-10,-1.60836180854994e-10)
(6.86760202797504e-12,2.6651930011977e-10,-1.38556958337849e-10)
(6.15488044961681e-12,4.54437912580416e-10,-1.03258509936245e-10)
(7.86798850090898e-12,7.1947234200264e-10,-5.62535619464797e-11)
(0,0,0)
(0,0,0)
(0,0,0)
(0,0,0)
(0,0,0)
(0,0,0)
(4.2103413062148e-12,2.1822292412181e-12,-3.0023948794514e-10)
(7.97259633132433e-12,5.50061161846009e-12,-2.99673418199438e-10)
(9.39244373088085e-12,9.12348111823081e-12,-2.98171608127597e-10)
(8.55158341993623e-12,1.64653768303946e-11,-2.96395894106253e-10)
(7.89357354820622e-12,3.29807039294765e-11,-2.9401971533977e-10)
(6.76028957741646e-12,6.66707180861867e-11,-2.8702336637341e-10)
(6.92578294677722e-12,1.28707290903189e-10,-2.70509254082597e-10)
(6.87088577456775e-12,2.32600422203196e-10,-2.38009850017474e-10)
(5.66070937718108e-12,4.08608651293055e-10,-1.84002605505562e-10)
(7.30033071841397e-12,6.64580921029805e-10,-1.04547569682738e-10)
(0,0,0)
(0,0,0)
(0,0,0)
(0,0,0)
(0,0,0)
(0,0,0)
(3.94429177556111e-12,1.57316694735707e-12,-4.92666774865351e-10)
(7.38408853514213e-12,3.91477173767937e-12,-4.92300480743022e-10)
(6.88437496504534e-12,6.61848948479482e-12,-4.90589661283496e-10)
(5.48939435391022e-12,1.24112761466691e-11,-4.88516781167682e-10)
(5.03838791208551e-12,2.46963260680649e-11,-4.84761694209523e-10)
(4.27721527521914e-12,5.00597388420717e-11,-4.75317311666874e-10)
(4.98925106358698e-12,9.6693998174763e-11,-4.5360005230673e-10)
(5.08345909058175e-12,1.79475923287652e-10,-4.09792367297838e-10)
(3.7227531427251e-12,3.2979255376526e-10,-3.3132790040855e-10)
(4.42888055371599e-12,5.61002841532461e-10,-1.9928524389955e-10)
(0,0,0)
(0,0,0)
(0,0,0)
(0,0,0)
(0,0,0)
(0,0,0)
(3.0710498681523e-12,1.03339396768869e-12,-7.61915441375285e-10)
(6.15116156574835e-12,2.02971471978765e-12,-7.61337620106783e-10)
(4.85094574695112e-12,3.30925592429269e-12,-7.59530495526316e-10)
(3.68317618845951e-12,6.58523702250297e-12,-7.57567087418102e-10)
(3.9144962922838e-12,1.32597560161497e-11,-7.52908244678597e-10)
(3.45964427677451e-12,2.70801766383306e-11,-7.41647034066494e-10)
(4.49938507151783e-12,5.2836820104987e-11,-7.15988570506163e-10)
(4.4712843575074e-12,1.01416070384155e-10,-6.63014570851188e-10)
(2.6923227725629e-12,1.97898146992248e-10,-5.60984808986926e-10)
(2.48709402780134e-12,3.62141507706602e-10,-3.62692532345556e-10)
(0,0,0)
(0,0,0)
(0,0,0)
(0,0,0)
(0,0,0)
(0,0,0)
(0,0,0)
(0,0,0)
(0,0,0)
(0,0,0)
(0,0,0)
(0,0,0)
(0,0,0)
(0,0,0)
(0,0,0)
(0,0,0)
(0,0,0)
(0,0,0)
(0,0,0)
(0,0,0)
(0,0,0)
(0,0,0)
(0,0,0)
(0,0,0)
(0,0,0)
(0,0,0)
(0,0,0)
(0,0,0)
(0,0,0)
(0,0,0)
(0,0,0)
(0,0,0)
(0,0,0)
(0,0,0)
(0,0,0)
(0,0,0)
(0,0,0)
(0,0,0)
(0,0,0)
(0,0,0)
(0,0,0)
(0,0,0)
(0,0,0)
(0,0,0)
(0,0,0)
(0,0,0)
(0,0,0)
(0,0,0)
(0,0,0)
(0,0,0)
(0,0,0)
(0,0,0)
(0,0,0)
(0,0,0)
(0,0,0)
(0,0,0)
(0,0,0)
(0,0,0)
(0,0,0)
(0,0,0)
(0,0,0)
(0,0,0)
(0,0,0)
(0,0,0)
(0,0,0)
(0,0,0)
(0,0,0)
(0,0,0)
(0,0,0)
(0,0,0)
(0,0,0)
(0,0,0)
(0,0,0)
(0,0,0)
(0,0,0)
(0,0,0)
(0,0,0)
(0,0,0)
(0,0,0)
(0,0,0)
(0,0,0)
(0,0,0)
(0,0,0)
(0,0,0)
(0,0,0)
(0,0,0)
(0,0,0)
(0,0,0)
(0,0,0)
(0,0,0)
(0,0,0)
(0,0,0)
(0,0,0)
(0,0,0)
(0,0,0)
(0,0,0)
(0,0,0)
(0,0,0)
(0,0,0)
(0,0,0)
(0,0,0)
(0,0,0)
(6.57876723562138e-14,1.42677111455944e-11,-1.64721799175902e-11)
(5.05769003135387e-13,3.19737190337155e-11,-1.61463621761871e-11)
(9.7186405680746e-13,5.5314263373637e-11,-1.48781210175353e-11)
(1.84553940474542e-12,8.74584547095891e-11,-1.22360895755893e-11)
(1.76160585380324e-12,1.35111443595076e-10,-8.76744684315838e-12)
(1.52318255960695e-12,2.09337419470946e-10,-4.83808115226558e-12)
(1.36281088003878e-12,3.28007339472913e-10,-1.33542045198579e-12)
(1.15619256415379e-12,5.30101338154986e-10,4.63124325138318e-13)
(1.81127261149927e-12,9.17095699756194e-10,4.05097055616221e-13)
(2.54059607599614e-12,1.80567218265875e-09,1.35740162720859e-13)
(0,0,0)
(0,0,0)
(0,0,0)
(0,0,0)
(0,0,0)
(0,0,0)
(1.07270600554162e-12,1.40269938167106e-11,-3.62876524334171e-11)
(1.98652790800971e-12,3.07242967846568e-11,-3.52580435426978e-11)
(2.29345387413416e-12,5.30379895861071e-11,-3.29212659776673e-11)
(3.68541283665818e-12,8.47745507949944e-11,-2.84834299883183e-11)
(4.30214231656003e-12,1.3169098444661e-10,-2.14058246940558e-11)
(3.70134065643947e-12,2.06142137147375e-10,-1.29725884096083e-11)
(3.15149896981969e-12,3.26872659846699e-10,-5.46453952429563e-12)
(2.39473789152899e-12,5.31103881618673e-10,-1.71108707540501e-12)
(3.01431167860447e-12,9.18923083143376e-10,-4.96360201206376e-13)
(4.22633613195379e-12,1.80726345524414e-09,-6.66787458834807e-14)
(0,0,0)
(0,0,0)
(0,0,0)
(0,0,0)
(0,0,0)
(0,0,0)
(1.91797205681587e-12,1.31851224847539e-11,-6.04761201035368e-11)
(3.44971098019981e-12,2.85340008893192e-11,-5.94222940849727e-11)
(4.56228806072793e-12,4.90568957841461e-11,-5.63324111755792e-11)
(6.05835612350779e-12,7.87131130374621e-11,-4.99717750467632e-11)
(6.56966602719893e-12,1.24326375818229e-10,-3.99120904725144e-11)
(5.55325489290691e-12,1.99666274065417e-10,-2.77406077815379e-11)
(4.42388169097861e-12,3.24435259175558e-10,-1.58155399870516e-11)
(2.81908123620334e-12,5.32300892390031e-10,-9.92013487912997e-12)
(3.43276280249787e-12,9.21540150339299e-10,-6.58298777200636e-12)
(4.83298413736765e-12,1.80982546937373e-09,-3.25280659079232e-12)
(0,0,0)
(0,0,0)
(0,0,0)
(0,0,0)
(0,0,0)
(0,0,0)
(2.5489978876412e-12,1.17320344492306e-11,-9.29480651190557e-11)
(4.93166220216173e-12,2.47947969158365e-11,-9.15559049327624e-11)
(7.29528338001855e-12,4.21324283629109e-11,-8.79794317213802e-11)
(9.62041178608445e-12,6.82473722661088e-11,-8.11809844705764e-11)
(1.03020554732307e-11,1.11870269075407e-10,-7.04778807909912e-11)
(9.12935845085604e-12,1.87414919723274e-10,-5.61693954738747e-11)
(6.45560309623444e-12,3.18266197306381e-10,-4.05656779988344e-11)
(3.5183091103699e-12,5.32289828033507e-10,-3.09542508372311e-11)
(4.17890227449915e-12,9.22310498031604e-10,-2.25802563726433e-11)
(5.48110858358512e-12,1.81004857970911e-09,-1.19983198104808e-11)
(0,0,0)
(0,0,0)
(0,0,0)
(0,0,0)
(0,0,0)
(0,0,0)
(3.4898818083189e-12,9.73441646512109e-12,-1.39358710962438e-10)
(6.27134180519085e-12,2.03530995956215e-11,-1.38205150116084e-10)
(9.78338543132089e-12,3.39643826825599e-11,-1.35027075867148e-10)
(1.32798371008254e-11,5.55626377457697e-11,-1.29051803744294e-10)
(1.40935493833002e-11,9.45490041933623e-11,-1.20067586273438e-10)
(1.27842685107265e-11,1.66753870630327e-10,-1.08884300985146e-10)
(5.92675828579382e-12,3.0214332876733e-10,-9.88139240994169e-11)
(3.55297537857023e-12,5.2719130318134e-10,-7.69894343571903e-11)
(4.4335824299678e-12,9.16639269963616e-10,-5.41176717744532e-11)
(5.6857604075936e-12,1.80233499279369e-09,-2.80882438270367e-11)
(0,0,0)
(0,0,0)
(0,0,0)
(0,0,0)
(0,0,0)
(0,0,0)
(4.11433580380875e-12,7.64693465826399e-12,-2.11077598318866e-10)
(7.07333147062263e-12,1.57276415990378e-11,-2.10046858147489e-10)
(1.07340206283678e-11,2.56815911209927e-11,-2.07619743943475e-10)
(1.39295230514346e-11,4.29440823686485e-11,-2.03267704142896e-10)
(1.43586753841797e-11,7.66953011309824e-11,-1.96791673542574e-10)
(1.29980441325194e-11,1.46241921801335e-10,-1.87410914807347e-10)
(7.79798894776553e-12,2.88462990013846e-10,-1.73753247856157e-10)
(4.82338907812982e-12,5.11800146649877e-10,-1.44449147161378e-10)
(4.87906652926449e-12,8.96492442583807e-10,-1.03555931861544e-10)
(6.23818837917949e-12,1.77882781780084e-09,-5.43049416873532e-11)
(0,0,0)
(0,0,0)
(0,0,0)
(0,0,0)
(0,0,0)
(0,0,0)
(4.38685438418792e-12,5.78902242987361e-12,-3.26420797623962e-10)
(8.01984565979739e-12,1.19259571752213e-11,-3.2544518533604e-10)
(1.10627270920104e-11,1.8872914865627e-11,-3.23621525138554e-10)
(1.23367022512444e-11,3.20874306608994e-11,-3.21258743062641e-10)
(1.08365648332883e-11,6.00007384644023e-11,-3.18432947101149e-10)
(7.0297072325956e-12,1.22378042085525e-10,-3.11035487629131e-10)
(7.14444721395502e-12,2.62746283784411e-10,-2.86575243374417e-10)
(5.48803154291097e-12,4.77056306876948e-10,-2.5091212270638e-10)
(4.97919374710626e-12,8.52444625537494e-10,-1.84905120633838e-10)
(6.50584752739027e-12,1.7287095756145e-09,-9.95168073679675e-11)
(0,0,0)
(0,0,0)
(0,0,0)
(0,0,0)
(0,0,0)
(0,0,0)
(4.25333385437308e-12,4.29871480884269e-12,-5.23483947786801e-10)
(8.05662614026422e-12,9.14416587568071e-12,-5.22890930251211e-10)
(1.0121721342974e-11,1.45116258865343e-11,-5.21357943480013e-10)
(1.02295053371783e-11,2.57289910792457e-11,-5.19573070115278e-10)
(9.18160244325758e-12,5.08424258892874e-11,-5.17146562191445e-10)
(6.85715653072377e-12,1.08575701401976e-10,-5.08822885991511e-10)
(6.43967161010789e-12,2.27389177371686e-10,-4.83210184459773e-10)
(5.9881401781431e-12,4.14058112026058e-10,-4.24739199675273e-10)
(5.02177108222946e-12,7.70234603622961e-10,-3.26777804629174e-10)
(6.3308405329561e-12,1.63222646016643e-09,-1.85864518987886e-10)
(0,0,0)
(0,0,0)
(0,0,0)
(0,0,0)
(0,0,0)
(0,0,0)
(4.11777063290097e-12,3.18497680262521e-12,-9.06589430877562e-10)
(7.55832609350785e-12,6.45914207536625e-12,-9.05942913844449e-10)
(8.12072840973432e-12,1.04448639507735e-11,-9.04228850890148e-10)
(7.56034651991826e-12,1.96438050109705e-11,-9.02072102335017e-10)
(7.03057542135151e-12,3.93272190381118e-11,-8.9704363830049e-10)
(5.53951811881698e-12,8.35055263812588e-11,-8.83091583383124e-10)
(5.03874412446047e-12,1.68971615525268e-10,-8.47711638053343e-10)
(4.67884510479398e-12,3.17528430043009e-10,-7.71335544817706e-10)
(3.57450340667449e-12,6.30925080216593e-10,-6.33708751100717e-10)
(4.00497048008701e-12,1.44816880457872e-09,-3.96072553390877e-10)
(0,0,0)
(0,0,0)
(0,0,0)
(0,0,0)
(0,0,0)
(0,0,0)
(3.52662256733865e-12,1.7546795407761e-12,-1.792047971318e-09)
(6.37375170506946e-12,3.35778304393349e-12,-1.79136885708944e-09)
(6.19679356302928e-12,5.43626458742744e-12,-1.78968419156246e-09)
(5.60957047145816e-12,1.07496081196176e-11,-1.78748782697575e-09)
(5.91304169632971e-12,2.16551946030514e-11,-1.7803583611245e-09)
(4.88135735477471e-12,4.56358515722259e-11,-1.76197494793138e-09)
(4.36220552153214e-12,9.168093465066e-11,-1.71910175523623e-09)
(3.85759287740145e-12,1.80341835649705e-10,-1.62817583430144e-09)
(2.2981931234435e-12,3.93961182903639e-10,-1.44728236560069e-09)
(1.93606938885758e-12,1.05294536400598e-09,-1.05305503616115e-09)
(0,0,0)
(0,0,0)
(0,0,0)
(0,0,0)
(0,0,0)
(0,0,0)
(0,0,0)
(0,0,0)
(0,0,0)
(0,0,0)
(0,0,0)
(0,0,0)
(0,0,0)
(0,0,0)
(0,0,0)
(0,0,0)
(0,0,0)
(0,0,0)
(0,0,0)
(0,0,0)
(0,0,0)
(0,0,0)
(0,0,0)
(0,0,0)
(0,0,0)
(0,0,0)
(0,0,0)
(0,0,0)
(0,0,0)
(0,0,0)
(0,0,0)
(0,0,0)
(0,0,0)
(0,0,0)
(0,0,0)
(0,0,0)
(0,0,0)
(0,0,0)
(0,0,0)
(0,0,0)
(0,0,0)
(0,0,0)
(0,0,0)
(0,0,0)
(0,0,0)
(0,0,0)
(0,0,0)
(0,0,0)
(0,0,0)
(0,0,0)
(0,0,0)
(0,0,0)
(0,0,0)
(0,0,0)
(0,0,0)
(0,0,0)
(0,0,0)
(0,0,0)
(0,0,0)
(0,0,0)
(0,0,0)
(0,0,0)
(0,0,0)
(0,0,0)
(0,0,0)
(0,0,0)
(0,0,0)
(0,0,0)
(0,0,0)
(0,0,0)
(0,0,0)
(0,0,0)
(0,0,0)
(0,0,0)
(0,0,0)
(0,0,0)
(0,0,0)
(0,0,0)
(0,0,0)
(0,0,0)
(0,0,0)
(0,0,0)
(0,0,0)
(0,0,0)
(0,0,0)
(0,0,0)
(0,0,0)
(0,0,0)
(0,0,0)
(0,0,0)
(0,0,0)
(0,0,0)
(0,0,0)
(0,0,0)
(0,0,0)
(0,0,0)
(0,0,0)
(0,0,0)
(0,0,0)
(0,0,0)
(0,0,0)
(0,0,0)
(-1.93127402838111e-14,1.94440527590459e-11,-2.22368541590445e-11)
(4.86950093401769e-13,4.1753055168926e-11,-2.10511509548193e-11)
(6.06106402149743e-13,7.18797335550243e-11,-1.8884528109545e-11)
(1.06080058748171e-12,1.12841269704973e-10,-1.53167928563658e-11)
(1.2526993110457e-12,1.71253448754696e-10,-1.02012707637635e-11)
(1.21580418277933e-12,2.58533400952335e-10,-3.7155552193016e-12)
(6.9894572935495e-13,3.85529815996941e-10,2.3484030056807e-12)
(2.11676369837253e-13,5.70525118553007e-10,4.64066107760695e-12)
(2.53246117207239e-13,8.34961336553398e-10,3.77900234169613e-12)
(1.08506365350093e-12,1.15766391349018e-09,1.88248996030583e-12)
(0,0,0)
(0,0,0)
(0,0,0)
(0,0,0)
(0,0,0)
(0,0,0)
(8.8496844662372e-13,1.86224749492959e-11,-4.80603452172877e-11)
(1.84004623877517e-12,4.02956969310861e-11,-4.59447609262947e-11)
(1.83671168638067e-12,6.8989066036792e-11,-4.1739640090298e-11)
(2.66924529996325e-12,1.08625885332128e-10,-3.47549982894644e-11)
(3.23351466064489e-12,1.65869312434476e-10,-2.37731586881318e-11)
(2.66915485301125e-12,2.53975289697769e-10,-9.41067586793272e-12)
(1.83544719179358e-12,3.85385137883353e-10,4.58918070218874e-12)
(-1.69997534617237e-14,5.7348141980937e-10,8.29816030688836e-12)
(-3.24369728660688e-14,8.38708259741183e-10,6.01834103939612e-12)
(1.59764325631997e-12,1.16124571363471e-09,2.74598717436209e-12)
(0,0,0)
(0,0,0)
(0,0,0)
(0,0,0)
(0,0,0)
(0,0,0)
(2.31723407352094e-12,1.70075219087878e-11,-8.05891249939959e-11)
(4.09903204457239e-12,3.71083939634519e-11,-7.80124748090677e-11)
(5.12611935311805e-12,6.30213916575686e-11,-7.20216926149118e-11)
(6.46441232063893e-12,9.91401560361537e-11,-6.14907652120834e-11)
(6.85429007907638e-12,1.53795349330579e-10,-4.47966137877542e-11)
(5.8795414402062e-12,2.42939534571625e-10,-2.14685118357784e-11)
(4.69753845250035e-12,3.85021640526776e-10,4.58336412171338e-12)
(-5.07001514398905e-13,5.80060575023401e-10,7.49077553113636e-12)
(-6.67766070960638e-13,8.459964766238e-10,3.15085386372787e-12)
(1.3570672111496e-12,1.1676245874891e-09,5.84211362075857e-13)
(0,0,0)
(0,0,0)
(0,0,0)
(0,0,0)
(0,0,0)
(0,0,0)
(3.15445568523008e-12,1.46999151872966e-11,-1.23586756924081e-10)
(5.79688631115069e-12,3.17769377538417e-11,-1.20707796787445e-10)
(8.66488180952897e-12,5.31434414094103e-11,-1.14019540390487e-10)
(1.16020426266796e-11,8.32148391383049e-11,-1.02291874293996e-10)
(1.33148350382026e-11,1.31853241380513e-10,-8.30710995256077e-11)
(1.41866900690265e-11,2.18427509997265e-10,-5.30194022374703e-11)
(1.2967044473402e-11,3.81147397717161e-10,-1.21861487015568e-11)
(2.42839497974107e-13,5.91281551311463e-10,-1.17936474381788e-11)
(-7.31806219500133e-13,8.5502502062209e-10,-1.40370052850488e-11)
(1.19637568853032e-12,1.17331577713318e-09,-9.12878004621779e-12)
(0,0,0)
(0,0,0)
(0,0,0)
(0,0,0)
(0,0,0)
(0,0,0)
(4.42380276882902e-12,1.1964389621216e-11,-1.81972912785835e-10)
(7.71872555274731e-12,2.52624498429665e-11,-1.79699901952754e-10)
(1.20909048703563e-11,4.10646045775291e-11,-1.73984192016389e-10)
(1.69141750065547e-11,6.29432420826324e-11,-1.63625662174875e-10)
(2.07639671579989e-11,9.95409808130484e-11,-1.47847512398199e-10)
(2.32258404535209e-11,1.69492510012225e-10,-1.29309022821357e-10)
(-2.21739270259558e-12,3.37325732419775e-10,-1.37786208685071e-10)
(-3.92763067343546e-12,6.0235070144202e-10,-8.85782403336109e-11)
(-1.44901813714791e-12,8.59105070238792e-10,-6.02491623547389e-11)
(1.10469157341002e-12,1.17055310285535e-09,-3.14107745292254e-11)
(0,0,0)
(0,0,0)
(0,0,0)
(0,0,0)
(0,0,0)
(0,0,0)
(4.94150786048856e-12,9.58392930108382e-12,-2.65409098608849e-10)
(8.44790169074637e-12,1.89919767526899e-11,-2.63587094331497e-10)
(1.31906570831161e-11,2.91023721856758e-11,-2.59575456674894e-10)
(1.83101441588121e-11,4.31269286573783e-11,-2.52621810526044e-10)
(2.1672479315626e-11,6.89341269447618e-11,-2.42748658029637e-10)
(2.32042568969846e-11,1.33277812201268e-10,-2.30698568877479e-10)
(4.210594482447e-12,3.42920059195783e-10,-2.3145707020879e-10)
(-1.32598644884611e-12,5.94617704902445e-10,-1.83736280179859e-10)
(-3.24106598371201e-13,8.40533962008614e-10,-1.279047997715e-10)
(2.05148887776629e-12,1.14527184337408e-09,-6.58278296930272e-11)
(0,0,0)
(0,0,0)
(0,0,0)
(0,0,0)
(0,0,0)
(0,0,0)
(4.90154971742648e-12,7.07449093659754e-12,-3.8654278874105e-10)
(8.97797676148622e-12,1.32680703886479e-11,-3.85180202340799e-10)
(1.30612339950455e-11,1.87708047591683e-11,-3.8299026514339e-10)
(1.58693458719828e-11,2.61659106184881e-11,-3.81029024139115e-10)
(1.25974179365054e-11,3.9476127119594e-11,-3.82562451979567e-10)
(-3.62819633918629e-12,7.87651819789394e-11,-3.88660311115071e-10)
(6.83843295893937e-12,3.12265692074938e-10,-3.38337303474412e-10)
(2.47922432090125e-12,5.55044373758024e-10,-3.26531070679828e-10)
(1.80090239629302e-12,7.87045749340107e-10,-2.26583332420246e-10)
(3.47215560751172e-12,1.08445113607717e-09,-1.16530010993831e-10)
(0,0,0)
(0,0,0)
(0,0,0)
(0,0,0)
(0,0,0)
(0,0,0)
(4.77405432516746e-12,4.92005722241729e-12,-5.63292454262887e-10)
(9.20866316914595e-12,9.09131100248286e-12,-5.62749955950129e-10)
(1.24036099140954e-11,1.31418076083265e-11,-5.61803815340875e-10)
(1.38881834819612e-11,2.09781310017672e-11,-5.61725777815358e-10)
(1.23731330940272e-11,4.0815347380248e-11,-5.65110181336977e-10)
(6.31463001950287e-12,1.02160023526199e-10,-5.70888393453934e-10)
(6.38624867256622e-12,2.83297662847604e-10,-5.59417628043303e-10)
(4.55642711498431e-12,4.59669948404305e-10,-4.76017742495559e-10)
(3.41800884682236e-12,6.81508929618939e-10,-3.46647804485867e-10)
(4.5239771331226e-12,9.71571901802351e-10,-1.87180931601533e-10)
(0,0,0)
(0,0,0)
(0,0,0)
(0,0,0)
(0,0,0)
(0,0,0)
(4.90155086119636e-12,3.2806176693972e-12,-8.21399887245254e-10)
(8.94562217096006e-12,6.02041962037754e-12,-8.21090916870967e-10)
(1.09725792176917e-11,9.46244325265855e-12,-8.20279017656665e-10)
(1.14260793770754e-11,1.80522423342657e-11,-8.19471054298178e-10)
(1.07505449387476e-11,3.81884389669847e-11,-8.17636530235646e-10)
(8.02924759848098e-12,8.94784123141105e-11,-8.09200060563196e-10)
(5.95333176305908e-12,1.98591987471788e-10,-7.7585494024614e-10)
(4.23864578140046e-12,3.32514216874023e-10,-6.8233561712704e-10)
(2.90220300964677e-12,5.24467209839746e-10,-5.28647452365812e-10)
(3.15585766194605e-12,7.86951192388497e-10,-3.03933021508307e-10)
(0,0,0)
(0,0,0)
(0,0,0)
(0,0,0)
(0,0,0)
(0,0,0)
(4.60218787940483e-12,1.54340097331449e-12,-1.13943246681877e-09)
(8.04686922192256e-12,2.88964639055022e-12,-1.13956408175713e-09)
(9.43669356394595e-12,5.00596393217548e-12,-1.13925324840941e-09)
(9.22971273945448e-12,1.0798704625115e-11,-1.13787442491533e-09)
(9.18482310652051e-12,2.3049302575947e-11,-1.13163559381307e-09)
(7.64401623175761e-12,5.06893683003145e-11,-1.11350561907149e-09)
(5.11721923776689e-12,1.03424658920633e-10,-1.06693302390678e-09)
(3.30595982575126e-12,1.79209508633448e-10,-9.64956918188713e-10)
(2.03204658788014e-12,3.00777773488595e-10,-7.85979011578994e-10)