/*--------------------------------*- C++ -*----------------------------------*\
| =========                 |                                                 |
| \\      /  F ield         | foam-extend: Open Source CFD                    |
|  \\    /   O peration     | Version:     4.0                                |
|   \\  /    A nd           | Web:         http://www.foam-extend.org         |
|    \\/     M anipulation  |                                                 |
\*---------------------------------------------------------------------------*/
FoamFile
{
    version 2.0;
    format ascii;
    class volVectorField;
    location "1485";
    object      E;
}
// * * * * * * * * * * * * * * * * * * * * * * * * * * * * * * * * * * * * * //

dimensions      [0 1 -1 0 0 0 0];

internalField   nonuniform List<vector>
4096
(
(0,0,0)
(0,0,0)
(0,0,0)
(0,0,0)
(0,0,0)
(0,0,0)
(0,0,0)
(0,0,0)
(0,0,0)
(0,0,0)
(0,0,0)
(0,0,0)
(0,0,0)
(0,0,0)
(0,0,0)
(0,0,0)
(0,0,0)
(0,0,0)
(0,0,0)
(0,0,0)
(0,0,0)
(0,0,0)
(0,0,0)
(0,0,0)
(0,0,0)
(0,0,0)
(0,0,0)
(0,0,0)
(0,0,0)
(0,0,0)
(0,0,0)
(0,0,0)
(0,0,0)
(0,0,0)
(0,0,0)
(0,0,0)
(0,0,0)
(0,0,0)
(0,0,0)
(0,0,0)
(0,0,0)
(0,0,0)
(0,0,0)
(0,0,0)
(0,0,0)
(0,0,0)
(0,0,0)
(0,0,0)
(0,0,0)
(0,0,0)
(0,0,0)
(0,0,0)
(0,0,0)
(0,0,0)
(0,0,0)
(0,0,0)
(0,0,0)
(0,0,0)
(0,0,0)
(0,0,0)
(0,0,0)
(0,0,0)
(0,0,0)
(0,0,0)
(0,0,0)
(0,0,0)
(0,0,0)
(0,0,0)
(0,0,0)
(0,0,0)
(0,0,0)
(0,0,0)
(0,0,0)
(0,0,0)
(0,0,0)
(0,0,0)
(0,0,0)
(0,0,0)
(0,0,0)
(0,0,0)
(0,0,0)
(0,0,0)
(0,0,0)
(0,0,0)
(0,0,0)
(0,0,0)
(0,0,0)
(0,0,0)
(0,0,0)
(0,0,0)
(0,0,0)
(0,0,0)
(0,0,0)
(0,0,0)
(0,0,0)
(0,0,0)
(0,0,0)
(0,0,0)
(0,0,0)
(0,0,0)
(0,0,0)
(0,0,0)
(0,0,0)
(0,0,0)
(0,0,0)
(0,0,0)
(0,0,0)
(0,0,0)
(0,0,0)
(0,0,0)
(0,0,0)
(0,0,0)
(0,0,0)
(0,0,0)
(0,0,0)
(0,0,0)
(0,0,0)
(0,0,0)
(0,0,0)
(0,0,0)
(0,0,0)
(0,0,0)
(0,0,0)
(0,0,0)
(0,0,0)
(0,0,0)
(0,0,0)
(0,0,0)
(0,0,0)
(0,0,0)
(0,0,0)
(0,0,0)
(0,0,0)
(0,0,0)
(0,0,0)
(0,0,0)
(0,0,0)
(0,0,0)
(0,0,0)
(0,0,0)
(0,0,0)
(0,0,0)
(0,0,0)
(0,0,0)
(0,0,0)
(0,0,0)
(0,0,0)
(0,0,0)
(0,0,0)
(0,0,0)
(0,0,0)
(0,0,0)
(0,0,0)
(0,0,0)
(0,0,0)
(0,0,0)
(0,0,0)
(0,0,0)
(0,0,0)
(0,0,0)
(0,0,0)
(0,0,0)
(0,0,0)
(0,0,0)
(0,0,0)
(0,0,0)
(0,0,0)
(0,0,0)
(0,0,0)
(0,0,0)
(0,0,0)
(0,0,0)
(0,0,0)
(0,0,0)
(0,0,0)
(0,0,0)
(0,0,0)
(0,0,0)
(0,0,0)
(0,0,0)
(0,0,0)
(0,0,0)
(0,0,0)
(0,0,0)
(0,0,0)
(0,0,0)
(0,0,0)
(0,0,0)
(0,0,0)
(0,0,0)
(0,0,0)
(0,0,0)
(0,0,0)
(0,0,0)
(0,0,0)
(0,0,0)
(0,0,0)
(0,0,0)
(0,0,0)
(0,0,0)
(0,0,0)
(0,0,0)
(0,0,0)
(0,0,0)
(0,0,0)
(0,0,0)
(0,0,0)
(0,0,0)
(0,0,0)
(0,0,0)
(0,0,0)
(0,0,0)
(0,0,0)
(0,0,0)
(0,0,0)
(0,0,0)
(0,0,0)
(0,0,0)
(0,0,0)
(0,0,0)
(0,0,0)
(0,0,0)
(0,0,0)
(0,0,0)
(0,0,0)
(0,0,0)
(0,0,0)
(0,0,0)
(0,0,0)
(0,0,0)
(0,0,0)
(0,0,0)
(0,0,0)
(0,0,0)
(0,0,0)
(0,0,0)
(0,0,0)
(0,0,0)
(0,0,0)
(0,0,0)
(0,0,0)
(0,0,0)
(0,0,0)
(0,0,0)
(0,0,0)
(0,0,0)
(0,0,0)
(0,0,0)
(0,0,0)
(0,0,0)
(0,0,0)
(0,0,0)
(0,0,0)
(0,0,0)
(0,0,0)
(0,0,0)
(0,0,0)
(0,0,0)
(0,0,0)
(0,0,0)
(0,0,0)
(0,0,0)
(0,0,0)
(0,0,0)
(0,0,0)
(0,0,0)
(0,0,0)
(0,0,0)
(0,0,0)
(0,0,0)
(0,0,0)
(0,0,0)
(0,0,0)
(0,0,0)
(0,0,0)
(0,0,0)
(0,0,0)
(0,0,0)
(0,0,0)
(0,0,0)
(0,0,0)
(0,0,0)
(0,0,0)
(0,0,0)
(0,0,0)
(0,0,0)
(0,0,0)
(0,0,0)
(0,0,0)
(0,0,0)
(0,0,0)
(0,0,0)
(0,0,0)
(0,0,0)
(0,0,0)
(0,0,0)
(0,0,0)
(0,0,0)
(0,0,0)
(0,0,0)
(0,0,0)
(0,0,0)
(0,0,0)
(0,0,0)
(0,0,0)
(0,0,0)
(0,0,0)
(0,0,0)
(0,0,0)
(0,0,0)
(0,0,0)
(0,0,0)
(0,0,0)
(0,0,0)
(0,0,0)
(0,0,0)
(0,0,0)
(0,0,0)
(0,0,0)
(0,0,0)
(0,0,0)
(0,0,0)
(0,0,0)
(0,0,0)
(0,0,0)
(0,0,0)
(0,0,0)
(0,0,0)
(0,0,0)
(0,0,0)
(0,0,0)
(0,0,0)
(0,0,0)
(0,0,0)
(0,0,0)
(0,0,0)
(0,0,0)
(0,0,0)
(0,0,0)
(0,0,0)
(0,0,0)
(0,0,0)
(0,0,0)
(0,0,0)
(0,0,0)
(0,0,0)
(0,0,0)
(0,0,0)
(0,0,0)
(0,0,0)
(0,0,0)
(0,0,0)
(0,0,0)
(0,0,0)
(0,0,0)
(0,0,0)
(0,0,0)
(0,0,0)
(0,0,0)
(0,0,0)
(0,0,0)
(0,0,0)
(0,0,0)
(0,0,0)
(0,0,0)
(0,0,0)
(0,0,0)
(0,0,0)
(0,0,0)
(0,0,0)
(0,0,0)
(0,0,0)
(0,0,0)
(0,0,0)
(0,0,0)
(0,0,0)
(0,0,0)
(0,0,0)
(0,0,0)
(0,0,0)
(0,0,0)
(0,0,0)
(0,0,0)
(0,0,0)
(0,0,0)
(0,0,0)
(0,0,0)
(0,0,0)
(0,0,0)
(0,0,0)
(0,0,0)
(0,0,0)
(0,0,0)
(0,0,0)
(0,0,0)
(0,0,0)
(0,0,0)
(0,0,0)
(0,0,0)
(0,0,0)
(0,0,0)
(0,0,0)
(0,0,0)
(0,0,0)
(0,0,0)
(0,0,0)
(0,0,0)
(0,0,0)
(0,0,0)
(0,0,0)
(0,0,0)
(0,0,0)
(0,0,0)
(0,0,0)
(0,0,0)
(0,0,0)
(0,0,0)
(0,0,0)
(0,0,0)
(0,0,0)
(0,0,0)
(0,0,0)
(0,0,0)
(0,0,0)
(0,0,0)
(0,0,0)
(0,0,0)
(0,0,0)
(0,0,0)
(0,0,0)
(0,0,0)
(0,0,0)
(0,0,0)
(0,0,0)
(0,0,0)
(0,0,0)
(0,0,0)
(0,0,0)
(0,0,0)
(0,0,0)
(0,0,0)
(0,0,0)
(0,0,0)
(0,0,0)
(0,0,0)
(0,0,0)
(0,0,0)
(0,0,0)
(0,0,0)
(0,0,0)
(0,0,0)
(0,0,0)
(0,0,0)
(0,0,0)
(0,0,0)
(0,0,0)
(0,0,0)
(0,0,0)
(0,0,0)
(0,0,0)
(0,0,0)
(0,0,0)
(0,0,0)
(0,0,0)
(0,0,0)
(0,0,0)
(0,0,0)
(0,0,0)
(0,0,0)
(0,0,0)
(0,0,0)
(0,0,0)
(0,0,0)
(0,0,0)
(0,0,0)
(0,0,0)
(0,0,0)
(0,0,0)
(0,0,0)
(0,0,0)
(0,0,0)
(0,0,0)
(0,0,0)
(0,0,0)
(0,0,0)
(0,0,0)
(0,0,0)
(0,0,0)
(0,0,0)
(0,0,0)
(0,0,0)
(0,0,0)
(0,0,0)
(0,0,0)
(0,0,0)
(0,0,0)
(0,0,0)
(0,0,0)
(0,0,0)
(0,0,0)
(0,0,0)
(0,0,0)
(0,0,0)
(0,0,0)
(0,0,0)
(0,0,0)
(0,0,0)
(0,0,0)
(0,0,0)
(0,0,0)
(0,0,0)
(0,0,0)
(0,0,0)
(0,0,0)
(0,0,0)
(0,0,0)
(0,0,0)
(0,0,0)
(0,0,0)
(0,0,0)
(0,0,0)
(0,0,0)
(0,0,0)
(0,0,0)
(0,0,0)
(0,0,0)
(0,0,0)
(0,0,0)
(0,0,0)
(0,0,0)
(0,0,0)
(0,0,0)
(0,0,0)
(0,0,0)
(0,0,0)
(0,0,0)
(0,0,0)
(0,0,0)
(0,0,0)
(0,0,0)
(0,0,0)
(0,0,0)
(0,0,0)
(0,0,0)
(0,0,0)
(0,0,0)
(0,0,0)
(0,0,0)
(0,0,0)
(0,0,0)
(0,0,0)
(0,0,0)
(0,0,0)
(0,0,0)
(0,0,0)
(0,0,0)
(0,0,0)
(0,0,0)
(0,0,0)
(0,0,0)
(0,0,0)
(0,0,0)
(0,0,0)
(0,0,0)
(0,0,0)
(0,0,0)
(0,0,0)
(0,0,0)
(0,0,0)
(0,0,0)
(0,0,0)
(0,0,0)
(0,0,0)
(0,0,0)
(0,0,0)
(0,0,0)
(0,0,0)
(0,0,0)
(0,0,0)
(0,0,0)
(0,0,0)
(0,0,0)
(0,0,0)
(0,0,0)
(0,0,0)
(0,0,0)
(0,0,0)
(0,0,0)
(0,0,0)
(0,0,0)
(0,0,0)
(0,0,0)
(0,0,0)
(0,0,0)
(0,0,0)
(0,0,0)
(0,0,0)
(0,0,0)
(0,0,0)
(0,0,0)
(0,0,0)
(0,0,0)
(0,0,0)
(0,0,0)
(0,0,0)
(0,0,0)
(0,0,0)
(0,0,0)
(0,0,0)
(0,0,0)
(0,0,0)
(0,0,0)
(0,0,0)
(0,0,0)
(0,0,0)
(0,0,0)
(0,0,0)
(0,0,0)
(0,0,0)
(0,0,0)
(0,0,0)
(0,0,0)
(0,0,0)
(0,0,0)
(0,0,0)
(0,0,0)
(0,0,0)
(0,0,0)
(0,0,0)
(0,0,0)
(0,0,0)
(0,0,0)
(0,0,0)
(0,0,0)
(0,0,0)
(0,0,0)
(0,0,0)
(0,0,0)
(0,0,0)
(0,0,0)
(0,0,0)
(0,0,0)
(0,0,0)
(0,0,0)
(0,0,0)
(0,0,0)
(0,0,0)
(0,0,0)
(0,0,0)
(0,0,0)
(0,0,0)
(0,0,0)
(0,0,0)
(0,0,0)
(0,0,0)
(0,0,0)
(0,0,0)
(0,0,0)
(0,0,0)
(0,0,0)
(0,0,0)
(0,0,0)
(0,0,0)
(0,0,0)
(0,0,0)
(0,0,0)
(0,0,0)
(0,0,0)
(0,0,0)
(0,0,0)
(0,0,0)
(0,0,0)
(0,0,0)
(0,0,0)
(0,0,0)
(0,0,0)
(0,0,0)
(0,0,0)
(0,0,0)
(0,0,0)
(0,0,0)
(0,0,0)
(0,0,0)
(0,0,0)
(0,0,0)
(0,0,0)
(0,0,0)
(0,0,0)
(0,0,0)
(0,0,0)
(0,0,0)
(0,0,0)
(0,0,0)
(0,0,0)
(0,0,0)
(0,0,0)
(0,0,0)
(0,0,0)
(0,0,0)
(0,0,0)
(0,0,0)
(0,0,0)
(0,0,0)
(0,0,0)
(0,0,0)
(0,0,0)
(0,0,0)
(0,0,0)
(0,0,0)
(0,0,0)
(0,0,0)
(0,0,0)
(0,0,0)
(0,0,0)
(0,0,0)
(0,0,0)
(0,0,0)
(0,0,0)
(0,0,0)
(0,0,0)
(0,0,0)
(0,0,0)
(0,0,0)
(0,0,0)
(0,0,0)
(0,0,0)
(0,0,0)
(0,0,0)
(0,0,0)
(0,0,0)
(0,0,0)
(0,0,0)
(0,0,0)
(0,0,0)
(0,0,0)
(0,0,0)
(0,0,0)
(0,0,0)
(0,0,0)
(0,0,0)
(0,0,0)
(0,0,0)
(0,0,0)
(0,0,0)
(0,0,0)
(0,0,0)
(0,0,0)
(0,0,0)
(0,0,0)
(0,0,0)
(0,0,0)
(0,0,0)
(0,0,0)
(0,0,0)
(0,0,0)
(0,0,0)
(0,0,0)
(0,0,0)
(0,0,0)
(0,0,0)
(0,0,0)
(0,0,0)
(0,0,0)
(0,0,0)
(0,0,0)
(0,0,0)
(0,0,0)
(0,0,0)
(0,0,0)
(0,0,0)
(0,0,0)
(0,0,0)
(0,0,0)
(0,0,0)
(0,0,0)
(0,0,0)
(0,0,0)
(0,0,0)
(0,0,0)
(0,0,0)
(0,0,0)
(0,0,0)
(0,0,0)
(0,0,0)
(0,0,0)
(0,0,0)
(0,0,0)
(0,0,0)
(0,0,0)
(0,0,0)
(0,0,0)
(0,0,0)
(0,0,0)
(0,0,0)
(0,0,0)
(0,0,0)
(0,0,0)
(0,0,0)
(0,0,0)
(0,0,0)
(0,0,0)
(0,0,0)
(0,0,0)
(0,0,0)
(0,0,0)
(0,0,0)
(0,0,0)
(0,0,0)
(0,0,0)
(0,0,0)
(0,0,0)
(0,0,0)
(0,0,0)
(0,0,0)
(0,0,0)
(0,0,0)
(0,0,0)
(0,0,0)
(0,0,0)
(-210391.227391582,112106.24785415,98284.9795374306)
(-222535.763013651,107485.114643437,213335.627907645)
(-250629.804273627,97834.2577182109,366131.174463061)
(-303641.213624397,82636.0630397185,587136.325047742)
(-399265.614151914,62208.9410571898,924192.998142474)
(-570923.360019163,38709.4022960068,1456406.95586562)
(-881697.231297816,17388.1016548832,2320716.08550858)
(-1443378.20319884,4334.84603841704,3759759.44266901)
(-2380573.82016849,19.206249004212,6140314.05658853)
(-3316801.20005862,-329.021135410274,9457444.27778255)
(0,0,0)
(0,0,0)
(0,0,0)
(0,0,0)
(0,0,0)
(0,0,0)
(-222474.584828601,240880.057924664,93700.7747580862)
(-234754.910736775,232164.558342041,203776.24179626)
(-263314.058870659,213801.753146197,351122.805238929)
(-317589.597975963,184483.584708204,566864.881546412)
(-415860.035033334,144087.985427185,900845.872209745)
(-591650.464909891,96059.3594147843,1435146.38000086)
(-905877.766843173,50713.5311161742,2307698.71738272)
(-1465422.65418595,22027.5649509505,3755428.6526561)
(-2395279.38443793,10783.0240630852,6139944.21928001)
(-3323679.7451269,5521.31573155026,9457773.62753988)
(0,0,0)
(0,0,0)
(0,0,0)
(0,0,0)
(0,0,0)
(0,0,0)
(-250201.933288341,406025.644804145,85056.3464088606)
(-262696.10738901,394324.007440148,185593.004699765)
(-292161.862804554,369451.630224817,322104.990425703)
(-349152.890310775,329035.075823167,526706.389621517)
(-453714.494764387,271500.799500368,853008.070312718)
(-640413.611952359,199663.776284513,1389817.26539535)
(-965464.122276586,127029.688028759,2278965.23075936)
(-1520272.07242273,77177.2725576139,3744087.59557539)
(-2430599.28610007,50898.211562806,6134571.6941758)
(-3339694.16395822,27627.8966863478,9452159.2771792)
(0,0,0)
(0,0,0)
(0,0,0)
(0,0,0)
(0,0,0)
(0,0,0)
(-301942.897609896,634533.650899381,73434.8915146621)
(-314635.227826345,621484.458819078,160909.66796208)
(-345224.633938725,593620.651045262,281965.281080354)
(-406150.889534233,547756.546004985,469394.700432764)
(-521095.925902038,480668.432690784,781322.99314439)
(-728727.129588048,392530.128401617,1317183.77061533)
(-1079566.477505,294729.261677527,2229050.67447157)
(-1626374.87055353,214907.353970039,3717695.46361263)
(-2495311.27199104,152719.761804354,6111185.18536207)
(-3367920.18984614,82227.8061981868,9424505.4656965)
(0,0,0)
(0,0,0)
(0,0,0)
(0,0,0)
(0,0,0)
(0,0,0)
(-394717.692740724,968788.751998092,60462.5916420102)
(-407349.842666179,956096.778736107,133200.114391158)
(-438531.662968792,929029.67237112,236322.756034092)
(-502747.161723012,884362.241550109,402464.222211983)
(-628393.015630884,818234.097978679,693291.572554977)
(-861945.81558106,728356.430151781,1219411.08638586)
(-1253378.76357554,618288.056758058,2149231.05488086)
(-1787970.30430202,496625.597998722,3655483.11515422)
(-2589385.74363512,356976.234885806,6040612.38570795)
(-3408725.97296549,189237.58475905,9342328.58011257)
(0,0,0)
(0,0,0)
(0,0,0)
(0,0,0)
(0,0,0)
(0,0,0)
(-562169.476801027,1483166.63124081,47791.5975583094)
(-574166.047560375,1471870.77899936,106183.644855429)
(-604298.030813217,1447727.62913348,191783.718906286)
(-667859.267588751,1407549.55957694,336455.668468207)
(-794848.989459807,1345998.40728882,603540.34861787)
(-1032857.69418361,1255322.15179038,1109432.32116289)
(-1425480.24977253,1125560.57853975,2027640.04915375)
(-1935811.53108536,944139.932636524,3515937.2456013)
(-2691293.86358888,691306.186563642,5872901.15751238)
(-3460061.19176135,369043.826900709,9153156.10713199)
(0,0,0)
(0,0,0)
(0,0,0)
(0,0,0)
(0,0,0)
(0,0,0)
(-869493.285127354,2316217.13763201,36442.7787361557)
(-880133.200516459,2306432.0088729,82014.7493790744)
(-907168.071631932,2285331.43093054,151579.019213954)
(-965210.787612575,2249414.53439346,274924.832010013)
(-1083162.22453447,2191087.66898291,512997.794850396)
(-1306791.68130635,2095300.29871114,979811.329235979)
(-1675250.60522102,1934301.51474507,1846320.99825169)
(-2139312.20114153,1666531.8637467,3263241.26828304)
(-2843170.7287658,1246944.01933549,5550774.16427694)
(-3543850.2097131,679403.593254221,8784264.6076366)
(0,0,0)
(0,0,0)
(0,0,0)
(0,0,0)
(0,0,0)
(0,0,0)
(-1431403.24171103,3720916.1915935,26704.1877495315)
(-1439938.06965376,3712039.46932416,61034.7969520424)
(-1461744.14673891,3692393.60702911,115716.767592387)
(-1508955.98222608,3657384.93602721,216702.348184709)
(-1605877.63192185,3596282.16291635,417385.486173112)
(-1791779.28772213,3485442.58681346,819022.485792919)
(-2100348.42983829,3274939.12655652,1578733.30381974)
(-2476032.85092714,2877468.53774193,2843829.48075168)
(-3118850.02495513,2226128.70484358,4983494.82019871)
(-3704042.85162332,1261807.84532114,8105133.41975504)
(0,0,0)
(0,0,0)
(0,0,0)
(0,0,0)
(0,0,0)
(0,0,0)
(-2372322.12762696,6075367.82481675,17870.4944037089)
(-2378150.98715234,6066474.67840689,41586.2724733309)
(-2392993.03851971,6046044.87233536,80928.0456867637)
(-2424774.28556352,6007242.30320757,155844.964069908)
(-2488798.85199919,5934192.91691435,306733.062071111)
(-2609102.25991538,5792565.93448271,608711.974317215)
(-2811101.44395756,5513285.0307482,1181467.51408309)
(-3111185.44181568,4977386.6959735,2192734.7976672)
(-3627311.71390998,4026722.93898002,4019452.27744068)
(-3983412.1828595,2421076.98823148,6843595.31738988)
(0,0,0)
(0,0,0)
(0,0,0)
(0,0,0)
(0,0,0)
(0,0,0)
(-3312999.82799433,9379300.28610921,9067.36670187143)
(-3315919.92006266,9370055.55059003,21406.414581406)
(-3323299.68722041,9348321.14807295,42429.8260642511)
(-3338923.29446529,9305484.58766352,83110.8360735989)
(-3369936.39143876,9221882.51437584,165357.630050893)
(-3427880.60960287,9056121.83662891,329682.33750757)
(-3528964.38616742,8726156.45006685,645775.304356343)
(-3699277.81056327,8080115.40564993,1242324.40524315)
(-3982501.80007791,6837481.59328847,2414067.55101259)
(-4010744.02243811,4423101.26310069,4422787.29858151)
(0,0,0)
(0,0,0)
(0,0,0)
(0,0,0)
(0,0,0)
(0,0,0)
(0,0,0)
(0,0,0)
(0,0,0)
(0,0,0)
(0,0,0)
(0,0,0)
(0,0,0)
(0,0,0)
(0,0,0)
(0,0,0)
(0,0,0)
(0,0,0)
(0,0,0)
(0,0,0)
(0,0,0)
(0,0,0)
(0,0,0)
(0,0,0)
(0,0,0)
(0,0,0)
(0,0,0)
(0,0,0)
(0,0,0)
(0,0,0)
(0,0,0)
(0,0,0)
(0,0,0)
(0,0,0)
(0,0,0)
(0,0,0)
(0,0,0)
(0,0,0)
(0,0,0)
(0,0,0)
(0,0,0)
(0,0,0)
(0,0,0)
(0,0,0)
(0,0,0)
(0,0,0)
(0,0,0)
(0,0,0)
(0,0,0)
(0,0,0)
(0,0,0)
(0,0,0)
(0,0,0)
(0,0,0)
(0,0,0)
(0,0,0)
(0,0,0)
(0,0,0)
(0,0,0)
(0,0,0)
(0,0,0)
(0,0,0)
(0,0,0)
(0,0,0)
(0,0,0)
(0,0,0)
(0,0,0)
(0,0,0)
(0,0,0)
(0,0,0)
(0,0,0)
(0,0,0)
(0,0,0)
(0,0,0)
(0,0,0)
(0,0,0)
(0,0,0)
(0,0,0)
(0,0,0)
(0,0,0)
(0,0,0)
(0,0,0)
(0,0,0)
(0,0,0)
(0,0,0)
(0,0,0)
(0,0,0)
(0,0,0)
(0,0,0)
(0,0,0)
(0,0,0)
(0,0,0)
(0,0,0)
(0,0,0)
(0,0,0)
(0,0,0)
(0,0,0)
(0,0,0)
(0,0,0)
(0,0,0)
(0,0,0)
(0,0,0)
(31105472.0754149,99892.4971029759,86201.083656781)
(31085130.822907,95159.2223505003,185332.158951831)
(31038443.6151509,85054.668271423,313160.954822049)
(30951293.6289557,68638.5915054132,491544.404302712)
(30796118.133901,45564.3113251488,752553.22849087)
(30520066.4532188,17955.7701623222,1145564.52865663)
(30013636.1999997,-6775.61970238805,1758963.60062765)
(29012801.984501,-17696.8067405699,2822437.10323458)
(26754699.042474,-14682.9263900475,5203804.05054834)
(20622323.9605957,-7193.85300820945,12773829.6264683)
(0,0,0)
(0,0,0)
(0,0,0)
(0,0,0)
(0,0,0)
(0,0,0)
(31084838.2962932,213036.659681517,81499.8398659016)
(31064432.9525547,204106.521654619,175321.56083659)
(31017298.7344934,184831.57307854,296888.746231606)
(30928473.6341896,152830.501259117,468590.487878564)
(30769049.5154041,106155.709548962,725046.422783576)
(30485226.3830695,47241.1305405864,1120841.09799211)
(29971005.0103306,-8905.89640498522,1748045.48108724)
(28974346.7827807,-32872.7924802029,2825408.91342645)
(26730769.3807622,-24588.5282289869,5211222.63363133)
(20611830.8185069,-10504.3026486537,12780979.4032041)
(0,0,0)
(0,0,0)
(0,0,0)
(0,0,0)
(0,0,0)
(0,0,0)
(31037966.856375,354192.026658629,72632.7269257334)
(31017491.9567587,342287.525365723,156220.542633174)
(30969419.8526045,316275.041175262,265152.24269368)
(30876703.9670088,271942.852703082,422139.917496402)
(30706206.9827708,204036.987826577,666294.04524975)
(30399109.6060047,111272.20465874,1064696.6367408)
(29855416.342357,12842.7447631981,1724024.41450529)
(28868272.1219998,-29015.4434393334,2833579.7546082)
(26669070.1080684,-13893.2105554932,5225171.92633234)
(20586204.3277315,-645.571804965529,12791371.5873652)
(0,0,0)
(0,0,0)
(0,0,0)
(0,0,0)
(0,0,0)
(0,0,0)
(30951706.2665641,541716.959974482,60782.7860763828)
(30931286.5591752,528716.703279757,130388.704727047)
(30882074.6639618,500230.871279395,221090.460288632)
(30783287.1976023,451074.22787245,354477.881548945)
(30592408.8848458,373278.879413339,573688.062780541)
(30232683.5805211,259226.675530836,966279.765365576)
(29598543.6712817,120856.046048052,1682113.19886023)
(28626821.3280739,53261.3965279466,2848597.0438317)
(26544434.1156164,58602.8729534911,5238312.45628138)
(20538337.4905679,41378.3446390541,12791987.7429897)
(0,0,0)
(0,0,0)
(0,0,0)
(0,0,0)
(0,0,0)
(0,0,0)
(30799814.7467882,801295.987149053,47845.4168627439)
(30779878.7799143,789231.009665083,102059.371463118)
(30730422.7154035,763154.459101287,172138.288835209)
(30626460.7583171,719120.404857392,276841.07537625)
(30412283.1758967,651661.499684535,459739.147143678)
(29973668.6839619,557363.987330765,827944.21936698)
(29136731.1285989,446116.521872903,1614530.73493392)
(28179154.8156263,348712.351763407,2853911.54333634)
(26349063.4947975,255019.913090544,5221002.14833272)
(20467142.0479745,137863.82067694,12750605.5349211)
(0,0,0)
(0,0,0)
(0,0,0)
(0,0,0)
(0,0,0)
(0,0,0)
(30529501.0988873,1175764.22904273,35818.0659841968)
(30510934.8609171,1165834.20377536,76070.8469626611)
(30463878.2343647,1144761.49253501,128244.43191724)
(30361848.9777111,1110081.60020732,209531.874833765)
(30145173.9979716,1057558.26247669,365569.008176466)
(29693973.4031803,981270.163485361,716788.618224137)
(28846471.1291838,875686.061192305,1517224.58351459)
(27931204.1797915,740568.245680976,2760309.86228626)
(26182741.3827768,539394.248318622,5103857.16425871)
(20385569.6449794,285254.207475061,12612792.8242861)
(0,0,0)
(0,0,0)
(0,0,0)
(0,0,0)
(0,0,0)
(0,0,0)
(30028276.3724139,1754088.21774512,25863.2373225453)
(30012083.4699389,1746429.10745292,55008.5467557706)
(29970398.9718318,1730590.81707227,93569.0623210137)
(29877820.5749364,1705512.88446545,157063.299080183)
(29675816.6492592,1668194.20616866,289405.365160761)
(29244386.2401825,1610140.50480748,611313.985915947)
(28422452.8577731,1509060.14427499,1382193.32340527)
(27596483.6305305,1329680.26710887,2559242.35387153)
(25936430.9719884,971176.341301969,4849815.44370014)
(20246326.9398256,519171.71830467,12327677.6668982)
(0,0,0)
(0,0,0)
(0,0,0)
(0,0,0)
(0,0,0)
(0,0,0)
(29026665.2863998,2779722.44145489,18254.1317456747)
(29013868.2873579,2773534.93817429,39298.8275788737)
(28980650.0832882,2760882.87191905,68569.4262711768)
(28905865.6326865,2741357.51045682,119860.068933532)
(28739455.7069003,2713156.87842251,231520.941423643)
(28373504.2244333,2667916.1328602,510418.684781828)
(27654077.6592308,2564022.93353616,1202986.69001773)
(27115530.1699965,2242169.3221294,2200891.49763967)
(25439597.9087371,1717559.74479527,4398017.04402026)
(19924057.4524986,982348.995557869,11808696.3462113)
(0,0,0)
(0,0,0)
(0,0,0)
(0,0,0)
(0,0,0)
(0,0,0)
(26762816.1455842,5134427.59345226,12113.4583576252)
(26754199.8467525,5128423.51038009,26830.9358132143)
(26731988.7522578,5115459.25484781,49229.6456731576)
(26683044.1737816,5092846.39306796,91879.1872830409)
(26578890.6130376,5052833.4351981,186470.049036768)
(26366985.6323299,4973547.29109033,406707.882127595)
(25985053.9604931,4795194.17199656,881338.122782776)
(25448685.1453244,4389076.81189444,1676516.9294439)
(23934249.9915978,3671372.64406629,3663099.20823126)
(18943778.9569994,2393627.24828159,10826586.6992148)
(0,0,0)
(0,0,0)
(0,0,0)
(0,0,0)
(0,0,0)
(0,0,0)
(20625276.6646707,12691904.886679,6203.09767436305)
(20621008.2629916,12685568.0354385,14087.2731279066)
(20610118.4537818,12671209.8241159,26875.4464237353)
(20586595.2296316,12643990.8216035,52169.3773575965)
(20538149.4969258,12591399.3663405,107474.441416874)
(20442922.6790352,12483556.1424983,228619.18493709)
(20266654.8882945,12254699.8753514,475451.090686519)
(19929126.3649094,11779017.1686461,959063.442028386)
(18944534.6922085,10819677.0478859,2385679.42948862)
(15403622.2221944,8433633.31459122,8433264.00211258)
(0,0,0)
(0,0,0)
(0,0,0)
(0,0,0)
(0,0,0)
(0,0,0)
(0,0,0)
(0,0,0)
(0,0,0)
(0,0,0)
(0,0,0)
(0,0,0)
(0,0,0)
(0,0,0)
(0,0,0)
(0,0,0)
(0,0,0)
(0,0,0)
(0,0,0)
(0,0,0)
(0,0,0)
(0,0,0)
(0,0,0)
(0,0,0)
(0,0,0)
(0,0,0)
(0,0,0)
(0,0,0)
(0,0,0)
(0,0,0)
(0,0,0)
(0,0,0)
(0,0,0)
(0,0,0)
(0,0,0)
(0,0,0)
(0,0,0)
(0,0,0)
(0,0,0)
(0,0,0)
(0,0,0)
(0,0,0)
(0,0,0)
(0,0,0)
(0,0,0)
(0,0,0)
(0,0,0)
(0,0,0)
(0,0,0)
(0,0,0)
(0,0,0)
(0,0,0)
(0,0,0)
(0,0,0)
(0,0,0)
(0,0,0)
(0,0,0)
(0,0,0)
(0,0,0)
(0,0,0)
(0,0,0)
(0,0,0)
(0,0,0)
(0,0,0)
(0,0,0)
(0,0,0)
(0,0,0)
(0,0,0)
(0,0,0)
(0,0,0)
(0,0,0)
(0,0,0)
(0,0,0)
(0,0,0)
(0,0,0)
(0,0,0)
(0,0,0)
(0,0,0)
(0,0,0)
(0,0,0)
(0,0,0)
(0,0,0)
(0,0,0)
(0,0,0)
(0,0,0)
(0,0,0)
(0,0,0)
(0,0,0)
(0,0,0)
(0,0,0)
(0,0,0)
(0,0,0)
(0,0,0)
(0,0,0)
(0,0,0)
(0,0,0)
(0,0,0)
(0,0,0)
(0,0,0)
(0,0,0)
(0,0,0)
(0,0,0)
(-541530.694880709,79122.9008947404,65922.9858346314)
(-563996.415774166,74335.8118421505,138757.529107444)
(-614677.478140647,63821.7801215844,226099.958711238)
(-706811.050466478,45803.6972157137,336444.05735153)
(-864471.274577829,18496.6324323476,476579.949831793)
(-1127608.59155818,-16851.7561031776,639149.867145894)
(-1557941.07968715,-49330.3134079421,758100.576674512)
(-2239026.42282055,-56093.4942263544,564065.594656229)
(-3215515.01261879,-38557.1523493965,-929120.081467836)
(-3941617.65211672,-17648.0851441757,-7849487.26717726)
(0,0,0)
(0,0,0)
(0,0,0)
(0,0,0)
(0,0,0)
(0,0,0)
(-565191.897078856,166006.869959153,61189.3407413982)
(-587286.396593565,156980.402611937,128307.215553594)
(-637462.855799021,136793.107486817,208140.594914589)
(-729704.1661389,100969.384438183,309195.824454394)
(-889766.71175101,43276.5801360355,441275.220339566)
(-1160057.93915603,-38878.4849882761,606629.387884001)
(-1600510.64540854,-124462.181621445,751320.028270352)
(-2275003.34353867,-138938.132902033,581557.909699167)
(-3233600.16001285,-86284.7666760177,-908301.818765214)
(-3948037.62886721,-36104.7473069754,-7831933.59279454)
(0,0,0)
(0,0,0)
(0,0,0)
(0,0,0)
(0,0,0)
(0,0,0)
(-618048.862371335,267793.91392468,52271.7912146202)
(-639393.439890276,255894.90868867,108285.798220608)
(-688689.013222775,228726.501650109,172504.386318306)
(-781819.423803542,178378.952465942,251661.325536626)
(-950188.415750072,90156.1794838227,359220.241143553)
(-1248355.91560404,-55179.1066434311,521029.500841184)
(-1742755.63668994,-244023.820191272,736806.23489169)
(-2399500.00309833,-270458.110192193,634141.453713678)
(-3288251.93635571,-138549.44593298,-858228.706171327)
(-3965596.52404029,-48534.9229886409,-7795954.5622841)
(0,0,0)
(0,0,0)
(0,0,0)
(0,0,0)
(0,0,0)
(0,0,0)
(-712594.326369245,389706.834863443,40430.78842835)
(-732785.747804643,377161.370051808,81279.7504788145)
(-780666.059985643,348432.819512744,122357.27299738)
(-875694.503645775,294146.837359669,163614.205785511)
(-1062851.23635842,193096.1410665,213977.48184086)
(-1442835.85794151,202.491019168943,332158.439074602)
(-2184649.99311856,-340934.134832371,710305.534549764)
(-2806892.31354304,-394364.738703146,765968.92111149)
(-3425062.19023018,-136751.029788105,-768290.07275293)
(-4003146.27092932,-29832.9938042992,-7747465.12400636)
(0,0,0)
(0,0,0)
(0,0,0)
(0,0,0)
(0,0,0)
(0,0,0)
(-871373.308999074,530994.531058812,27943.4760256602)
(-889922.085266783,520250.227272962,52698.6004194055)
(-935145.905207013,496501.645258339,68241.5117180465)
(-1030197.65238237,454391.823804081,62698.0524070097)
(-1239549.80739035,384502.549765851,21167.7434285041)
(-1775641.46366882,277681.566641967,-8958.06812976207)
(-3527856.24516254,155874.300614125,656863.986618937)
(-4184635.52239524,100772.914690532,1023559.78768061)
(-3693355.98030185,88709.9025693485,-661438.553143581)
(-4064689.2608344,56279.7399603955,-7717676.86166549)
(0,0,0)
(0,0,0)
(0,0,0)
(0,0,0)
(0,0,0)
(0,0,0)
(-1133215.23506758,674464.804868362,17289.176579135)
(-1149455.82600515,666902.230548203,29070.976659926)
(-1189946.94575113,651183.131957407,26257.786510474)
(-1278326.93015631,625939.209918877,-7070.57530320738)
(-1481907.13404767,588105.636382734,-85549.4134670838)
(-2016739.3904369,531596.624998394,-130708.561772478)
(-3683754.26194422,451590.401884159,601843.844519302)
(-4285516.28215969,405815.068818329,1011565.26877659)
(-3818193.23233134,293092.159188199,-693839.256300379)
(-4126112.41933428,146038.429547339,-7773872.76513981)
(0,0,0)
(0,0,0)
(0,0,0)
(0,0,0)
(0,0,0)
(0,0,0)
(-1561160.72517117,752195.265918048,9749.75296918323)
(-1574551.3121288,747939.679125562,13390.2028933854)
(-1608606.37731489,740589.305800636,1032.49463059325)
(-1685623.28756361,733326.354911718,-44867.6714285154)
(-1872545.07651966,731605.877590375,-141963.070423508)
(-2396321.45058829,739026.077452225,-210641.715672691)
(-4135168.30577933,740503.74442265,556109.221775128)
(-4691053.29308864,848559.175893023,898945.154753401)
(-4006943.83706295,474236.232539723,-840780.993112942)
(-4227515.42521498,196871.551436326,-7919728.6335277)
(0,0,0)
(0,0,0)
(0,0,0)
(0,0,0)
(0,0,0)
(0,0,0)
(-2244054.93529563,515411.627468928,5546.97657828067)
(-2254147.6983372,513387.28860773,6158.46922498688)
(-2280163.66293831,511768.42302164,-6163.78533569529)
(-2340590.24881095,518167.286507472,-46505.719000316)
(-2495293.63776076,552278.887340464,-134386.267655462)
(-2975879.61559234,661076.300249685,-209009.533993593)
(-4875440.58729364,894708.693271476,664346.880115866)
(-3973316.94846253,575027.929008885,524768.361892883)
(-4157353.93566494,211975.382724729,-1117975.82745617)
(-4384488.41076135,1915.99483030972,-8116431.29115633)
(0,0,0)
(0,0,0)
(0,0,0)
(0,0,0)
(0,0,0)
(0,0,0)
(-3223580.28199412,-1003711.35461169,3562.52609278294)
(-3230133.21703055,-1005377.13648566,4703.13140297626)
(-3246831.35309346,-1007023.80367685,358.579886502994)
(-3284024.23768312,-1004139.44238329,-12223.1633241572)
(-3369266.69649826,-988364.449242643,-25379.4007712941)
(-3573103.59171756,-950985.613352684,24814.8533122871)
(-4018592.82035977,-923693.44583702,344906.889707412)
(-4164286.37944824,-1130996.06800318,161945.527925868)
(-4547267.693532,-1318777.26097572,-1327741.02681006)
(-4619101.36969605,-1146805.31895773,-8118096.2698927)
(0,0,0)
(0,0,0)
(0,0,0)
(0,0,0)
(0,0,0)
(0,0,0)
(-3947861.94915737,-7934495.28659857,1965.66224874817)
(-3951033.99733399,-7936567.13007105,3241.0325934656)
(-3959022.85582765,-7940023.22291349,3424.87787343028)
(-3976219.44574187,-7943673.27924088,3816.50653815374)
(-4012867.36566434,-7947794.54445513,12306.5807745729)
(-4089660.56095691,-7960432.5579577,52379.8818054365)
(-4231480.46906634,-8013028.79137779,137893.701140882)
(-4389169.14750953,-8151176.99361834,-25586.7443912562)
(-4620492.72181052,-8125840.15270534,-1155453.32220883)
(-4458909.76790378,-6970692.71258495,-6970990.82204954)
(0,0,0)
(0,0,0)
(0,0,0)
(0,0,0)
(0,0,0)
(0,0,0)
(0,0,0)
(0,0,0)
(0,0,0)
(0,0,0)
(0,0,0)
(0,0,0)
(0,0,0)
(0,0,0)
(0,0,0)
(0,0,0)
(0,0,0)
(0,0,0)
(0,0,0)
(0,0,0)
(0,0,0)
(0,0,0)
(0,0,0)
(0,0,0)
(0,0,0)
(0,0,0)
(0,0,0)
(0,0,0)
(0,0,0)
(0,0,0)
(0,0,0)
(0,0,0)
(0,0,0)
(0,0,0)
(0,0,0)
(0,0,0)
(0,0,0)
(0,0,0)
(0,0,0)
(0,0,0)
(0,0,0)
(0,0,0)
(0,0,0)
(0,0,0)
(0,0,0)
(0,0,0)
(0,0,0)
(0,0,0)
(0,0,0)
(0,0,0)
(0,0,0)
(0,0,0)
(0,0,0)
(0,0,0)
(0,0,0)
(0,0,0)
(0,0,0)
(0,0,0)
(0,0,0)
(0,0,0)
(0,0,0)
(0,0,0)
(0,0,0)
(0,0,0)
(0,0,0)
(0,0,0)
(0,0,0)
(0,0,0)
(0,0,0)
(0,0,0)
(0,0,0)
(0,0,0)
(0,0,0)
(0,0,0)
(0,0,0)
(0,0,0)
(0,0,0)
(0,0,0)
(0,0,0)
(0,0,0)
(0,0,0)
(0,0,0)
(0,0,0)
(0,0,0)
(0,0,0)
(0,0,0)
(0,0,0)
(0,0,0)
(0,0,0)
(0,0,0)
(0,0,0)
(0,0,0)
(0,0,0)
(0,0,0)
(0,0,0)
(0,0,0)
(0,0,0)
(0,0,0)
(0,0,0)
(0,0,0)
(0,0,0)
(0,0,0)
(-640499.530384713,55402.9184305204,43565.9170734845)
(-659601.680223827,50986.4096811529,88184.771841992)
(-701507.481413898,40986.008046464,134028.767068781)
(-774505.498503759,22893.17876926,178830.036336801)
(-892326.318705415,-6790.79208155229,213475.872545941)
(-1073620.66265544,-49274.0383459328,208761.981989135)
(-1334278.07494464,-91841.8201091312,76940.7973557587)
(-1657470.66161459,-92008.0011709051,-412606.962679295)
(-1915921.44067566,-56554.3243678658,-1655646.21025454)
(-1664842.65426215,-23997.5411152327,-3908423.66699388)
(0,0,0)
(0,0,0)
(0,0,0)
(0,0,0)
(0,0,0)
(0,0,0)
(-662043.282808083,113043.383408531,39210.9207512157)
(-680072.601978005,104752.435361651,78231.1004551559)
(-719661.028677848,85467.4806291046,115947.800751344)
(-788799.80132996,48783.184199816,149153.430511845)
(-901267.851497865,-17154.0279608376,171017.806137983)
(-1077334.73258523,-127142.492398176,166163.053619426)
(-1336296.15609609,-266637.910516734,76744.6547145845)
(-1649675.0676919,-263377.762654247,-377213.85964884)
(-1903283.1215583,-140887.107280608,-1623198.11519066)
(-1657077.65266653,-53604.2647769589,-3884551.36772965)
(0,0,0)
(0,0,0)
(0,0,0)
(0,0,0)
(0,0,0)
(0,0,0)
(-709192.365778467,173165.986259003,31020.900556664)
(-725116.906310483,162390.18430304,59106.6180354772)
(-760124.454484527,136610.062545954,79399.4773803768)
(-821313.172319889,84383.4684680598,83292.9416284845)
(-922580.44384974,-22547.0177627342,61077.9595300479)
(-1091471.62577688,-249613.592954186,26664.7702588852)
(-1376876.78138211,-685844.052130305,79992.0565646339)
(-1650328.79921191,-677786.983363369,-254769.926612674)
(-1872530.83165223,-275358.768002595,-1536019.37059417)
(-1638058.65534246,-86081.4577703784,-3831080.04629858)
(0,0,0)
(0,0,0)
(0,0,0)
(0,0,0)
(0,0,0)
(0,0,0)
(-790519.199074744,230813.585981737,20277.2729827717)
(-803519.721258485,219929.447895528,33471.9828441292)
(-831758.663189312,193861.92122436,27312.7273693953)
(-880010.629120577,139575.931850942,-23563.6105386858)
(-959395.938597195,16386.8418077266,-165952.767870371)
(-1116261.96375393,-332563.27362374,-409576.981388396)
(-1684010.66689395,-1684091.81168144,88031.4519381215)
(-1772202.51184134,-1772068.74671106,147623.413584118)
(-1800962.60848247,-405030.767453439,-1346804.16871275)
(-1599620.34864411,-91372.8930358528,-3745038.65573249)
(0,0,0)
(0,0,0)
(0,0,0)
(0,0,0)
(0,0,0)
(0,0,0)
(-919122.531344036,269121.293246615,9441.51508008367)
(-928766.282144603,260669.894075291,7545.26577814101)
(-948537.416092689,241615.625606521,-26816.9277183433)
(-976958.060701761,206163.87928386,-146644.466831869)
(-997102.899628956,142109.933724085,-514814.466509625)
(-898546.523032633,36603.7247676994,-1761076.40553725)
(-3.69148751286515e-05,-1.10462218061547e-05,2.53176448434863e-05)