/*--------------------------------*- C++ -*----------------------------------*\
| =========                 |                                                 |
| \\      /  F ield         | foam-extend: Open Source CFD                    |
|  \\    /   O peration     | Version:     4.0                                |
|   \\  /    A nd           | Web:         http://www.foam-extend.org         |
|    \\/     M anipulation  |                                                 |
\*---------------------------------------------------------------------------*/
FoamFile
{
    version 2.0;
    format ascii;
    class volVectorField;
    location "2925";
    object      E;
}
// * * * * * * * * * * * * * * * * * * * * * * * * * * * * * * * * * * * * * //

dimensions      [0 1 -1 0 0 0 0];

internalField   nonuniform List<vector>
4096
(
(0,0,0)
(0,0,0)
(0,0,0)
(0,0,0)
(0,0,0)
(0,0,0)
(0,0,0)
(0,0,0)
(0,0,0)
(0,0,0)
(0,0,0)
(0,0,0)
(0,0,0)
(0,0,0)
(0,0,0)
(0,0,0)
(0,0,0)
(0,0,0)
(0,0,0)
(0,0,0)
(0,0,0)
(0,0,0)
(0,0,0)
(0,0,0)
(0,0,0)
(0,0,0)
(0,0,0)
(0,0,0)
(0,0,0)
(0,0,0)
(0,0,0)
(0,0,0)
(0,0,0)
(0,0,0)
(0,0,0)
(0,0,0)
(0,0,0)
(0,0,0)
(0,0,0)
(0,0,0)
(0,0,0)
(0,0,0)
(0,0,0)
(0,0,0)
(0,0,0)
(0,0,0)
(0,0,0)
(0,0,0)
(0,0,0)
(0,0,0)
(0,0,0)
(0,0,0)
(0,0,0)
(0,0,0)
(0,0,0)
(0,0,0)
(0,0,0)
(0,0,0)
(0,0,0)
(0,0,0)
(0,0,0)
(0,0,0)
(0,0,0)
(0,0,0)
(0,0,0)
(0,0,0)
(0,0,0)
(0,0,0)
(0,0,0)
(0,0,0)
(0,0,0)
(0,0,0)
(0,0,0)
(0,0,0)
(0,0,0)
(0,0,0)
(0,0,0)
(0,0,0)
(0,0,0)
(0,0,0)
(0,0,0)
(0,0,0)
(0,0,0)
(0,0,0)
(0,0,0)
(0,0,0)
(0,0,0)
(0,0,0)
(0,0,0)
(0,0,0)
(0,0,0)
(0,0,0)
(0,0,0)
(0,0,0)
(0,0,0)
(0,0,0)
(0,0,0)
(0,0,0)
(0,0,0)
(0,0,0)
(0,0,0)
(0,0,0)
(0,0,0)
(0,0,0)
(0,0,0)
(0,0,0)
(0,0,0)
(0,0,0)
(0,0,0)
(0,0,0)
(0,0,0)
(0,0,0)
(0,0,0)
(0,0,0)
(0,0,0)
(0,0,0)
(0,0,0)
(0,0,0)
(0,0,0)
(0,0,0)
(0,0,0)
(0,0,0)
(0,0,0)
(0,0,0)
(0,0,0)
(0,0,0)
(0,0,0)
(0,0,0)
(0,0,0)
(0,0,0)
(0,0,0)
(0,0,0)
(0,0,0)
(0,0,0)
(0,0,0)
(0,0,0)
(0,0,0)
(0,0,0)
(0,0,0)
(0,0,0)
(0,0,0)
(0,0,0)
(0,0,0)
(0,0,0)
(0,0,0)
(0,0,0)
(0,0,0)
(0,0,0)
(0,0,0)
(0,0,0)
(0,0,0)
(0,0,0)
(0,0,0)
(0,0,0)
(0,0,0)
(0,0,0)
(0,0,0)
(0,0,0)
(0,0,0)
(0,0,0)
(0,0,0)
(0,0,0)
(0,0,0)
(0,0,0)
(0,0,0)
(0,0,0)
(0,0,0)
(0,0,0)
(0,0,0)
(0,0,0)
(0,0,0)
(0,0,0)
(0,0,0)
(0,0,0)
(0,0,0)
(0,0,0)
(0,0,0)
(0,0,0)
(0,0,0)
(0,0,0)
(0,0,0)
(0,0,0)
(0,0,0)
(0,0,0)
(0,0,0)
(0,0,0)
(0,0,0)
(0,0,0)
(0,0,0)
(0,0,0)
(0,0,0)
(0,0,0)
(0,0,0)
(0,0,0)
(0,0,0)
(0,0,0)
(0,0,0)
(0,0,0)
(0,0,0)
(0,0,0)
(0,0,0)
(0,0,0)
(0,0,0)
(0,0,0)
(0,0,0)
(0,0,0)
(0,0,0)
(0,0,0)
(0,0,0)
(0,0,0)
(0,0,0)
(0,0,0)
(0,0,0)
(0,0,0)
(0,0,0)
(0,0,0)
(0,0,0)
(0,0,0)
(0,0,0)
(0,0,0)
(0,0,0)
(0,0,0)
(0,0,0)
(0,0,0)
(0,0,0)
(0,0,0)
(0,0,0)
(0,0,0)
(0,0,0)
(0,0,0)
(0,0,0)
(0,0,0)
(0,0,0)
(0,0,0)
(0,0,0)
(0,0,0)
(0,0,0)
(0,0,0)
(0,0,0)
(0,0,0)
(0,0,0)
(0,0,0)
(0,0,0)
(0,0,0)
(0,0,0)
(0,0,0)
(0,0,0)
(0,0,0)
(0,0,0)
(0,0,0)
(0,0,0)
(0,0,0)
(0,0,0)
(0,0,0)
(0,0,0)
(0,0,0)
(0,0,0)
(0,0,0)
(0,0,0)
(0,0,0)
(0,0,0)
(0,0,0)
(0,0,0)
(0,0,0)
(0,0,0)
(0,0,0)
(0,0,0)
(0,0,0)
(0,0,0)
(0,0,0)
(0,0,0)
(0,0,0)
(0,0,0)
(0,0,0)
(0,0,0)
(0,0,0)
(0,0,0)
(0,0,0)
(0,0,0)
(0,0,0)
(0,0,0)
(0,0,0)
(0,0,0)
(0,0,0)
(0,0,0)
(0,0,0)
(0,0,0)
(0,0,0)
(0,0,0)
(0,0,0)
(0,0,0)
(0,0,0)
(0,0,0)
(0,0,0)
(0,0,0)
(0,0,0)
(0,0,0)
(0,0,0)
(0,0,0)
(0,0,0)
(0,0,0)
(0,0,0)
(0,0,0)
(0,0,0)
(0,0,0)
(0,0,0)
(0,0,0)
(0,0,0)
(0,0,0)
(0,0,0)
(0,0,0)
(0,0,0)
(0,0,0)
(0,0,0)
(0,0,0)
(0,0,0)
(0,0,0)
(0,0,0)
(0,0,0)
(0,0,0)
(0,0,0)
(0,0,0)
(0,0,0)
(0,0,0)
(0,0,0)
(0,0,0)
(0,0,0)
(0,0,0)
(0,0,0)
(0,0,0)
(0,0,0)
(0,0,0)
(0,0,0)
(0,0,0)
(0,0,0)
(0,0,0)
(0,0,0)
(0,0,0)
(0,0,0)
(0,0,0)
(0,0,0)
(0,0,0)
(0,0,0)
(0,0,0)
(0,0,0)
(0,0,0)
(0,0,0)
(0,0,0)
(0,0,0)
(0,0,0)
(0,0,0)
(0,0,0)
(0,0,0)
(0,0,0)
(0,0,0)
(0,0,0)
(0,0,0)
(0,0,0)
(0,0,0)
(0,0,0)
(0,0,0)
(0,0,0)
(0,0,0)
(0,0,0)
(0,0,0)
(0,0,0)
(0,0,0)
(0,0,0)
(0,0,0)
(0,0,0)
(0,0,0)
(0,0,0)
(0,0,0)
(0,0,0)
(0,0,0)
(0,0,0)
(0,0,0)
(0,0,0)
(0,0,0)
(0,0,0)
(0,0,0)
(0,0,0)
(0,0,0)
(0,0,0)
(0,0,0)
(0,0,0)
(0,0,0)
(0,0,0)
(0,0,0)
(0,0,0)
(0,0,0)
(0,0,0)
(0,0,0)
(0,0,0)
(0,0,0)
(0,0,0)
(0,0,0)
(0,0,0)
(0,0,0)
(0,0,0)
(0,0,0)
(0,0,0)
(0,0,0)
(0,0,0)
(0,0,0)
(0,0,0)
(0,0,0)
(0,0,0)
(0,0,0)
(0,0,0)
(0,0,0)
(0,0,0)
(0,0,0)
(0,0,0)
(0,0,0)
(0,0,0)
(0,0,0)
(0,0,0)
(0,0,0)
(0,0,0)
(0,0,0)
(0,0,0)
(0,0,0)
(0,0,0)
(0,0,0)
(0,0,0)
(0,0,0)
(0,0,0)
(0,0,0)
(0,0,0)
(0,0,0)
(0,0,0)
(0,0,0)
(0,0,0)
(0,0,0)
(0,0,0)
(0,0,0)
(0,0,0)
(0,0,0)
(0,0,0)
(0,0,0)
(0,0,0)
(0,0,0)
(0,0,0)
(0,0,0)
(0,0,0)
(0,0,0)
(0,0,0)
(0,0,0)
(0,0,0)
(0,0,0)
(0,0,0)
(0,0,0)
(0,0,0)
(0,0,0)
(0,0,0)
(0,0,0)
(0,0,0)
(0,0,0)
(0,0,0)
(0,0,0)
(0,0,0)
(0,0,0)
(0,0,0)
(0,0,0)
(0,0,0)
(0,0,0)
(0,0,0)
(0,0,0)
(0,0,0)
(0,0,0)
(0,0,0)
(0,0,0)
(0,0,0)
(0,0,0)
(0,0,0)
(0,0,0)
(0,0,0)
(0,0,0)
(0,0,0)
(0,0,0)
(0,0,0)
(0,0,0)
(0,0,0)
(0,0,0)
(0,0,0)
(0,0,0)
(0,0,0)
(0,0,0)
(0,0,0)
(0,0,0)
(0,0,0)
(0,0,0)
(0,0,0)
(0,0,0)
(0,0,0)
(0,0,0)
(0,0,0)
(0,0,0)
(0,0,0)
(0,0,0)
(0,0,0)
(0,0,0)
(0,0,0)
(0,0,0)
(0,0,0)
(0,0,0)
(0,0,0)
(0,0,0)
(0,0,0)
(0,0,0)
(0,0,0)
(0,0,0)
(0,0,0)
(0,0,0)
(0,0,0)
(0,0,0)
(0,0,0)
(0,0,0)
(0,0,0)
(0,0,0)
(0,0,0)
(0,0,0)
(0,0,0)
(0,0,0)
(0,0,0)
(0,0,0)
(0,0,0)
(0,0,0)
(0,0,0)
(0,0,0)
(0,0,0)
(0,0,0)
(0,0,0)
(0,0,0)
(0,0,0)
(0,0,0)
(0,0,0)
(0,0,0)
(0,0,0)
(0,0,0)
(0,0,0)
(0,0,0)
(0,0,0)
(0,0,0)
(0,0,0)
(0,0,0)
(0,0,0)
(0,0,0)
(0,0,0)
(0,0,0)
(0,0,0)
(0,0,0)
(0,0,0)
(0,0,0)
(0,0,0)
(0,0,0)
(0,0,0)
(0,0,0)
(0,0,0)
(0,0,0)
(0,0,0)
(0,0,0)
(0,0,0)
(0,0,0)
(0,0,0)
(0,0,0)
(0,0,0)
(0,0,0)
(0,0,0)
(0,0,0)
(0,0,0)
(0,0,0)
(0,0,0)
(0,0,0)
(0,0,0)
(0,0,0)
(0,0,0)
(0,0,0)
(0,0,0)
(0,0,0)
(0,0,0)
(0,0,0)
(0,0,0)
(0,0,0)
(0,0,0)
(0,0,0)
(0,0,0)
(0,0,0)
(0,0,0)
(0,0,0)
(0,0,0)
(0,0,0)
(0,0,0)
(0,0,0)
(0,0,0)
(0,0,0)
(0,0,0)
(0,0,0)
(0,0,0)
(0,0,0)
(0,0,0)
(0,0,0)
(0,0,0)
(0,0,0)
(0,0,0)
(0,0,0)
(0,0,0)
(0,0,0)
(0,0,0)
(0,0,0)
(0,0,0)
(0,0,0)
(0,0,0)
(0,0,0)
(0,0,0)
(0,0,0)
(0,0,0)
(0,0,0)
(0,0,0)
(0,0,0)
(0,0,0)
(0,0,0)
(0,0,0)
(0,0,0)
(0,0,0)
(0,0,0)
(0,0,0)
(0,0,0)
(0,0,0)
(0,0,0)
(0,0,0)
(0,0,0)
(0,0,0)
(0,0,0)
(0,0,0)
(0,0,0)
(0,0,0)
(0,0,0)
(0,0,0)
(0,0,0)
(0,0,0)
(0,0,0)
(0,0,0)
(0,0,0)
(0,0,0)
(0,0,0)
(0,0,0)
(0,0,0)
(0,0,0)
(0,0,0)
(0,0,0)
(0,0,0)
(0,0,0)
(0,0,0)
(0,0,0)
(0,0,0)
(0,0,0)
(0,0,0)
(0,0,0)
(0,0,0)
(0,0,0)
(0,0,0)
(0,0,0)
(0,0,0)
(0,0,0)
(0,0,0)
(0,0,0)
(0,0,0)
(0,0,0)
(0,0,0)
(0,0,0)
(0,0,0)
(0,0,0)
(0,0,0)
(0,0,0)
(0,0,0)
(0,0,0)
(0,0,0)
(0,0,0)
(0,0,0)
(0,0,0)
(0,0,0)
(0,0,0)
(0,0,0)
(0,0,0)
(0,0,0)
(0,0,0)
(0,0,0)
(0,0,0)
(0,0,0)
(0,0,0)
(0,0,0)
(0,0,0)
(0,0,0)
(0,0,0)
(0,0,0)
(0,0,0)
(0,0,0)
(0,0,0)
(0,0,0)
(0,0,0)
(0,0,0)
(0,0,0)
(0,0,0)
(0,0,0)
(0,0,0)
(0,0,0)
(0,0,0)
(0,0,0)
(0,0,0)
(0,0,0)
(0,0,0)
(0,0,0)
(0,0,0)
(0,0,0)
(0,0,0)
(0,0,0)
(0,0,0)
(0,0,0)
(0,0,0)
(0,0,0)
(0,0,0)
(0,0,0)
(0,0,0)
(0,0,0)
(0,0,0)
(0,0,0)
(0,0,0)
(0,0,0)
(0,0,0)
(0,0,0)
(0,0,0)
(0,0,0)
(0,0,0)
(0,0,0)
(0,0,0)
(0,0,0)
(0,0,0)
(0,0,0)
(0,0,0)
(0,0,0)
(0,0,0)
(0,0,0)
(0,0,0)
(0,0,0)
(0,0,0)
(0,0,0)
(0,0,0)
(0,0,0)
(0,0,0)
(0,0,0)
(0,0,0)
(0,0,0)
(0,0,0)
(0,0,0)
(0,0,0)
(0,0,0)
(0,0,0)
(0,0,0)
(0,0,0)
(0,0,0)
(0,0,0)
(0,0,0)
(0,0,0)
(0,0,0)
(0,0,0)
(0,0,0)
(0,0,0)
(0,0,0)
(0,0,0)
(0,0,0)
(0,0,0)
(0,0,0)
(0,0,0)
(0,0,0)
(0,0,0)
(0,0,0)
(0,0,0)
(0,0,0)
(0,0,0)
(0,0,0)
(0,0,0)
(0,0,0)
(0,0,0)
(0,0,0)
(0,0,0)
(0,0,0)
(0,0,0)
(0,0,0)
(0,0,0)
(0,0,0)
(0,0,0)
(0,0,0)
(0,0,0)
(0,0,0)
(0,0,0)
(0,0,0)
(0,0,0)
(0,0,0)
(0,0,0)
(0,0,0)
(0,0,0)
(0,0,0)
(0,0,0)
(0,0,0)
(0,0,0)
(0,0,0)
(0,0,0)
(0,0,0)
(0,0,0)
(0,0,0)
(0,0,0)
(0,0,0)
(0,0,0)
(0,0,0)
(0,0,0)
(0,0,0)
(0,0,0)
(-64983.6666429229,34447.1095390844,30536.5571038375)
(-68727.2178164882,33067.659834938,66196.1150853868)
(-77446.463249262,30081.9118385878,113560.666496058)
(-93916.5709962118,25397.0396445596,182080.197847721)
(-123588.703280329,19099.6059783156,286569.295149733)
(-176800.619725619,11810.8338475754,451559.081027782)
(-273216.190606341,5239.09282371013,719536.178810435)
(-447455.45799714,1210.98287607129,1165780.65393151)
(-738233.892172955,-89.6859355428556,1904104.23203998)
(-1028744.32716488,-155.948051813723,2933004.50725675)
(0,0,0)
(0,0,0)
(0,0,0)
(0,0,0)
(0,0,0)
(0,0,0)
(-68731.5113551748,74099.2071674373,29079.4137268202)
(-72510.0237238698,71430.4904870911,63226.6067985396)
(-81378.6549574067,65742.7479267062,108944.425667825)
(-98251.9402624211,56740.6819793423,175852.723595464)
(-128737.497171406,44308.6008088835,279381.225936299)
(-183248.148525392,29455.6160110663,444984.592298189)
(-280739.289456651,15456.393357851,715506.58122069)
(-454307.265179596,6574.65192943564,1164450.17734688)
(-742778.980815002,3130.25008217036,1904009.22214422)
(-1030865.07423817,1587.07783207082,2933131.27049841)
(0,0,0)
(0,0,0)
(0,0,0)
(0,0,0)
(0,0,0)
(0,0,0)
(-77342.2413044903,125022.428039164,26419.0204327634)
(-81195.4115572561,121417.150146823,57627.7723302914)
(-90343.8201996949,113734.25888489,99980.0815718081)
(-108041.777318416,101307.14631293,163455.394556638)
(-140455.011814742,83586.4012942784,264632.605885972)
(-198358.836692181,61431.6585802838,431015.400008938)
(-299226.307873861,39004.73022957,706693.371011094)
(-471343.711393095,23571.7974669481,1161039.93686662)
(-753752.560997831,15483.9763991917,1902438.7715475)
(-1035849.85575606,8395.57106074343,2931480.13407488)
(0,0,0)
(0,0,0)
(0,0,0)
(0,0,0)
(0,0,0)
(0,0,0)
(-93366.538237525,195553.999375023,22834.9669016668)
(-97321.4187395,191559.630434191,50013.9053538006)
(-106822.651518427,182988.969841786,87581.8459153233)
(-125724.919176273,168887.130517269,145726.78088725)
(-161361.618654896,148207.083619183,242467.717217252)
(-225746.863706244,121058.794645896,408587.444857875)
(-334613.044330581,90869.2012134141,691336.018204609)
(-504270.863629532,66198.6731958253,1152980.00610524)
(-773854.340275841,47002.7973629445,1895315.52541726)
(-1044626.86987294,25275.0832866823,2923062.88306444)
(0,0,0)
(0,0,0)
(0,0,0)
(0,0,0)
(0,0,0)
(0,0,0)
(-122136.158712469,298894.331361643,18795.8267258428)
(-126090.825865057,295026.864146616,41419.4188784735)
(-135770.051365396,286724.253302968,73454.1867826863)
(-155684.106378388,273011.036399477,125014.387278867)
(-194659.502746823,252655.8310825,215225.142562375)
(-267065.572762155,225004.064951082,378345.445019324)
(-388460.238968247,191038.224043086,666636.661157897)
(-554346.042635125,153429.220806252,1133752.15618264)
(-803020.758932444,110254.849856231,1873520.8626219)
(-1057281.13956474,58417.1659022325,2897659.91957109)
(0,0,0)
(0,0,0)
(0,0,0)
(0,0,0)
(0,0,0)
(0,0,0)
(-174115.718979128,458164.449906364,14845.6004344136)
(-177855.35877028,454708.879642023,33018.9437092788)
(-187197.746642254,447317.647158498,59623.2964960064)
(-206904.219802913,434997.282494996,104541.27020339)
(-246275.607972554,416068.872040606,187403.837217847)
(-320046.762396545,388180.638181113,344274.02638437)
(-441773.776840543,348122.462255445,628963.565012547)
(-600138.514195798,292004.149853232,1090527.15016138)
(-834590.946781693,213779.27374061,1821593.67305875)
(-1073185.7979463,114115.606283202,2839081.03062401)
(0,0,0)
(0,0,0)
(0,0,0)
(0,0,0)
(0,0,0)
(0,0,0)
(-269448.975726733,716252.94470857,11360.4809245192)
(-272764.824161062,713262.58797784,25571.5967497711)
(-281139.477778302,706839.128960636,47189.5927259372)
(-299137.56802614,695843.279549916,85481.1636971563)
(-335673.063119088,677894.963240945,159328.135615904)
(-404952.212059854,648369.793680557,304091.192176325)
(-519170.131735206,598629.155052255,572754.631114735)
(-663191.733260484,515790.955399602,1012159.55882885)
(-881661.643202167,385942.845252423,1721657.63051914)
(-1099158.8618836,210304.423776551,2724627.67490948)
(0,0,0)
(0,0,0)
(0,0,0)
(0,0,0)
(0,0,0)
(0,0,0)
(-443767.337416862,1151659.56391418,8360.71821125172)
(-446437.14852993,1148980.31822012,19080.1364989172)
(-453183.52097577,1143027.76708618,36075.0193491626)
(-467809.582328616,1132295.54832258,67432.3329050984)
(-497800.471160409,1113470.5118133,129657.255493156)
(-555370.910184905,1079212.27867425,254185.680684359)
(-651013.625642659,1014111.22393849,489717.237440742)
(-767658.95301892,891142.634407417,882024.511451869)
(-967191.04030008,689539.83735303,1545618.55965134)
(-1148855.08155621,390883.508318704,2513894.55666536)
(0,0,0)
(0,0,0)
(0,0,0)
(0,0,0)
(0,0,0)
(0,0,0)
(-735680.118662449,1881709.68051171,5630.00206491338)
(-737496.466063264,1879064.85545355,13041.9308947399)
(-742088.837071403,1872899.6587864,25258.8762658668)
(-751932.838026014,1860979.02841818,48508.2341962614)
(-771737.766647362,1838439.67228542,95276.8403715076)
(-808989.45737543,1794588.957425,188889.618996194)
(-871606.706975749,1708159.59730995,366447.952600484)
(-964772.485125336,1542315.89262071,680047.179512555)
(-1124974.381931,1247957.66550335,1246603.73329312)
(-1235561.29548599,750427.891878155,2122620.64521967)
(0,0,0)
(0,0,0)
(0,0,0)
(0,0,0)
(0,0,0)
(0,0,0)
(-1027556.59487527,2906374.96808247,2891.30730450187)
(-1028448.00331532,2903650.51649147,6753.6495818958)
(-1030732.80364243,2897116.31252198,13269.7994887654)
(-1035578.38767232,2883959.8306841,25867.3848952188)
(-1045183.64416254,2858142.57225594,51348.1290872545)
(-1063142.33012742,2806790.75423431,102288.662405331)
(-1094476.64518757,2704641.15238272,200283.752520114)
(-1147341.93933203,2504673.67172994,385267.912742905)
(-1235247.35818296,2119781.94313204,748690.993297117)
(-1244099.78529195,1371446.81661682,1371771.85385046)
(0,0,0)
(0,0,0)
(0,0,0)
(0,0,0)
(0,0,0)
(0,0,0)
(0,0,0)
(0,0,0)
(0,0,0)
(0,0,0)
(0,0,0)
(0,0,0)
(0,0,0)
(0,0,0)
(0,0,0)
(0,0,0)
(0,0,0)
(0,0,0)
(0,0,0)
(0,0,0)
(0,0,0)
(0,0,0)
(0,0,0)
(0,0,0)
(0,0,0)
(0,0,0)
(0,0,0)
(0,0,0)
(0,0,0)
(0,0,0)
(0,0,0)
(0,0,0)
(0,0,0)
(0,0,0)
(0,0,0)
(0,0,0)
(0,0,0)
(0,0,0)
(0,0,0)
(0,0,0)
(0,0,0)
(0,0,0)
(0,0,0)
(0,0,0)
(0,0,0)
(0,0,0)
(0,0,0)
(0,0,0)
(0,0,0)
(0,0,0)
(0,0,0)
(0,0,0)
(0,0,0)
(0,0,0)
(0,0,0)
(0,0,0)
(0,0,0)
(0,0,0)
(0,0,0)
(0,0,0)
(0,0,0)
(0,0,0)
(0,0,0)
(0,0,0)
(0,0,0)
(0,0,0)
(0,0,0)
(0,0,0)
(0,0,0)
(0,0,0)
(0,0,0)
(0,0,0)
(0,0,0)
(0,0,0)
(0,0,0)
(0,0,0)
(0,0,0)
(0,0,0)
(0,0,0)
(0,0,0)
(0,0,0)
(0,0,0)
(0,0,0)
(0,0,0)
(0,0,0)
(0,0,0)
(0,0,0)
(0,0,0)
(0,0,0)
(0,0,0)
(0,0,0)
(0,0,0)
(0,0,0)
(0,0,0)
(0,0,0)
(0,0,0)
(0,0,0)
(0,0,0)
(0,0,0)
(0,0,0)
(0,0,0)
(0,0,0)
(9650393.29511365,30689.0515066684,26786.1148677361)
(9644114.07857575,29247.2047358366,57549.7418707671)
(9629609.60810053,26141.0456810721,97204.7529708138)
(9602549.55484116,21087.777297571,152502.977966837)
(9554386.20069044,13973.2411430758,233406.960983934)
(9468771.88990005,5437.13316318432,355249.446326022)
(9311658.16440343,-2207.34314525299,545434.562592352)
(9001211.22096196,-5593.80346069772,875213.815224948)
(8300631.97384259,-4610.53644056301,1613810.61378099)
(6398068.49610771,-2266.60893448134,3962116.52757394)
(0,0,0)
(0,0,0)
(0,0,0)
(0,0,0)
(0,0,0)
(0,0,0)
(9644040.26612227,65477.51937428,25291.882785963)
(9637724.50996529,62728.9453736173,54427.7365900803)
(9623070.90652286,56792.2598222156,92179.0890996853)
(9595475.00480155,46966.011618544,145426.037845788)
(9546004.80337365,32592.0803490469,224917.026225803)
(9457970.36890573,14387.048633128,347600.721455758)
(9298442.46140103,-2978.27860460885,542042.034188533)
(8989292.02327744,-10415.3681810133,876116.438582761)
(8293254.27540481,-7794.72414650715,1616119.49819981)
(6394859.02320873,-3366.01558908645,3964346.93553836)
(0,0,0)
(0,0,0)
(0,0,0)
(0,0,0)
(0,0,0)
(0,0,0)
(9629478.11976308,108953.471193322,22555.8152442642)
(9623130.96322168,105289.354504518,48521.1594653808)
(9608194.80200257,97276.3970176485,82350.5281987346)
(9579401.95784028,83654.5635333228,131070.369256397)
(9526523.0342009,62746.7636558867,206789.768064949)
(9431266.06220239,34108.4140549998,330295.631879591)
(9262578.07252633,3668.37653333207,534696.7244725)
(8956346.99037099,-9304.44056013617,878747.223218645)
(8274071.95940194,-4559.21593954054,1620539.32274273)
(6386879.60255775,-354.219277227463,3967650.19624816)
(0,0,0)
(0,0,0)
(0,0,0)
(0,0,0)
(0,0,0)
(0,0,0)
(9602714.2066105,166807.54129694,18917.3131793252)
(9596353.2019372,162824.281558092,40559.8935800862)
(9581063.32910382,154071.254231411,68731.1838750855)
(9550402.88494095,138983.458322347,110126.613099906)
(9491202.48736637,115031.773336052,178129.625529544)
(9379648.83627078,79840.6899628253,299853.777775685)
(9182913.75543559,37057.4665283224,521790.016145598)
(8881408.88871549,16143.5432764123,883514.408095126)
(8235333.36266055,17863.3789492272,1624756.23840083)
(6371973.45442834,12638.4380466948,3968015.38490684)
(0,0,0)
(0,0,0)
(0,0,0)
(0,0,0)
(0,0,0)
(0,0,0)
(9555568.16626444,247047.207542137,14908.1369088954)
(9549356.53338369,243349.745302837,31787.4420463769)
(9534013.08000158,235354.494032323,53573.1990096233)
(9501766.68463972,221865.719250471,86092.275194332)
(9435330.8710716,201133.751649329,142852.05119376)
(9299358.26734488,172101.259045669,257019.770135006)
(9039836.97316154,137768.344042907,500863.808621676)
(8742640.31792763,107672.44335827,885200.67610814)
(8174750.83553815,78698.6625440794,1619445.92617357)
(6349888.59213758,42505.9306249933,3955260.83002383)
(0,0,0)
(0,0,0)
(0,0,0)
(0,0,0)
(0,0,0)
(0,0,0)
(9471654.30239874,362958.691632591,11170.6226625869)
(9465897.62533047,359907.66120566,23711.8507899895)
(9451313.55467153,353467.081937868,39940.0897016994)
(9419676.62320504,342859.486453738,65217.6076216371)
(9352514.52928946,326746.297873626,113667.052266332)
(9212697.93312744,303309.519045227,222566.224873732)
(8950007.00443882,270734.890638233,470671.025130124)
(8665955.13648817,228959.052070717,856142.893864712)
(8123262.50692914,166729.8460376,1583110.3847914)
(6324612.32497486,88146.1612450613,3912524.15938107)
(0,0,0)
(0,0,0)
(0,0,0)
(0,0,0)
(0,0,0)
(0,0,0)
(9316181.68158459,542070.561891338,8109.60056094659)
(9311155.50057173,539726.135169696,17222.929995101)
(9298243.88666344,534927.662394369,29231.1132279397)
(9269547.98912524,527282.030048343,48975.1406129055)
(9206993.36369484,515836.124027615,90071.0157760078)
(9073385.34495638,498003.566100709,189891.539835198)
(8818711.48586969,466813.417230654,428783.523768818)
(8562318.91616561,411348.63767802,793735.416866449)
(8046928.90475048,300465.302337119,1504261.54074518)
(6281441.34264972,160642.535917391,3824017.08967059)
(0,0,0)
(0,0,0)
(0,0,0)
(0,0,0)
(0,0,0)
(0,0,0)
(9005466.35253585,859929.029430343,5759.9706393266)
(9001471.43082786,858072.340904261,12357.3136779345)
(8991193.06414254,854273.120703426,21487.3983816043)
(8968042.34988098,848329.559482935,37440.0648683829)
(8916542.21159519,839683.338074398,72102.2961969016)
(8803267.74721065,825740.73672957,158578.596303617)
(8580479.13910783,793623.228595565,373128.148319258)
(8413037.94365587,694088.934353286,682543.08310005)
(7892789.82364424,531816.610437811,1364063.03918604)
(6181476.91257962,304245.432655414,3662980.27644315)
(0,0,0)
(0,0,0)
(0,0,0)
(0,0,0)
(0,0,0)
(0,0,0)
(8303147.80341054,1590098.30884053,3854.92664789233)
(8300465.7195924,1588337.55949723,8479.65053031056)
(8293591.76486963,1584467.5315376,15456.7658860722)
(8278443.67986742,1577561.53566282,28700.3999437214)
(8246224.93628664,1565235.09236484,58038.0708502161)
(8180643.28257121,1540686.59444016,126311.601324111)
(8062335.09970895,1485493.47276786,273351.678598225)
(7895742.83194238,1359869.11825929,519908.305755576)
(7425712.12322525,1137760.46873311,1136130.07043507)
(5877320.29374273,741967.324075516,3358378.71791726)
(0,0,0)
(0,0,0)
(0,0,0)
(0,0,0)
(0,0,0)
(0,0,0)
(6399033.30533276,3934366.19670846,1994.34005498697)
(6397717.35254951,3932542.32220626,4476.34961203796)
(6394334.71989513,3928276.69350485,8451.79223828474)
(6387041.98024458,3919953.96922323,16291.118892098)
(6372050.5031184,3903718.80917613,33425.3829309519)
(6342558.46286142,3870293.79474722,70969.5177661276)
(6287932.82584632,3799446.03982014,147459.607810986)
(6183147.72582717,3652280.18644707,297411.00259519)
(5877600.13653995,3355239.5243026,739936.58043386)
(4778968.40322769,2615678.10136562,2616009.74275511)
(0,0,0)
(0,0,0)
(0,0,0)
(0,0,0)
(0,0,0)
(0,0,0)
(0,0,0)
(0,0,0)
(0,0,0)
(0,0,0)
(0,0,0)
(0,0,0)
(0,0,0)
(0,0,0)
(0,0,0)
(0,0,0)
(0,0,0)
(0,0,0)
(0,0,0)
(0,0,0)
(0,0,0)
(0,0,0)
(0,0,0)
(0,0,0)
(0,0,0)
(0,0,0)
(0,0,0)
(0,0,0)
(0,0,0)
(0,0,0)
(0,0,0)
(0,0,0)
(0,0,0)
(0,0,0)
(0,0,0)
(0,0,0)
(0,0,0)
(0,0,0)
(0,0,0)
(0,0,0)
(0,0,0)
(0,0,0)
(0,0,0)
(0,0,0)
(0,0,0)
(0,0,0)
(0,0,0)
(0,0,0)
(0,0,0)
(0,0,0)
(0,0,0)
(0,0,0)
(0,0,0)
(0,0,0)
(0,0,0)
(0,0,0)
(0,0,0)
(0,0,0)
(0,0,0)
(0,0,0)
(0,0,0)
(0,0,0)
(0,0,0)
(0,0,0)
(0,0,0)
(0,0,0)
(0,0,0)
(0,0,0)
(0,0,0)
(0,0,0)
(0,0,0)
(0,0,0)
(0,0,0)
(0,0,0)
(0,0,0)
(0,0,0)
(0,0,0)
(0,0,0)
(0,0,0)
(0,0,0)
(0,0,0)
(0,0,0)
(0,0,0)
(0,0,0)
(0,0,0)
(0,0,0)
(0,0,0)
(0,0,0)
(0,0,0)
(0,0,0)
(0,0,0)
(0,0,0)
(0,0,0)
(0,0,0)
(0,0,0)
(0,0,0)
(0,0,0)
(0,0,0)
(0,0,0)
(0,0,0)
(0,0,0)
(0,0,0)
(-167191.23537844,24224.0595921267,20508.3427689869)
(-174156.240313596,22783.5002070983,43143.0333201248)
(-189932.189172591,19575.1274493124,70257.5750130249)
(-218544.244908719,14021.8638721855,104477.382759749)
(-267471.195824527,5572.7751059082,147909.876037875)
(-349098.828485764,-5358.13196216656,198286.598254903)
(-482616.298661175,-15413.8938822149,235122.827070839)
(-693909.775799595,-17524.9664165102,174916.662117893)
(-996944.979490107,-12027.1032211922,-288331.409459222)
(-1222413.00594475,-5513.55977401164,-2435188.47576372)
(0,0,0)
(0,0,0)
(0,0,0)
(0,0,0)
(0,0,0)
(0,0,0)
(-174488.159420734,50880.9898838299,19019.3671202776)
(-181354.869441597,48131.82011978,39898.2984834235)
(-196971.791391445,41954.5824198873,64709.4132961378)
(-225634.463210699,30941.333499122,96047.2835504062)
(-275315.042675748,13113.7502259386,136974.026348748)
(-359164.618245439,-12309.233593367,188207.987000094)
(-495823.222817661,-38803.6728794529,233011.322084942)
(-705078.169750792,-43311.9253657319,180316.345931407)
(-1002531.99588827,-26925.027003358,-281851.587124252)
(-1224357.11254488,-11307.1243295425,-2429694.01494597)
(0,0,0)
(0,0,0)
(0,0,0)
(0,0,0)
(0,0,0)
(0,0,0)
(-190947.132242085,82204.0753868025,16250.038371317)
(-197562.374240827,78546.9780216034,33676.0898010434)
(-212869.107279486,70199.710150653,53642.7432212785)
(-241810.612395951,54717.6035047973,78226.9153207063)
(-294073.758303815,27494.0634396472,111591.26648067)
(-386578.558798488,-17460.7168836687,161735.242640763)
(-539989.522938616,-75933.058304649,228580.095399861)
(-743764.785480879,-84150.2343949026,196678.052149809)
(-1019549.24672063,-43205.7456561355,-266272.151205658)
(-1229843.34498975,-15211.7487755327,-2418496.70734327)
(0,0,0)
(0,0,0)
(0,0,0)
(0,0,0)
(0,0,0)
(0,0,0)
(-220297.120404084,119770.208343363,12593.0659270495)
(-226577.615851192,115898.846232348,25319.8873736634)
(-241454.211452208,107068.797274187,38116.2126751438)
(-270972.171341858,90391.5765390532,50965.167792627)
(-329060.768886029,59236.9178769207,66633.4414766947)
(-446921.635371905,-380.208347598164,103271.27645234)
(-677044.844144152,-105985.691582155,220430.381178504)
(-870224.996015102,-122583.909475809,237645.812858915)
(-1062135.75492039,-42682.9995125012,-238259.943834649)
(-1241601.08975928,-9434.46589380281,-2403314.81065989)
(0,0,0)
(0,0,0)
(0,0,0)
(0,0,0)
(0,0,0)
(0,0,0)
(-269613.44356922,163368.7778121,8730.91223391829)
(-275388.227299502,160044.915557483,16477.4754609969)
(-289421.697114973,152760.457124807,21368.4645957908)
(-318918.203878382,139852.230041197,19740.5714808083)
(-383870.967691767,118372.348638186,6954.85135178605)
(-550061.524482953,85500.1976891087,-2357.89098820129)
(-1093208.89666282,47975.1340105988,203875.025112336)
(-1297496.40507287,31050.1587977635,317525.551708233)
(-1145428.57165254,27270.9572624695,-205101.126006935)
(-1260739.05045051,17258.7077161226,-2394018.78515971)
(0,0,0)
(0,0,0)
(0,0,0)
(0,0,0)
(0,0,0)
(0,0,0)
(-350925.206553727,207659.562539638,5436.59609402415)
(-355961.37771054,205323.576679095,9164.80988245802)
(-368505.123467408,200521.694060098,8370.12295505998)
(-395920.115242854,192811.906242436,-1844.94292943855)
(-459014.540843449,181264.372318342,-26060.0246076832)
(-624700.822895624,164012.188047485,-40025.3870739346)
(-1141121.59210422,139453.71225276,186772.503095842)
(-1328075.11490508,125386.208856196,313614.576299589)
(-1183935.70324759,90499.2608938038,-215267.645286134)
(-1279755.04820056,45029.4189371118,-2411523.11146257)
(0,0,0)
(0,0,0)
(0,0,0)
(0,0,0)
(0,0,0)
(0,0,0)
(-483673.248699941,231540.821804399,3121.54288873691)
(-487849.392165475,230248.231098442,4349.653075612)
(-498403.305079045,228057.919908821,608.490838274035)
(-522269.88853205,225897.441943258,-13511.2953362024)
(-580121.567484843,225488.759091163,-43472.8790603552)
(-742226.185723968,227988.483587744,-64689.7720511627)
(-1280551.89056754,228649.925041677,172525.263466225)
(-1453260.2961088,262140.934592428,278497.621873418)
(-1242343.83479685,146400.804525086,-260983.310341361)
(-1311171.83185611,60703.1993599372,-2456896.04438943)
(0,0,0)
(0,0,0)
(0,0,0)
(0,0,0)
(0,0,0)
(0,0,0)
(-695547.203924328,157862.262807715,1839.98732582009)
(-698716.565473872,157289.683905972,2134.40268906242)
(-706765.585483219,156896.453551835,-1597.6094592345)
(-725445.984058011,158941.629155997,-14005.5908639597)
(-773283.029933582,169546.081912918,-41089.8002878395)
(-921856.455225645,203274.568519119,-64103.8109140328)
(-1509206.19942796,275585.640307918,205793.684224472)
(-1231177.82416132,176884.609153113,162413.649350045)
(-1289021.38067559,64823.2820121428,-347049.751948102)
(-1359835.01585308,145.339341244975,-2518032.09162759)
(0,0,0)
(0,0,0)
(0,0,0)
(0,0,0)
(0,0,0)
(0,0,0)
(-999506.651618545,-313547.834178556,1212.42388428465)
(-1001549.68227256,-313998.349408077,1663.73093223998)
(-1006696.55558603,-314386.469012907,382.84582167095)
(-1018174.45086506,-313444.72603942,-3464.79638140843)
(-1044499.08094738,-308584.119577574,-7462.70578783471)
(-1107411.41616568,-297071.381883521,8085.81522055963)
(-1245015.9375087,-288661.316071221,106831.680686281)
(-1290860.67090068,-352517.941327215,49985.6058785863)
(-1410077.37758392,-410181.887573348,-412071.851857752)
(-1432639.6485065,-356279.543948877,-2518539.15444945)
(0,0,0)
(0,0,0)
(0,0,0)
(0,0,0)
(0,0,0)
(0,0,0)
(-1224340.63048092,-2463708.87878158,682.852285716527)
(-1225321.57881557,-2464255.84392846,1127.15004012998)
(-1227787.09258485,-2465199.34640925,1209.71178546263)
(-1233108.4340943,-2466299.67876898,1362.95072278077)
(-1244428.58156704,-2467619.27042578,4025.05812541093)
(-1268130.13620946,-2471610.34796175,16400.4951434368)
(-1311991.05234592,-2487921.57643279,42732.5055662289)
(-1361095.82972519,-2530356.94123413,-8037.06710569245)
(-1433020.01212341,-2521915.62750537,-358535.306641368)
(-1383052.89126145,-2163002.73739197,-2162642.94684023)
(0,0,0)
(0,0,0)
(0,0,0)
(0,0,0)
(0,0,0)
(0,0,0)
(0,0,0)
(0,0,0)
(0,0,0)
(0,0,0)
(0,0,0)
(0,0,0)
(0,0,0)
(0,0,0)
(0,0,0)
(0,0,0)
(0,0,0)
(0,0,0)
(0,0,0)
(0,0,0)
(0,0,0)
(0,0,0)
(0,0,0)
(0,0,0)
(0,0,0)
(0,0,0)
(0,0,0)
(0,0,0)
(0,0,0)
(0,0,0)
(0,0,0)
(0,0,0)
(0,0,0)
(0,0,0)
(0,0,0)
(0,0,0)
(0,0,0)
(0,0,0)
(0,0,0)
(0,0,0)
(0,0,0)
(0,0,0)
(0,0,0)
(0,0,0)
(0,0,0)
(0,0,0)
(0,0,0)
(0,0,0)
(0,0,0)
(0,0,0)
(0,0,0)
(0,0,0)
(0,0,0)
(0,0,0)
(0,0,0)
(0,0,0)
(0,0,0)
(0,0,0)
(0,0,0)
(0,0,0)
(0,0,0)
(0,0,0)
(0,0,0)
(0,0,0)
(0,0,0)
(0,0,0)
(0,0,0)
(0,0,0)
(0,0,0)
(0,0,0)
(0,0,0)
(0,0,0)
(0,0,0)
(0,0,0)
(0,0,0)
(0,0,0)
(0,0,0)
(0,0,0)
(0,0,0)
(0,0,0)
(0,0,0)
(0,0,0)
(0,0,0)
(0,0,0)
(0,0,0)
(0,0,0)
(0,0,0)
(0,0,0)
(0,0,0)
(0,0,0)
(0,0,0)
(0,0,0)
(0,0,0)
(0,0,0)
(0,0,0)
(0,0,0)
(0,0,0)
(0,0,0)
(0,0,0)
(0,0,0)
(0,0,0)
(0,0,0)
(-197639.514448228,16866.8863133092,13581.3927564787)
(-203622.465698549,15559.1347354024,27488.4834060337)
(-216703.992070722,12512.0648961845,41748.2214079828)
(-239378.917988986,6920.98410729506,55661.9103809517)
(-275933.972679889,-2268.67873348362,66393.3659697962)
(-332190.804271895,-15421.6521908398,64906.9939467673)
(-413070.403386611,-28618.1421730287,23979.2408452324)
(-513398.868464211,-28708.4364415619,-127823.230048588)
(-593755.048921642,-17661.5763754043,-513351.584241613)
(-516118.800474918,-7515.60462253059,-1212130.18508889)
(0,0,0)
(0,0,0)
(0,0,0)
(0,0,0)
(0,0,0)
(0,0,0)
(-204328.971544601,34497.1401256577,12210.5583115171)
(-209963.708462903,31977.1308797713,24401.4011884565)
(-222317.542146621,26091.9009667446,36167.3158730765)
(-243813.832844285,14797.5006256729,46470.1689882782)
(-278724.176321318,-5614.24830128169,53224.8722016403)
(-333366.966969299,-39695.520794984,51701.0895296491)
(-413753.52654335,-82918.9218171657,23932.1728994762)
(-511045.083368185,-81956.6622810128,-116852.687643678)
(-589863.161890051,-43922.8394499395,-503260.25856734)
(-513688.659386805,-16773.2928845514,-1204671.02346348)
(0,0,0)
(0,0,0)
(0,0,0)
(0,0,0)
(0,0,0)
(0,0,0)
(-219041.055126952,52948.6368279672,9642.42618256287)
(-223988.711643771,49622.7580083856,18423.1364568908)
(-234878.224079337,41722.8576338119,24801.2965896718)
(-253912.377992473,25638.9370152797,26061.625796587)
(-285382.344923659,-7423.08498216714,19179.0490973145)
(-337845.251531374,-77740.1317681862,8490.35280338692)
(-426488.079336838,-212907.370299767,24977.3576842106)
(-511400.311564076,-210496.33851891,-78847.4399947119)
(-580438.536258496,-85685.569451111,-476195.420455671)
(-507845.063013582,-26885.3435531922,-1188081.65176322)
(0,0,0)
(0,0,0)
(0,0,0)
(0,0,0)
(0,0,0)
(0,0,0)
(-244324.312161852,70652.6990719885,6323.12951375585)
(-248377.960585889,67266.2398643787,10479.992392465)
(-257170.231829319,59264.5946762897,8654.27572710283)
(-272178.580456526,42541.7771593641,-7042.15530231373)
(-296883.508940521,4484.84529227114,-51127.3455222578)
(-345673.473871111,-103465.28310793,-126650.355683314)
(-521947.583800759,-522112.663768331,27457.6774418534)
(-549462.244527773,-549792.844540452,45991.4319760586)
(-558515.527551055,-125917.001560988,-417397.363283418)
(-496077.127157546,-28541.8764399956,-1161264.79299841)
(0,0,0)
(0,0,0)
(0,0,0)
(0,0,0)
(0,0,0)
(0,0,0)
(-284314.820747844,82365.8433677711,2988.23288284108)
(-287330.455302312,79723.9125830779,2472.78816695445)
(-293489.985665386,73890.0854051079,-8084.41401144251)
(-302337.864453505,62994.7638193093,-45117.7400962625)
(-308670.678148478,43294.1895469985,-159127.373894285)
(-278269.874307508,10902.9763627576,-545287.283540425)
(7.92185511754876e-05,2.07831819538736e-05,-5.04864975427208e-05)