/*--------------------------------*- C++ -*----------------------------------*\
| =========                 |                                                 |
| \\      /  F ield         | foam-extend: Open Source CFD                    |
|  \\    /   O peration     | Version:     4.0                                |
|   \\  /    A nd           | Web:         http://www.foam-extend.org         |
|    \\/     M anipulation  |                                                 |
\*---------------------------------------------------------------------------*/
FoamFile
{
    version 2.0;
    format ascii;
    class volVectorField;
    location "1016";
    object      E;
}
// * * * * * * * * * * * * * * * * * * * * * * * * * * * * * * * * * * * * * //

dimensions      [0 1 -1 0 0 0 0];

internalField   nonuniform List<vector>
4096
(
(0,0,0)
(0,0,0)
(0,0,0)
(0,0,0)
(0,0,0)
(0,0,0)
(0,0,0)
(0,0,0)
(0,0,0)
(0,0,0)
(0,0,0)
(0,0,0)
(0,0,0)
(0,0,0)
(0,0,0)
(0,0,0)
(0,0,0)
(0,0,0)
(0,0,0)
(0,0,0)
(0,0,0)
(0,0,0)
(0,0,0)
(0,0,0)
(0,0,0)
(0,0,0)
(0,0,0)
(0,0,0)
(0,0,0)
(0,0,0)
(0,0,0)
(0,0,0)
(0,0,0)
(0,0,0)
(0,0,0)
(0,0,0)
(0,0,0)
(0,0,0)
(0,0,0)
(0,0,0)
(0,0,0)
(0,0,0)
(0,0,0)
(0,0,0)
(0,0,0)
(0,0,0)
(0,0,0)
(0,0,0)
(0,0,0)
(0,0,0)
(0,0,0)
(0,0,0)
(0,0,0)
(0,0,0)
(0,0,0)
(0,0,0)
(0,0,0)
(0,0,0)
(0,0,0)
(0,0,0)
(0,0,0)
(0,0,0)
(0,0,0)
(0,0,0)
(0,0,0)
(0,0,0)
(0,0,0)
(0,0,0)
(0,0,0)
(0,0,0)
(0,0,0)
(0,0,0)
(0,0,0)
(0,0,0)
(0,0,0)
(0,0,0)
(0,0,0)
(0,0,0)
(0,0,0)
(0,0,0)
(0,0,0)
(0,0,0)
(0,0,0)
(0,0,0)
(0,0,0)
(0,0,0)
(0,0,0)
(0,0,0)
(0,0,0)
(0,0,0)
(0,0,0)
(0,0,0)
(0,0,0)
(0,0,0)
(0,0,0)
(0,0,0)
(0,0,0)
(0,0,0)
(0,0,0)
(0,0,0)
(0,0,0)
(0,0,0)
(0,0,0)
(0,0,0)
(0,0,0)
(0,0,0)
(0,0,0)
(0,0,0)
(0,0,0)
(0,0,0)
(0,0,0)
(0,0,0)
(0,0,0)
(0,0,0)
(0,0,0)
(0,0,0)
(0,0,0)
(0,0,0)
(0,0,0)
(0,0,0)
(0,0,0)
(0,0,0)
(0,0,0)
(0,0,0)
(0,0,0)
(0,0,0)
(0,0,0)
(0,0,0)
(0,0,0)
(0,0,0)
(0,0,0)
(0,0,0)
(0,0,0)
(0,0,0)
(0,0,0)
(0,0,0)
(0,0,0)
(0,0,0)
(0,0,0)
(0,0,0)
(0,0,0)
(0,0,0)
(0,0,0)
(0,0,0)
(0,0,0)
(0,0,0)
(0,0,0)
(0,0,0)
(0,0,0)
(0,0,0)
(0,0,0)
(0,0,0)
(0,0,0)
(0,0,0)
(0,0,0)
(0,0,0)
(0,0,0)
(0,0,0)
(0,0,0)
(0,0,0)
(0,0,0)
(0,0,0)
(0,0,0)
(0,0,0)
(0,0,0)
(0,0,0)
(0,0,0)
(0,0,0)
(0,0,0)
(0,0,0)
(0,0,0)
(0,0,0)
(0,0,0)
(0,0,0)
(0,0,0)
(0,0,0)
(0,0,0)
(0,0,0)
(0,0,0)
(0,0,0)
(0,0,0)
(0,0,0)
(0,0,0)
(0,0,0)
(0,0,0)
(0,0,0)
(0,0,0)
(0,0,0)
(0,0,0)
(0,0,0)
(0,0,0)
(0,0,0)
(0,0,0)
(0,0,0)
(0,0,0)
(0,0,0)
(0,0,0)
(0,0,0)
(0,0,0)
(0,0,0)
(0,0,0)
(0,0,0)
(0,0,0)
(0,0,0)
(0,0,0)
(0,0,0)
(0,0,0)
(0,0,0)
(0,0,0)
(0,0,0)
(0,0,0)
(0,0,0)
(0,0,0)
(0,0,0)
(0,0,0)
(0,0,0)
(0,0,0)
(0,0,0)
(0,0,0)
(0,0,0)
(0,0,0)
(0,0,0)
(0,0,0)
(0,0,0)
(0,0,0)
(0,0,0)
(0,0,0)
(0,0,0)
(0,0,0)
(0,0,0)
(0,0,0)
(0,0,0)
(0,0,0)
(0,0,0)
(0,0,0)
(0,0,0)
(0,0,0)
(0,0,0)
(0,0,0)
(0,0,0)
(0,0,0)
(0,0,0)
(0,0,0)
(0,0,0)
(0,0,0)
(0,0,0)
(0,0,0)
(0,0,0)
(0,0,0)
(0,0,0)
(0,0,0)
(0,0,0)
(0,0,0)
(0,0,0)
(0,0,0)
(0,0,0)
(0,0,0)
(0,0,0)
(0,0,0)
(0,0,0)
(0,0,0)
(0,0,0)
(0,0,0)
(0,0,0)
(0,0,0)
(0,0,0)
(0,0,0)
(0,0,0)
(0,0,0)
(0,0,0)
(0,0,0)
(0,0,0)
(0,0,0)
(0,0,0)
(0,0,0)
(0,0,0)
(0,0,0)
(0,0,0)
(0,0,0)
(0,0,0)
(0,0,0)
(0,0,0)
(0,0,0)
(0,0,0)
(0,0,0)
(0,0,0)
(0,0,0)
(0,0,0)
(0,0,0)
(0,0,0)
(0,0,0)
(0,0,0)
(0,0,0)
(0,0,0)
(0,0,0)
(0,0,0)
(0,0,0)
(0,0,0)
(0,0,0)
(0,0,0)
(0,0,0)
(0,0,0)
(0,0,0)
(0,0,0)
(0,0,0)
(0,0,0)
(0,0,0)
(0,0,0)
(0,0,0)
(0,0,0)
(0,0,0)
(0,0,0)
(0,0,0)
(0,0,0)
(0,0,0)
(0,0,0)
(0,0,0)
(0,0,0)
(0,0,0)
(0,0,0)
(0,0,0)
(0,0,0)
(0,0,0)
(0,0,0)
(0,0,0)
(0,0,0)
(0,0,0)
(0,0,0)
(0,0,0)
(0,0,0)
(0,0,0)
(0,0,0)
(0,0,0)
(0,0,0)
(0,0,0)
(0,0,0)
(0,0,0)
(0,0,0)
(0,0,0)
(0,0,0)
(0,0,0)
(0,0,0)
(0,0,0)
(0,0,0)
(0,0,0)
(0,0,0)
(0,0,0)
(0,0,0)
(0,0,0)
(0,0,0)
(0,0,0)
(0,0,0)
(0,0,0)
(0,0,0)
(0,0,0)
(0,0,0)
(0,0,0)
(0,0,0)
(0,0,0)
(0,0,0)
(0,0,0)
(0,0,0)
(0,0,0)
(0,0,0)
(0,0,0)
(0,0,0)
(0,0,0)
(0,0,0)
(0,0,0)
(0,0,0)
(0,0,0)
(0,0,0)
(0,0,0)
(0,0,0)
(0,0,0)
(0,0,0)
(0,0,0)
(0,0,0)
(0,0,0)
(0,0,0)
(0,0,0)
(0,0,0)
(0,0,0)
(0,0,0)
(0,0,0)
(0,0,0)
(0,0,0)
(0,0,0)
(0,0,0)
(0,0,0)
(0,0,0)
(0,0,0)
(0,0,0)
(0,0,0)
(0,0,0)
(0,0,0)
(0,0,0)
(0,0,0)
(0,0,0)
(0,0,0)
(0,0,0)
(0,0,0)
(0,0,0)
(0,0,0)
(0,0,0)
(0,0,0)
(0,0,0)
(0,0,0)
(0,0,0)
(0,0,0)
(0,0,0)
(0,0,0)
(0,0,0)
(0,0,0)
(0,0,0)
(0,0,0)
(0,0,0)
(0,0,0)
(0,0,0)
(0,0,0)
(0,0,0)
(0,0,0)
(0,0,0)
(0,0,0)
(0,0,0)
(0,0,0)
(0,0,0)
(0,0,0)
(0,0,0)
(0,0,0)
(0,0,0)
(0,0,0)
(0,0,0)
(0,0,0)
(0,0,0)
(0,0,0)
(0,0,0)
(0,0,0)
(0,0,0)
(0,0,0)
(0,0,0)
(0,0,0)
(0,0,0)
(0,0,0)
(0,0,0)
(0,0,0)
(0,0,0)
(0,0,0)
(0,0,0)
(0,0,0)
(0,0,0)
(0,0,0)
(0,0,0)
(0,0,0)
(0,0,0)
(0,0,0)
(0,0,0)
(0,0,0)
(0,0,0)
(0,0,0)
(0,0,0)
(0,0,0)
(0,0,0)
(0,0,0)
(0,0,0)
(0,0,0)
(0,0,0)
(0,0,0)
(0,0,0)
(0,0,0)
(0,0,0)
(0,0,0)
(0,0,0)
(0,0,0)
(0,0,0)
(0,0,0)
(0,0,0)
(0,0,0)
(0,0,0)
(0,0,0)
(0,0,0)
(0,0,0)
(0,0,0)
(0,0,0)
(0,0,0)
(0,0,0)
(0,0,0)
(0,0,0)
(0,0,0)
(0,0,0)
(0,0,0)
(0,0,0)
(0,0,0)
(0,0,0)
(0,0,0)
(0,0,0)
(0,0,0)
(0,0,0)
(0,0,0)
(0,0,0)
(0,0,0)
(0,0,0)
(0,0,0)
(0,0,0)
(0,0,0)
(0,0,0)
(0,0,0)
(0,0,0)
(0,0,0)
(0,0,0)
(0,0,0)
(0,0,0)
(0,0,0)
(0,0,0)
(0,0,0)
(0,0,0)
(0,0,0)
(0,0,0)
(0,0,0)
(0,0,0)
(0,0,0)
(0,0,0)
(0,0,0)
(0,0,0)
(0,0,0)
(0,0,0)
(0,0,0)
(0,0,0)
(0,0,0)
(0,0,0)
(0,0,0)
(0,0,0)
(0,0,0)
(0,0,0)
(0,0,0)
(0,0,0)
(0,0,0)
(0,0,0)
(0,0,0)
(0,0,0)
(0,0,0)
(0,0,0)
(0,0,0)
(0,0,0)
(0,0,0)
(0,0,0)
(0,0,0)
(0,0,0)
(0,0,0)
(0,0,0)
(0,0,0)
(0,0,0)
(0,0,0)
(0,0,0)
(0,0,0)
(0,0,0)
(0,0,0)
(0,0,0)
(0,0,0)
(0,0,0)
(0,0,0)
(0,0,0)
(0,0,0)
(0,0,0)
(0,0,0)
(0,0,0)
(0,0,0)
(0,0,0)
(0,0,0)
(0,0,0)
(0,0,0)
(0,0,0)
(0,0,0)
(0,0,0)
(0,0,0)
(0,0,0)
(0,0,0)
(0,0,0)
(0,0,0)
(0,0,0)
(0,0,0)
(0,0,0)
(0,0,0)
(0,0,0)
(0,0,0)
(0,0,0)
(0,0,0)
(0,0,0)
(0,0,0)
(0,0,0)
(0,0,0)
(0,0,0)
(0,0,0)
(0,0,0)
(0,0,0)
(0,0,0)
(0,0,0)
(0,0,0)
(0,0,0)
(0,0,0)
(0,0,0)
(0,0,0)
(0,0,0)
(0,0,0)
(0,0,0)
(0,0,0)
(0,0,0)
(0,0,0)
(0,0,0)
(0,0,0)
(0,0,0)
(0,0,0)
(0,0,0)
(0,0,0)
(0,0,0)
(0,0,0)
(0,0,0)
(0,0,0)
(0,0,0)
(0,0,0)
(0,0,0)
(0,0,0)
(0,0,0)
(0,0,0)
(0,0,0)
(0,0,0)
(0,0,0)
(0,0,0)
(0,0,0)
(0,0,0)
(0,0,0)
(0,0,0)
(0,0,0)
(0,0,0)
(0,0,0)
(0,0,0)
(0,0,0)
(0,0,0)
(0,0,0)
(0,0,0)
(0,0,0)
(0,0,0)
(0,0,0)
(0,0,0)
(0,0,0)
(0,0,0)
(0,0,0)
(0,0,0)
(0,0,0)
(0,0,0)
(0,0,0)
(0,0,0)
(0,0,0)
(0,0,0)
(0,0,0)
(0,0,0)
(0,0,0)
(0,0,0)
(0,0,0)
(0,0,0)
(0,0,0)
(0,0,0)
(0,0,0)
(0,0,0)
(0,0,0)
(0,0,0)
(0,0,0)
(0,0,0)
(0,0,0)
(0,0,0)
(0,0,0)
(0,0,0)
(0,0,0)
(0,0,0)
(0,0,0)
(0,0,0)
(0,0,0)
(0,0,0)
(0,0,0)
(0,0,0)
(0,0,0)
(0,0,0)
(0,0,0)
(0,0,0)
(0,0,0)
(0,0,0)
(0,0,0)
(0,0,0)
(0,0,0)
(0,0,0)
(0,0,0)
(0,0,0)
(0,0,0)
(0,0,0)
(0,0,0)
(0,0,0)
(0,0,0)
(0,0,0)
(0,0,0)
(0,0,0)
(0,0,0)
(0,0,0)
(0,0,0)
(0,0,0)
(0,0,0)
(0,0,0)
(0,0,0)
(0,0,0)
(0,0,0)
(0,0,0)
(0,0,0)
(0,0,0)
(0,0,0)
(0,0,0)
(0,0,0)
(0,0,0)
(0,0,0)
(0,0,0)
(0,0,0)
(0,0,0)
(0,0,0)
(0,0,0)
(0,0,0)
(0,0,0)
(0,0,0)
(0,0,0)
(0,0,0)
(0,0,0)
(0,0,0)
(0,0,0)
(0,0,0)
(0,0,0)
(0,0,0)
(0,0,0)
(0,0,0)
(0,0,0)
(0,0,0)
(0,0,0)
(0,0,0)
(0,0,0)
(0,0,0)
(0,0,0)
(0,0,0)
(0,0,0)
(0,0,0)
(0,0,0)
(0,0,0)
(0,0,0)
(0,0,0)
(0,0,0)
(0,0,0)
(0,0,0)
(0,0,0)
(0,0,0)
(0,0,0)
(0,0,0)
(0,0,0)
(0,0,0)
(0,0,0)
(0,0,0)
(0,0,0)
(0,0,0)
(0,0,0)
(0,0,0)
(0,0,0)
(0,0,0)
(0,0,0)
(0,0,0)
(0,0,0)
(0,0,0)
(0,0,0)
(0,0,0)
(0,0,0)
(0,0,0)
(0,0,0)
(0,0,0)
(0,0,0)
(0,0,0)
(0,0,0)
(0,0,0)
(0,0,0)
(0,0,0)
(0,0,0)
(0,0,0)
(0,0,0)
(0,0,0)
(0,0,0)
(0,0,0)
(0,0,0)
(0,0,0)
(0,0,0)
(0,0,0)
(0,0,0)
(0,0,0)
(0,0,0)
(0,0,0)
(0,0,0)
(0,0,0)
(0,0,0)
(0,0,0)
(0,0,0)
(0,0,0)
(0,0,0)
(0,0,0)
(0,0,0)
(0,0,0)
(0,0,0)
(0,0,0)
(0,0,0)
(0,0,0)
(0,0,0)
(0,0,0)
(0,0,0)
(0,0,0)
(0,0,0)
(0,0,0)
(0,0,0)
(0,0,0)
(0,0,0)
(-777.396853672325,280.185269875064,497.211583797151)
(-840.699787866024,228.233477284196,1109.67789437908)
(-953.30808967427,213.366898014552,1849.61908603901)
(-1187.93762351914,188.268761574687,2849.28794798582)
(-1614.89583595225,106.941575822304,4357.2422081213)
(-2396.65984361557,69.6837717588397,6684.21827996471)
(-3841.05871391738,5.69114498982088,10519.5858489252)
(-6466.00826569671,-58.5342481871714,17044.1283628032)
(-10820.889676444,-68.4806341962364,27933.4986734976)
(-15219.2551585272,-56.9672535828599,43209.7210856135)
(0,0,0)
(0,0,0)
(0,0,0)
(0,0,0)
(0,0,0)
(0,0,0)
(-834.824178278034,617.227458812917,497.781989339648)
(-900.799250462063,564.362117379545,1062.45259970941)
(-1029.81916306256,552.386403793763,1753.2522569894)
(-1266.88194431797,484.425523075336,2723.97743981039)
(-1694.28763179433,316.801417797211,4208.40522962774)
(-2490.02233185077,214.58346930991,6553.52786393373)
(-3937.15544143161,78.4644176969108,10417.9100326261)
(-6544.24146490244,-44.0386491303995,16947.6558984442)
(-10876.9461469859,-65.2088120046144,27821.3302232992)
(-15251.3265446268,-54.4507666712977,43070.1402809245)
(0,0,0)
(0,0,0)
(0,0,0)
(0,0,0)
(0,0,0)
(0,0,0)
(-1022.28035596932,1186.78244080747,452.725373974287)
(-1067.95983422087,1135.00830916633,950.039016408826)
(-1183.87498892136,1103.05620707563,1583.24420205284)
(-1422.03675002568,985.594495093981,2504.11198006178)
(-1876.7945603283,773.326459880719,3924.38149830628)
(-2715.29926556828,585.644406712739,6268.61982647205)
(-4203.85046669463,330.497690963909,10220.4370199023)
(-6772.94421188762,124.689968203403,16824.6526144293)
(-11010.3537119168,60.9335364894069,27708.8639779218)
(-15308.5094934924,10.5956047988046,42952.3270999277)
(0,0,0)
(0,0,0)
(0,0,0)
(0,0,0)
(0,0,0)
(0,0,0)
(-1257.82935237861,2030.58714885298,414.024644333554)
(-1296.37175364094,2016.47251282656,828.932194315973)
(-1403.9185609537,1959.5104594441,1376.39650289491)
(-1675.68072592841,1835.10840147826,2202.56332243457)
(-2184.75455145269,1620.22940218701,3540.41493158396)
(-3094.98761449142,1343.97856604319,5877.0683867392)
(-4674.27894854644,983.452490998788,9898.39253526213)
(-7196.22880718238,646.778235263842,16572.5330753516)
(-11256.9804405075,440.370739967757,27450.0763123404)
(-15401.6563481872,211.584572684,42650.7436927417)
(0,0,0)
(0,0,0)
(0,0,0)
(0,0,0)
(0,0,0)
(0,0,0)
(-1634.81417120614,3316.79971797633,348.601602081765)
(-1698.33166758008,3363.89476095476,699.511021532696)
(-1822.83276828328,3312.76249606515,1169.09175319383)
(-2120.2974046716,3211.97197816254,1912.52558118577)
(-2667.92326031262,3027.118188645,3173.56005504607)
(-3659.14587330747,2722.06205355873,5454.6224408234)
(-5384.12172676225,2318.22048869233,9503.97616989512)
(-7844.32270407458,1814.91573882218,16180.1613704374)
(-11635.036060597,1289.4772807201,26966.0908903287)
(-15554.5696135433,654.803567129885,42077.4415094446)
(0,0,0)
(0,0,0)
(0,0,0)
(0,0,0)
(0,0,0)
(0,0,0)
(-2383.08501695426,5439.537331456,260.347403475203)
(-2454.34197880776,5513.48416612234,565.099977114313)
(-2591.75303640487,5489.15858259028,980.45692699402)
(-2887.7445236819,5425.79248969535,1654.3809391403)
(-3416.44896347989,5261.49651216228,2836.45157910281)
(-4406.02994608018,4948.34662751468,5016.19695123459)
(-6123.19570727963,4476.62690131023,8980.98624592186)
(-8487.79221373442,3759.06862611625,15524.6255723428)
(-12086.572704551,2769.0752397314,26131.6003179189)
(-15791.5863684878,1468.07882647612,41109.911426976)
(0,0,0)
(0,0,0)
(0,0,0)
(0,0,0)
(0,0,0)
(0,0,0)
(-3820.93966905285,9089.36084117084,171.116159340872)
(-3879.68910866032,9148.46017811941,415.829256001929)
(-4007.82623513414,9149.1085348132,763.705538916984)
(-4270.9147645537,9104.18681955129,1356.22597361793)
(-4746.4369023881,8909.83858741243,2454.32080075724)
(-5660.33152929225,8590.99135066589,4472.00760689077)
(-7249.38112364286,8009.98580227448,8188.02982957225)
(-9405.99113749511,6945.43862203774,14407.6509711406)
(-12771.6711853169,5243.64265832834,24704.7547377974)
(-16173.2123582295,2869.8426960994,39476.2032264516)
(0,0,0)
(0,0,0)
(0,0,0)
(0,0,0)
(0,0,0)
(0,0,0)
(-6458.03018099738,15466.5166902603,80.8743318982612)
(-6497.41538320819,15475.7561315293,250.993761699593)
(-6585.58404291508,15454.3271238237,531.359215613525)
(-6786.42170822993,15381.3055195635,1040.66222381738)
(-7170.05139536449,15147.6842207106,1972.86798587791)
(-7914.33386368407,14762.4802799724,3715.71292025274)
(-9204.57467215915,13957.178770439,6973.09462423284)
(-10995.475236711,12359.0638313593,12554.9446516381)
(-14070.2484169423,9652.7764390618,22216.0592878463)
(-16911.7807225788,5511.17634756397,36486.5063588962)
(0,0,0)
(0,0,0)
(0,0,0)
(0,0,0)
(0,0,0)
(0,0,0)
(-10877.0919916129,26310.5474341093,33.0612477533707)
(-10883.753025613,26246.0531411895,146.517263717782)
(-10925.5127901024,26156.6653971232,369.691780486719)
(-11041.1168818709,26058.5257213226,733.588460605663)
(-11273.6417597869,25761.8526741423,1393.06176697294)
(-11745.3569883271,25187.4354625315,2713.46357273009)
(-12598.0962974872,24080.3227201209,5188.41592053284)
(-14015.2936724792,21880.0812931822,9682.69213118488)
(-16475.0615484152,17845.673760911,17964.856357724)
(-18227.2408867398,10797.3476195173,30905.9259725119)
(0,0,0)
(0,0,0)
(0,0,0)
(0,0,0)
(0,0,0)
(0,0,0)
(-15277.1966495348,41585.214969582,2.52911404812225)
(-15283.2478125373,41456.5919546051,75.2381131705391)
(-15295.6241281586,41303.1709398169,224.356698663855)
(-15324.0277058521,41197.4529838373,409.45714201169)
(-15416.9387546057,40840.5529407698,747.695630008568)
(-15647.3001186988,40113.8441436089,1468.58706762736)
(-16088.8833361441,38793.3443282933,2844.44879559086)
(-16872.2272629948,36102.6631295449,5494.09422218443)
(-18207.548226808,30717.9880956576,10829.3281142382)
(-18407.3453752025,19971.8742629951,20062.1468459696)
(0,0,0)
(0,0,0)
(0,0,0)
(0,0,0)
(0,0,0)
(0,0,0)
(0,0,0)
(0,0,0)
(0,0,0)
(0,0,0)
(0,0,0)
(0,0,0)
(0,0,0)
(0,0,0)
(0,0,0)
(0,0,0)
(0,0,0)
(0,0,0)
(0,0,0)
(0,0,0)
(0,0,0)
(0,0,0)
(0,0,0)
(0,0,0)
(0,0,0)
(0,0,0)
(0,0,0)
(0,0,0)
(0,0,0)
(0,0,0)
(0,0,0)
(0,0,0)
(0,0,0)
(0,0,0)
(0,0,0)
(0,0,0)
(0,0,0)
(0,0,0)
(0,0,0)
(0,0,0)
(0,0,0)
(0,0,0)
(0,0,0)
(0,0,0)
(0,0,0)
(0,0,0)
(0,0,0)
(0,0,0)
(0,0,0)
(0,0,0)
(0,0,0)
(0,0,0)
(0,0,0)
(0,0,0)
(0,0,0)
(0,0,0)
(0,0,0)
(0,0,0)
(0,0,0)
(0,0,0)
(0,0,0)
(0,0,0)
(0,0,0)
(0,0,0)
(0,0,0)
(0,0,0)
(0,0,0)
(0,0,0)
(0,0,0)
(0,0,0)
(0,0,0)
(0,0,0)
(0,0,0)
(0,0,0)
(0,0,0)
(0,0,0)
(0,0,0)
(0,0,0)
(0,0,0)
(0,0,0)
(0,0,0)
(0,0,0)
(0,0,0)
(0,0,0)
(0,0,0)
(0,0,0)
(0,0,0)
(0,0,0)
(0,0,0)
(0,0,0)
(0,0,0)
(0,0,0)
(0,0,0)
(0,0,0)
(0,0,0)
(0,0,0)
(0,0,0)
(0,0,0)
(0,0,0)
(0,0,0)
(0,0,0)
(0,0,0)
(144845.551270644,219.652430144821,433.559057932764)
(144726.883266324,188.427528208178,953.708087886578)
(144527.454782731,173.57113719083,1575.53369062023)
(144152.936736854,125.184277462715,2385.63466510398)
(143479.292474883,33.8568270489063,3533.74913958347)
(142187.083494477,-27.4700106693694,5253.63542442948)
(139806.323829369,-100.352953108497,7982.76544658316)
(135119.343892149,-122.350204347087,12795.9231053696)
(124620.803274138,-109.100786650501,23739.4905537685)
(96101.6932381344,-65.5161594662499,58760.2179289287)
(0,0,0)
(0,0,0)
(0,0,0)
(0,0,0)
(0,0,0)
(0,0,0)
(144700.155404231,521.364727136153,439.467732900377)
(144598.981191216,480.38748696872,923.886944860119)
(144394.03561913,451.244077652561,1498.51883456483)
(144014.300301198,346.039638323669,2272.64084051243)
(143327.86412076,164.376437225849,3396.12909015781)
(142015.647448449,20.2305850281465,5118.91832649004)
(139637.91518588,-161.194328487479,7880.84868701813)
(134981.989336252,-237.330286902652,12745.7575807945)
(124535.834398126,-186.993842961834,23687.0297042861)
(96061.2503377914,-93.6103301525733,58678.7066048312)
(0,0,0)
(0,0,0)
(0,0,0)
(0,0,0)
(0,0,0)
(0,0,0)
(144408.510112929,962.20337435356,404.530496226302)
(144344.068013059,914.396576555871,834.653171750053)
(144161.215782724,873.182025299919,1343.78406485581)
(143765.723247292,740.308410287168,2037.91490797756)
(143019.141757471,497.042098910319,3085.47254078479)
(141632.768012306,235.067639859864,4798.72782043868)
(139155.189444201,-136.502522510534,7691.15571594131)
(134567.517856318,-297.103100113716,12686.62607342)
(124315.385121433,-188.064206491719,23638.117215912)
(95970.8073979127,-82.9975807396341,58624.3471875134)
(0,0,0)
(0,0,0)
(0,0,0)
(0,0,0)
(0,0,0)
(0,0,0)
(144022.227002044,1604.03482716302,354.271805114471)
(143963.624440317,1581.75213894788,703.079661187372)
(143780.632961853,1524.44872872151,1143.42104733421)
(143344.713936129,1409.34015894638,1730.1542490338)
(142505.401806664,1160.1558487891,2653.04375336895)
(140929.588717842,796.436859657285,4343.25781360845)
(138098.970030837,265.642791774681,7444.02313233599)
(133603.459922261,-7.87187090038153,12631.2627860521)
(123831.338369864,71.690976327519,23559.3484051666)
(95793.9286985102,54.705341110849,58502.2200490578)
(0,0,0)
(0,0,0)
(0,0,0)
(0,0,0)
(0,0,0)
(0,0,0)
(143368.405051307,2562.81696562741,314.1582513833)
(143286.698413902,2589.34692842396,597.692992761194)
(143077.510972451,2549.65507384305,948.302519316263)
(142611.115534341,2479.13909539593,1423.25025620954)
(141699.106340692,2292.30902682656,2200.22708954775)
(139833.068316648,2001.78658297669,3778.82278867426)
(136196.738678967,1603.82864229285,7135.93614479597)
(131795.137571701,1197.85127079587,12566.912339728)
(123045.359586361,870.849215055912,23363.5180662901)
(95519.986558616,445.443466923102,58174.3833807468)
(0,0,0)
(0,0,0)
(0,0,0)
(0,0,0)
(0,0,0)
(0,0,0)
(142133.496227979,4076.18238883048,246.212944197141)
(142047.381529455,4132.15316947638,477.842807225974)
(141821.103129623,4128.36222331641,762.439104109811)
(141360.742491386,4110.8587000163,1158.39209686818)
(140469.767985232,3992.67537595807,1847.96841137452)
(138588.909890779,3772.94993164444,3358.02483823462)
(134949.396791019,3427.32452915175,6738.09606546298)
(130691.589564408,2892.01511734151,12140.7100530975)
(122309.777002475,2101.43096476617,22789.9382087247)
(95156.9059841303,1094.43298387671,57468.6159515968)
(0,0,0)
(0,0,0)
(0,0,0)
(0,0,0)
(0,0,0)
(0,0,0)
(139760.097604815,6617.67436797434,153.630359375948)
(139704.27317907,6649.8960737869,328.08477968719)
(139519.199517271,6656.3851971818,549.19566581915)
(139118.43456361,6666.01252643445,880.852123599645)
(138300.760026738,6581.21602882004,1521.27415397048)
(136536.385207455,6442.96704078488,2930.69992044439)
(133097.828520602,6137.63281172601,6149.34160596818)
(129241.227516857,5439.49561203143,11230.802069339)
(121204.253771502,3985.95841687922,21646.509272762)
(94521.8935919979,2134.14388755197,56187.8520313001)
(0,0,0)
(0,0,0)
(0,0,0)
(0,0,0)
(0,0,0)
(0,0,0)
(135093.303986605,11286.3792289938,56.1205838043875)
(135055.320842031,11263.2231155193,166.216929208008)
(134929.806799289,11245.8153334549,337.555563056132)
(134625.304652281,11230.6914848112,637.309856618431)
(133969.364872631,11145.4446983915,1209.82453135486)
(132528.429928848,11045.1036771887,2441.08371483312)
(129650.54397663,10698.388602185,5301.36888788177)
(126914.92942909,9453.63513493524,9652.98431149252)
(118865.811664245,7316.18477787449,19662.8574815857)
(93040.4641212066,4233.52683523942,53887.3893024651)
(0,0,0)
(0,0,0)
(0,0,0)
(0,0,0)
(0,0,0)
(0,0,0)
(124533.97127052,22116.0224899454,35.4530892627313)
(124540.617530889,22053.4006769049,97.0645837802996)
(124479.456228156,21996.6757219948,217.394789341671)
(124300.157054954,21939.4298525935,443.542097040716)
(123921.577288054,21777.6147224992,892.312637434737)
(123110.708868801,21497.4632369803,1860.04683287726)
(121557.837984536,20822.3364567795,3856.3243086501)
(118990.737383429,19209.4294460223,7370.65855405735)
(111818.715693363,16230.0021256635,16439.2235768652)
(88486.3152037566,10700.5072762009,49534.8466577033)
(0,0,0)
(0,0,0)
(0,0,0)
(0,0,0)
(0,0,0)
(0,0,0)
(96042.421703046,57047.5855303488,24.978219326415)
(96042.8335474263,56965.9359812259,62.5211674049987)
(96017.6432289305,56891.0854451938,131.003699436173)
(95961.8448527016,56818.8937639915,241.826841914131)
(95810.2256686824,56581.4275810387,487.009172502103)
(95444.616099166,56147.9542111033,1020.7615929633)
(94689.476687909,55266.039005355,2074.8586326914)
(93120.8448469123,53342.4603800621,4224.91520110803)
(88508.61043307,49248.0269982314,10766.8912810233)
(71969.1975901416,38622.1725833239,38744.8426208843)
(0,0,0)
(0,0,0)
(0,0,0)
(0,0,0)
(0,0,0)
(0,0,0)
(0,0,0)
(0,0,0)
(0,0,0)
(0,0,0)
(0,0,0)
(0,0,0)
(0,0,0)
(0,0,0)
(0,0,0)
(0,0,0)
(0,0,0)
(0,0,0)
(0,0,0)
(0,0,0)
(0,0,0)
(0,0,0)
(0,0,0)
(0,0,0)
(0,0,0)
(0,0,0)
(0,0,0)
(0,0,0)
(0,0,0)
(0,0,0)
(0,0,0)
(0,0,0)
(0,0,0)
(0,0,0)
(0,0,0)
(0,0,0)
(0,0,0)
(0,0,0)
(0,0,0)
(0,0,0)
(0,0,0)
(0,0,0)
(0,0,0)
(0,0,0)
(0,0,0)
(0,0,0)
(0,0,0)
(0,0,0)
(0,0,0)
(0,0,0)
(0,0,0)
(0,0,0)
(0,0,0)
(0,0,0)
(0,0,0)
(0,0,0)
(0,0,0)
(0,0,0)
(0,0,0)
(0,0,0)
(0,0,0)
(0,0,0)
(0,0,0)
(0,0,0)
(0,0,0)
(0,0,0)
(0,0,0)
(0,0,0)
(0,0,0)
(0,0,0)
(0,0,0)
(0,0,0)
(0,0,0)
(0,0,0)
(0,0,0)
(0,0,0)
(0,0,0)
(0,0,0)
(0,0,0)
(0,0,0)
(0,0,0)
(0,0,0)
(0,0,0)
(0,0,0)
(0,0,0)
(0,0,0)
(0,0,0)
(0,0,0)
(0,0,0)
(0,0,0)
(0,0,0)
(0,0,0)
(0,0,0)
(0,0,0)
(0,0,0)
(0,0,0)
(0,0,0)
(0,0,0)
(0,0,0)
(0,0,0)
(0,0,0)
(0,0,0)
(-1896.14968235726,129.313480587666,336.227860020883)
(-2008.31149266782,104.876328838869,690.386677819439)
(-2237.96570678161,86.2766201267285,1093.37093487348)
(-2639.25430227031,29.3298660736861,1580.07249560767)
(-3353.81897081782,-75.3305768040213,2212.3549057517)
(-4629.82910911603,-181.365347052156,2934.47324411385)
(-6702.80876642992,-295.262471827949,3462.70869939791)
(-9939.65195731113,-295.810216071306,2541.35515263902)
(-14531.1469071168,-214.703217938393,-4368.15106055324)
(-18009.3540177415,-98.9694448611315,-36434.2939721392)
(0,0,0)
(0,0,0)
(0,0,0)
(0,0,0)
(0,0,0)
(0,0,0)
(-2064.86823355509,306.106469886693,312.071036086459)
(-2175.77083096419,271.843666899141,643.696107808701)
(-2406.24012891816,233.192133106224,1020.89673051728)
(-2801.43355818619,112.009373280336,1477.79147036918)
(-3516.22691704115,-97.3708728959736,2067.76319189368)
(-4783.54368007454,-353.607086009365,2763.03644703704)
(-6864.73581420405,-668.497908153705,3362.76327100138)
(-10084.3641076322,-696.249851975479,2553.39673841179)
(-14614.1531436396,-456.20528465967,-4331.27326537514)
(-18049.8132605536,-184.677978150066,-36410.66074614)
(0,0,0)
(0,0,0)
(0,0,0)
(0,0,0)
(0,0,0)
(0,0,0)
(-2388.84020935032,550.879811009913,276.417368813004)
(-2465.4644140781,516.929630598525,564.704219858932)
(-2663.84704205088,471.47891473254,875.320650605121)
(-3071.50960188735,320.032758128553,1228.37050253214)
(-3819.93463608619,3.0202788744132,1690.89613202053)
(-5171.27361134979,-478.893429649123,2344.06448695102)
(-7458.00407557421,-1221.80310860829,3234.4035948114)
(-10576.3990235776,-1296.41711593716,2702.32812620282)
(-14817.7571985323,-706.462101530186,-4190.43234925766)
(-18115.2211158196,-265.086835332893,-36300.1545907323)
(0,0,0)
(0,0,0)
(0,0,0)
(0,0,0)
(0,0,0)
(0,0,0)
(-2866.12063330442,922.910754586081,240.157079425814)
(-2924.85397294524,906.332615780636,463.072895085217)
(-3096.07986227455,850.648568649372,684.456452921774)
(-3512.98153655532,720.022522783294,866.002548533878)
(-4339.59632287415,374.069224585399,1063.79212002796)
(-6005.83385758477,-296.759617127428,1540.92127057341)
(-9302.14405749886,-1642.23602435212,3086.30866227162)
(-12216.9004962495,-1824.23961530473,3158.33196778163)
(-15354.374085546,-730.297737124341,-3908.27955353459)
(-18261.8072442145,-235.704106196502,-36158.0859523587)
(0,0,0)
(0,0,0)
(0,0,0)
(0,0,0)
(0,0,0)
(0,0,0)
(-3601.54321131777,1395.75749443793,220.941910408942)
(-3649.21653615873,1399.62011721265,387.409746696539)
(-3830.04320968631,1368.87407932855,500.578805742398)
(-4258.50528098591,1316.36678767566,497.695743821206)
(-5155.39265092152,1131.38502631386,318.71932132672)
(-7426.99566838107,825.505971630789,180.358105202375)
(-14826.2567525975,422.064452659035,2862.8934473746)
(-17735.3710313843,141.235011147193,4151.76781161151)
(-16437.9945212043,168.908184103263,-3540.24361433322)
(-18502.5451244786,105.332003054862,-36134.9076527798)
(0,0,0)
(0,0,0)
(0,0,0)
(0,0,0)
(0,0,0)
(0,0,0)
(-4806.23561762125,1890.12543553526,169.204292171634)
(-4845.45125413562,1907.21701895243,278.280561681327)
(-5047.86244952896,1914.29560498562,325.665002792834)
(-5461.25557753776,1949.43340024668,238.436846701565)
(-6305.86444165778,1922.96319551004,-53.6685079524135)
(-8519.72768786317,1829.32964144641,-225.014211506419)
(-15440.2893872138,1654.98263641204,2655.59417056279)
(-18414.7451017526,1508.01042954813,4118.9938059974)
(-17005.3294145063,1045.78344603081,-3718.93465135553)
(-18774.3406306747,493.430244378486,-36451.9458902018)
(0,0,0)
(0,0,0)
(0,0,0)
(0,0,0)
(0,0,0)
(0,0,0)
(-6882.04119222194,2165.38396586111,90.7206543127243)
(-6890.1685119459,2167.55132432047,148.668427607426)
(-7034.38373674986,2177.72898272945,162.658691477337)
(-7366.81771517146,2271.42057915382,49.7641789869187)
(-8132.71873580049,2369.53798147331,-239.491456789988)
(-10223.6487891927,2528.42736162446,-454.714792670102)
(-17152.9321119879,2722.18584610893,2452.68301789014)
(-19785.1148977203,3176.21106915259,3534.66518046022)
(-17776.542689411,1714.96150670163,-4429.8760316463)
(-19213.7737021028,669.50124027031,-37146.4393458525)
(0,0,0)
(0,0,0)
(0,0,0)
(0,0,0)
(0,0,0)
(0,0,0)
(-10085.1680350043,1047.37838184065,20.3179932100027)
(-10099.443268157,1012.2296256076,54.2441897398792)
(-10191.364049382,1015.45941468492,61.5249941322386)
(-10424.611537608,1112.4125447142,-5.71039399358325)
(-11018.9474362555,1280.05159101194,-204.071306959829)
(-12803.2375655291,1784.36720289402,-404.503266236677)
(-19817.7781419944,2780.86569872953,2728.9793874709)
(-17073.889121254,1699.23408308107,1918.61531154469)
(-18541.5881578127,394.750492204847,-5629.93346417266)
(-19923.9757441285,-270.743959919598,-38001.4080109289)
(0,0,0)
(0,0,0)
(0,0,0)
(0,0,0)
(0,0,0)
(0,0,0)
(-14693.1796679392,-6021.77649564259,20.1462035957667)
(-14681.362621808,-6061.57645117481,39.7728206603567)
(-14714.6681250359,-6070.64296154857,43.8399377166754)
(-14836.1477486105,-6038.79670336999,55.1943770469443)
(-15130.9803955044,-5991.46084247326,103.104881744164)
(-15815.8161595401,-5796.88557319558,334.723073786469)
(-17366.3265152842,-5620.44495986449,1384.03861980901)
(-18384.6461782737,-6235.38548282691,417.882135022193)
(-20451.8435767813,-6735.03215324765,-6457.93556177703)
(-21035.4633735833,-5603.10892394675,-37879.9516327025)
(0,0,0)
(0,0,0)
(0,0,0)
(0,0,0)
(0,0,0)
(0,0,0)
(-18125.2965071016,-38158.1010457166,27.8831478942543)
(-18123.0096903534,-38184.7546105656,40.7449326567874)
(-18137.9188458232,-38184.720734258,34.2251678256626)
(-18171.8146849049,-38196.0643686424,48.992758299409)
(-18278.4607446197,-38255.3379709155,125.396687681283)
(-18525.3852634453,-38276.3847909483,298.737655658404)
(-19052.5308566459,-38393.5415175263,537.682145562048)
(-19840.8867727327,-38726.3382456218,-285.793084392779)
(-21009.6506914393,-38274.186274751,-5504.5374507303)
(-20390.8001417024,-32601.4151624711,-32422.3930926704)
(0,0,0)
(0,0,0)
(0,0,0)
(0,0,0)
(0,0,0)
(0,0,0)
(0,0,0)
(0,0,0)
(0,0,0)
(0,0,0)
(0,0,0)
(0,0,0)
(0,0,0)
(0,0,0)
(0,0,0)
(0,0,0)
(0,0,0)
(0,0,0)
(0,0,0)
(0,0,0)
(0,0,0)
(0,0,0)
(0,0,0)
(0,0,0)
(0,0,0)
(0,0,0)
(0,0,0)
(0,0,0)
(0,0,0)
(0,0,0)
(0,0,0)
(0,0,0)
(0,0,0)
(0,0,0)
(0,0,0)
(0,0,0)
(0,0,0)
(0,0,0)
(0,0,0)
(0,0,0)
(0,0,0)
(0,0,0)
(0,0,0)
(0,0,0)
(0,0,0)
(0,0,0)
(0,0,0)
(0,0,0)
(0,0,0)
(0,0,0)
(0,0,0)
(0,0,0)
(0,0,0)
(0,0,0)
(0,0,0)
(0,0,0)
(0,0,0)
(0,0,0)
(0,0,0)
(0,0,0)
(0,0,0)
(0,0,0)
(0,0,0)
(0,0,0)
(0,0,0)
(0,0,0)
(0,0,0)
(0,0,0)
(0,0,0)
(0,0,0)
(0,0,0)
(0,0,0)
(0,0,0)
(0,0,0)
(0,0,0)
(0,0,0)
(0,0,0)
(0,0,0)
(0,0,0)
(0,0,0)
(0,0,0)
(0,0,0)
(0,0,0)
(0,0,0)
(0,0,0)
(0,0,0)
(0,0,0)
(0,0,0)
(0,0,0)
(0,0,0)
(0,0,0)
(0,0,0)
(0,0,0)
(0,0,0)
(0,0,0)
(0,0,0)
(0,0,0)
(0,0,0)
(0,0,0)
(0,0,0)
(0,0,0)
(0,0,0)
(-2178.72514460125,40.6784895537905,241.896972691052)
(-2268.41512738016,32.8459008187948,469.154706584439)
(-2445.97642585946,8.7573997151876,668.40802594937)
(-2755.9634016569,-50.3443222372111,835.461447570796)
(-3361.36323003699,-167.011806899488,1010.01751369235)
(-4305.82385945377,-314.582669026441,1000.59493305878)
(-5632.25551934787,-482.528240118835,412.569926098137)
(-7232.92204403312,-451.216546071597,-1842.943441108)
(-8533.53507310727,-294.887531291678,-7545.66774381856)
(-7513.17337715412,-135.945861144264,-17905.902523275)
(0,0,0)
(0,0,0)
(0,0,0)
(0,0,0)
(0,0,0)
(0,0,0)
(-2339.44473089835,118.769238475996,196.48574842163)
(-2428.83871824686,95.7264645771203,386.673071941915)
(-2603.301599621,36.6046438553249,555.887298504807)
(-2896.04371265795,-99.1907871219132,699.343917859181)
(-3458.86496631808,-346.727362611257,821.697522848142)
(-4335.66077166675,-745.757775895365,804.989721316256)
(-5637.82662739322,-1295.61608810471,391.168382498647)
(-7207.89221504265,-1234.18100448765,-1702.33905166811)
(-8493.43382930762,-706.819573415614,-7411.12632387912)
(-7496.38019981992,-282.067990436838,-17818.4372553474)
(0,0,0)
(0,0,0)
(0,0,0)
(0,0,0)
(0,0,0)
(0,0,0)
(-2636.48487067497,212.015968536196,154.397931267282)
(-2694.29720673735,183.746152192824,295.211036307105)
(-2834.26613130162,110.086149564513,392.148619846166)
(-3122.37092110124,-73.7249087280852,417.544060668383)
(-3609.11978551313,-472.94835931698,332.950206798611)
(-4427.52740369694,-1318.16261902783,161.608842268805)
(-5854.83242171831,-3091.59334378165,354.414444096543)
(-7238.66853710258,-2982.99894230831,-1234.49810456283)
(-8381.48330151826,-1301.91367209916,-7075.67790289945)
(-7424.499033704,-444.424316408645,-17604.0436590655)
(0,0,0)
(0,0,0)
(0,0,0)
(0,0,0)
(0,0,0)
(0,0,0)
(-3098.13912179233,306.273320017679,137.76113701043)
(-3129.02665668044,298.204831155537,227.475141785981)
(-3210.59520299567,238.44511442023,213.631517653773)
(-3447.7727486216,74.2626529431556,0.435168047537545)
(-3828.90606592515,-367.379584464057,-615.823863749431)
(-4589.00553619932,-1656.49590084754,-1694.31890332168)
(-7289.54712093788,-7135.2383473889,336.729163718053)
(-7840.46625137328,-7347.96313094746,325.259107485966)
(-8124.42756722827,-1858.19036357125,-6348.41071935918)
(-7286.57257601137,-513.070287490696,-17254.9994164697)
(0,0,0)
(0,0,0)
(0,0,0)
(0,0,0)
(0,0,0)
(0,0,0)
(-3751.66293107976,333.456483833492,122.936555947134)
(-3750.65452207662,339.640581128736,182.938791891453)
(-3818.17944854639,329.575266133511,79.9448790395116)
(-3974.20211700499,277.502757536121,-407.598389533057)
(-4083.10713388571,119.816778283776,-1967.08026931889)
(-3717.17684726523,-119.650663867838,-7213.74432741593)
(8.91029883349771e-06,4.01446443924907e-06,-6.91819236205111e-06)