/*--------------------------------*- C++ -*----------------------------------*\
| =========                 |                                                 |
| \\      /  F ield         | foam-extend: Open Source Cstd::filesystem::create_directory();FD                    |
|  \\    /   O peration     | Version:     4.0                                |
|   \\  /    A nd           | Web:         http://www.foam-extend.org         |
|    \\/     M anipulation  |                                                 |
\*---------------------------------------------------------------------------*/
FoamFile
{
    version 2.0;
    format ascii;
    class volVectorField;
    location "Data/3918";
    object      H;
}
// * * * * * * * * * * * * * * * * * * * * * * * * * * * * * * * * * * * * * //

dimensions      [0 1 -1 0 0 0 0];

internalField   nonuniform List<vector>
4096
(
(0,0,0)
(0,0,0)
(0,0,0)
(0,0,0)
(0,0,0)
(0,0,0)
(0,0,0)
(0,0,0)
(0,0,0)
(0,0,0)
(0,0,0)
(0,0,0)
(0,0,0)
(0,0,0)
(0,0,0)
(0,0,0)
(0,0,0)
(0,0,0)
(0,0,0)
(0,0,0)
(0,0,0)
(0,0,0)
(0,0,0)
(0,0,0)
(0,0,0)
(0,0,0)
(0,0,0)
(0,0,0)
(0,0,0)
(0,0,0)
(0,0,0)
(0,0,0)
(0,0,0)
(0,0,0)
(0,0,0)
(0,0,0)
(0,0,0)
(0,0,0)
(0,0,0)
(0,0,0)
(0,0,0)
(0,0,0)
(0,0,0)
(0,0,0)
(0,0,0)
(0,0,0)
(0,0,0)
(0,0,0)
(0,0,0)
(0,0,0)
(0,0,0)
(0,0,0)
(0,0,0)
(0,0,0)
(0,0,0)
(0,0,0)
(0,0,0)
(0,0,0)
(0,0,0)
(0,0,0)
(0,0,0)
(0,0,0)
(0,0,0)
(0,0,0)
(0,0,0)
(0,0,0)
(0,0,0)
(0,0,0)
(0,0,0)
(0,0,0)
(0,0,0)
(0,0,0)
(0,0,0)
(0,0,0)
(0,0,0)
(0,0,0)
(0,0,0)
(0,0,0)
(0,0,0)
(0,0,0)
(0,0,0)
(0,0,0)
(0,0,0)
(0,0,0)
(0,0,0)
(0,0,0)
(0,0,0)
(0,0,0)
(0,0,0)
(0,0,0)
(0,0,0)
(0,0,0)
(0,0,0)
(0,0,0)
(0,0,0)
(0,0,0)
(0,0,0)
(0,0,0)
(0,0,0)
(0,0,0)
(0,0,0)
(0,0,0)
(0,0,0)
(0,0,0)
(0,0,0)
(0,0,0)
(0,0,0)
(0,0,0)
(0,0,0)
(0,0,0)
(0,0,0)
(0,0,0)
(0,0,0)
(0,0,0)
(0,0,0)
(0,0,0)
(0,0,0)
(0,0,0)
(0,0,0)
(0,0,0)
(0,0,0)
(0,0,0)
(0,0,0)
(0,0,0)
(0,0,0)
(0,0,0)
(0,0,0)
(0,0,0)
(0,0,0)
(0,0,0)
(0,0,0)
(0,0,0)
(0,0,0)
(0,0,0)
(0,0,0)
(0,0,0)
(0,0,0)
(0,0,0)
(0,0,0)
(0,0,0)
(0,0,0)
(0,0,0)
(0,0,0)
(0,0,0)
(0,0,0)
(0,0,0)
(0,0,0)
(0,0,0)
(0,0,0)
(0,0,0)
(0,0,0)
(0,0,0)
(0,0,0)
(0,0,0)
(0,0,0)
(0,0,0)
(0,0,0)
(0,0,0)
(0,0,0)
(0,0,0)
(0,0,0)
(0,0,0)
(0,0,0)
(0,0,0)
(0,0,0)
(0,0,0)
(0,0,0)
(0,0,0)
(0,0,0)
(0,0,0)
(0,0,0)
(0,0,0)
(0,0,0)
(0,0,0)
(0,0,0)
(0,0,0)
(0,0,0)
(0,0,0)
(0,0,0)
(0,0,0)
(0,0,0)
(0,0,0)
(0,0,0)
(0,0,0)
(0,0,0)
(0,0,0)
(0,0,0)
(0,0,0)
(0,0,0)
(0,0,0)
(0,0,0)
(0,0,0)
(0,0,0)
(0,0,0)
(0,0,0)
(0,0,0)
(0,0,0)
(0,0,0)
(0,0,0)
(0,0,0)
(0,0,0)
(0,0,0)
(0,0,0)
(0,0,0)
(0,0,0)
(0,0,0)
(0,0,0)
(0,0,0)
(0,0,0)
(0,0,0)
(0,0,0)
(0,0,0)
(0,0,0)
(0,0,0)
(0,0,0)
(0,0,0)
(0,0,0)
(0,0,0)
(0,0,0)
(0,0,0)
(0,0,0)
(0,0,0)
(0,0,0)
(0,0,0)
(0,0,0)
(0,0,0)
(0,0,0)
(0,0,0)
(0,0,0)
(0,0,0)
(0,0,0)
(0,0,0)
(0,0,0)
(0,0,0)
(0,0,0)
(0,0,0)
(0,0,0)
(0,0,0)
(0,0,0)
(0,0,0)
(0,0,0)
(0,0,0)
(0,0,0)
(0,0,0)
(0,0,0)
(0,0,0)
(0,0,0)
(0,0,0)
(0,0,0)
(0,0,0)
(0,0,0)
(0,0,0)
(0,0,0)
(0,0,0)
(0,0,0)
(0,0,0)
(0,0,0)
(0,0,0)
(0,0,0)
(0,0,0)
(0,0,0)
(0,0,0)
(0,0,0)
(0,0,0)
(0,0,0)
(0,0,0)
(0,0,0)
(0,0,0)
(0,0,0)
(0,0,0)
(0,0,0)
(0,0,0)
(0,0,0)
(0,0,0)
(0,0,0)
(0,0,0)
(0,0,0)
(0,0,0)
(0,0,0)
(0,0,0)
(0,0,0)
(0,0,0)
(0,0,0)
(0,0,0)
(0,0,0)
(0,0,0)
(0,0,0)
(0,0,0)
(0,0,0)
(0,0,0)
(0,0,0)
(0,0,0)
(0,0,0)
(0,0,0)
(0,0,0)
(0,0,0)
(0,0,0)
(0,0,0)
(0,0,0)
(0,0,0)
(0,0,0)
(0,0,0)
(0,0,0)
(0,0,0)
(0,0,0)
(0,0,0)
(0,0,0)
(0,0,0)
(0,0,0)
(0,0,0)
(0,0,0)
(0,0,0)
(0,0,0)
(0,0,0)
(0,0,0)
(0,0,0)
(0,0,0)
(0,0,0)
(0,0,0)
(0,0,0)
(0,0,0)
(0,0,0)
(0,0,0)
(0,0,0)
(0,0,0)
(0,0,0)
(0,0,0)
(0,0,0)
(0,0,0)
(0,0,0)
(0,0,0)
(0,0,0)
(0,0,0)
(0,0,0)
(0,0,0)
(0,0,0)
(0,0,0)
(0,0,0)
(0,0,0)
(0,0,0)
(0,0,0)
(0,0,0)
(0,0,0)
(0,0,0)
(0,0,0)
(0,0,0)
(0,0,0)
(0,0,0)
(0,0,0)
(0,0,0)
(0,0,0)
(0,0,0)
(0,0,0)
(0,0,0)
(0,0,0)
(0,0,0)
(0,0,0)
(0,0,0)
(0,0,0)
(0,0,0)
(0,0,0)
(0,0,0)
(0,0,0)
(0,0,0)
(0,0,0)
(0,0,0)
(0,0,0)
(0,0,0)
(0,0,0)
(0,0,0)
(0,0,0)
(0,0,0)
(0,0,0)
(0,0,0)
(0,0,0)
(0,0,0)
(0,0,0)
(0,0,0)
(0,0,0)
(0,0,0)
(0,0,0)
(0,0,0)
(0,0,0)
(0,0,0)
(0,0,0)
(0,0,0)
(0,0,0)
(0,0,0)
(0,0,0)
(0,0,0)
(0,0,0)
(0,0,0)
(0,0,0)
(0,0,0)
(0,0,0)
(0,0,0)
(0,0,0)
(0,0,0)
(0,0,0)
(0,0,0)
(0,0,0)
(0,0,0)
(0,0,0)
(0,0,0)
(0,0,0)
(0,0,0)
(0,0,0)
(0,0,0)
(0,0,0)
(0,0,0)
(0,0,0)
(0,0,0)
(0,0,0)
(0,0,0)
(0,0,0)
(0,0,0)
(0,0,0)
(0,0,0)
(0,0,0)
(0,0,0)
(0,0,0)
(0,0,0)
(0,0,0)
(0,0,0)
(0,0,0)
(0,0,0)
(0,0,0)
(0,0,0)
(0,0,0)
(0,0,0)
(0,0,0)
(0,0,0)
(0,0,0)
(0,0,0)
(0,0,0)
(0,0,0)
(0,0,0)
(0,0,0)
(0,0,0)
(0,0,0)
(0,0,0)
(0,0,0)
(0,0,0)
(0,0,0)
(0,0,0)
(0,0,0)
(0,0,0)
(0,0,0)
(0,0,0)
(0,0,0)
(0,0,0)
(0,0,0)
(0,0,0)
(0,0,0)
(0,0,0)
(0,0,0)
(0,0,0)
(0,0,0)
(0,0,0)
(0,0,0)
(0,0,0)
(0,0,0)
(0,0,0)
(0,0,0)
(0,0,0)
(0,0,0)
(0,0,0)
(0,0,0)
(0,0,0)
(0,0,0)
(0,0,0)
(0,0,0)
(0,0,0)
(0,0,0)
(0,0,0)
(0,0,0)
(0,0,0)
(0,0,0)
(0,0,0)
(0,0,0)
(0,0,0)
(0,0,0)
(0,0,0)
(0,0,0)
(0,0,0)
(0,0,0)
(0,0,0)
(0,0,0)
(0,0,0)
(0,0,0)
(0,0,0)
(0,0,0)
(0,0,0)
(0,0,0)
(0,0,0)
(0,0,0)
(0,0,0)
(0,0,0)
(0,0,0)
(0,0,0)
(0,0,0)
(0,0,0)
(0,0,0)
(0,0,0)
(0,0,0)
(0,0,0)
(0,0,0)
(0,0,0)
(0,0,0)
(0,0,0)
(0,0,0)
(0,0,0)
(0,0,0)
(0,0,0)
(0,0,0)
(0,0,0)
(0,0,0)
(0,0,0)
(0,0,0)
(0,0,0)
(0,0,0)
(0,0,0)
(0,0,0)
(0,0,0)
(0,0,0)
(0,0,0)
(0,0,0)
(0,0,0)
(0,0,0)
(0,0,0)
(0,0,0)
(0,0,0)
(0,0,0)
(0,0,0)
(0,0,0)
(0,0,0)
(0,0,0)
(0,0,0)
(0,0,0)
(0,0,0)
(0,0,0)
(0,0,0)
(0,0,0)
(0,0,0)
(0,0,0)
(0,0,0)
(0,0,0)
(0,0,0)
(0,0,0)
(0,0,0)
(0,0,0)
(0,0,0)
(0,0,0)
(0,0,0)
(0,0,0)
(0,0,0)
(0,0,0)
(0,0,0)
(0,0,0)
(0,0,0)
(0,0,0)
(0,0,0)
(0,0,0)
(0,0,0)
(0,0,0)
(0,0,0)
(0,0,0)
(0,0,0)
(0,0,0)
(0,0,0)
(0,0,0)
(0,0,0)
(0,0,0)
(0,0,0)
(0,0,0)
(0,0,0)
(0,0,0)
(0,0,0)
(0,0,0)
(0,0,0)
(0,0,0)
(0,0,0)
(0,0,0)
(0,0,0)
(0,0,0)
(0,0,0)
(0,0,0)
(0,0,0)
(0,0,0)
(0,0,0)
(0,0,0)
(0,0,0)
(0,0,0)
(0,0,0)
(0,0,0)
(0,0,0)
(0,0,0)
(0,0,0)
(0,0,0)
(0,0,0)
(0,0,0)
(0,0,0)
(0,0,0)
(0,0,0)
(0,0,0)
(0,0,0)
(0,0,0)
(0,0,0)
(0,0,0)
(0,0,0)
(0,0,0)
(0,0,0)
(0,0,0)
(0,0,0)
(0,0,0)
(0,0,0)
(0,0,0)
(0,0,0)
(0,0,0)
(0,0,0)
(0,0,0)
(0,0,0)
(0,0,0)
(0,0,0)
(0,0,0)
(0,0,0)
(0,0,0)
(0,0,0)
(0,0,0)
(0,0,0)
(0,0,0)
(0,0,0)
(0,0,0)
(0,0,0)
(0,0,0)
(0,0,0)
(0,0,0)
(0,0,0)
(0,0,0)
(0,0,0)
(0,0,0)
(0,0,0)
(0,0,0)
(0,0,0)
(0,0,0)
(0,0,0)
(0,0,0)
(0,0,0)
(0,0,0)
(0,0,0)
(0,0,0)
(0,0,0)
(0,0,0)
(0,0,0)
(0,0,0)
(0,0,0)
(0,0,0)
(0,0,0)
(0,0,0)
(0,0,0)
(0,0,0)
(0,0,0)
(0,0,0)
(0,0,0)
(0,0,0)
(0,0,0)
(0,0,0)
(0,0,0)
(0,0,0)
(0,0,0)
(0,0,0)
(0,0,0)
(0,0,0)
(0,0,0)
(0,0,0)
(0,0,0)
(0,0,0)
(0,0,0)
(0,0,0)
(0,0,0)
(0,0,0)
(0,0,0)
(0,0,0)
(0,0,0)
(0,0,0)
(0,0,0)
(0,0,0)
(0,0,0)
(0,0,0)
(0,0,0)
(0,0,0)
(0,0,0)
(0,0,0)
(0,0,0)
(0,0,0)
(0,0,0)
(0,0,0)
(0,0,0)
(0,0,0)
(0,0,0)
(0,0,0)
(0,0,0)
(0,0,0)
(0,0,0)
(0,0,0)
(0,0,0)
(0,0,0)
(0,0,0)
(0,0,0)
(0,0,0)
(0,0,0)
(0,0,0)
(0,0,0)
(0,0,0)
(0,0,0)
(0,0,0)
(0,0,0)
(0,0,0)
(0,0,0)
(0,0,0)
(0,0,0)
(0,0,0)
(0,0,0)
(0,0,0)
(0,0,0)
(0,0,0)
(0,0,0)
(0,0,0)
(0,0,0)
(0,0,0)
(0,0,0)
(0,0,0)
(0,0,0)
(0,0,0)
(0,0,0)
(0,0,0)
(0,0,0)
(0,0,0)
(0,0,0)
(0,0,0)
(0,0,0)
(0,0,0)
(0,0,0)
(0,0,0)
(0,0,0)
(0,0,0)
(0,0,0)
(0,0,0)
(0,0,0)
(0,0,0)
(0,0,0)
(0,0,0)
(0,0,0)
(0,0,0)
(0,0,0)
(0,0,0)
(0,0,0)
(0,0,0)
(0,0,0)
(0,0,0)
(0,0,0)
(0,0,0)
(0,0,0)
(0,0,0)
(0,0,0)
(0,0,0)
(0,0,0)
(0,0,0)
(0,0,0)
(0,0,0)
(0,0,0)
(0,0,0)
(0,0,0)
(0,0,0)
(0,0,0)
(0,0,0)
(0,0,0)
(0,0,0)
(0,0,0)
(0,0,0)
(0,0,0)
(0,0,0)
(0,0,0)
(0,0,0)
(0,0,0)
(0,0,0)
(0,0,0)
(0,0,0)
(0,0,0)
(0,0,0)
(0,0,0)
(0,0,0)
(0,0,0)
(0,0,0)
(0,0,0)
(0,0,0)
(0,0,0)
(0,0,0)
(0,0,0)
(0,0,0)
(0,0,0)
(0,0,0)
(0,0,0)
(0,0,0)
(0,0,0)
(0,0,0)
(0,0,0)
(0,0,0)
(0,0,0)
(0,0,0)
(0,0,0)
(0,0,0)
(0,0,0)
(0,0,0)
(0,0,0)
(0,0,0)
(0,0,0)
(0,0,0)
(0,0,0)
(-5.62055128166094e-13,-1.05695177382567e-11,1.21367635519604e-11)
(-1.50369329825685e-12,-2.39286499643577e-11,1.20037802511234e-11)
(-8.31484739191854e-13,-4.38656036267255e-11,1.11417656459229e-11)
(-9.53999231788505e-13,-7.34706150846486e-11,9.78174173045249e-12)
(-7.25822432095887e-13,-1.16777800466106e-10,7.65070401522895e-12)
(-1.00300571253276e-12,-1.83970580776953e-10,5.07955232988526e-12)
(-1.17252695892824e-12,-2.93378091102798e-10,2.81589930300146e-12)
(-1.0841284109583e-12,-4.77055421518634e-10,1.50812308675586e-12)
(-9.44323787775369e-13,-7.79843822353694e-10,6.54132729593165e-13)
(-4.54093529445032e-13,-1.20394891874141e-09,4.52042586586555e-13)
(0,0,0)
(0,0,0)
(0,0,0)
(0,0,0)
(0,0,0)
(0,0,0)
(-1.17432504364413e-12,-1.05902854876076e-11,2.80044471864416e-11)
(-2.17705539718265e-12,-2.36063270272481e-11,2.71242290211139e-11)
(-1.38502585681051e-12,-4.300863425752e-11,2.51958192812579e-11)
(-2.0466523636117e-12,-7.15938948374662e-11,2.24498254915358e-11)
(-2.49030487956653e-12,-1.14206183637141e-10,1.83298789742725e-11)
(-2.40577528595874e-12,-1.81967667539485e-10,1.30809310867027e-11)
(-1.81847824647405e-12,-2.92754056455577e-10,8.09395284961878e-12)
(-1.01292056977023e-12,-4.77341992021274e-10,4.94851631942183e-12)
(-7.98523592199099e-13,-7.8071508314709e-10,2.92962952905287e-12)
(-3.07208573760417e-13,-1.20468816399104e-09,1.51832217751898e-12)
(0,0,0)
(0,0,0)
(0,0,0)
(0,0,0)
(0,0,0)
(0,0,0)
(-1.03498116881271e-12,-9.66495884439544e-12,4.86008881414932e-11)
(-2.33327973541153e-12,-2.19965514345689e-11,4.76825502849465e-11)
(-1.9833638574747e-12,-4.04891593325699e-11,4.51830396449446e-11)
(-2.73461367977545e-12,-6.73441944547029e-11,4.07859844963297e-11)
(-3.70878060957073e-12,-1.08518686125049e-10,3.45279924567376e-11)
(-3.88803906650262e-12,-1.76680804730379e-10,2.70282523638616e-11)
(-2.22726736161562e-12,-2.89988977740903e-10,1.91311873174472e-11)
(4.81365188911961e-13,-4.76636328273448e-10,1.34369534755599e-11)
(1.41873056688686e-12,-7.80803058915429e-10,9.02254946119576e-12)
(1.20888089629254e-12,-1.20463078725017e-09,4.48560889344782e-12)
(0,0,0)
(0,0,0)
(0,0,0)
(0,0,0)
(0,0,0)
(0,0,0)
(-1.0289204725881e-12,-8.39025487040176e-12,7.70614787341301e-11)
(-2.16800691765393e-12,-1.93870398197616e-11,7.59201284793236e-11)
(-2.45129788475287e-12,-3.57544581636382e-11,7.29296371417313e-11)
(-3.96634890111613e-12,-6.01602398688129e-11,6.7940594050227e-11)
(-5.37913475983071e-12,-9.95995451017427e-11,6.13340167092963e-11)
(-5.00452851941642e-12,-1.67460764348342e-10,5.32099132527029e-11)
(-9.78518888256091e-13,-2.83802920228109e-10,4.30713390515571e-11)
(3.61594736329027e-12,-4.73557289533407e-10,3.27331588883805e-11)
(4.92535840844174e-12,-7.78294833041333e-10,2.23936560578091e-11)
(5.2688737514593e-12,-1.20210233891441e-09,1.13564595854916e-11)
(0,0,0)
(0,0,0)
(0,0,0)
(0,0,0)
(0,0,0)
(0,0,0)
(-2.69000230407915e-12,-6.63035639901362e-12,1.19223206396426e-10)
(-3.95633549537114e-12,-1.57607494948463e-11,1.18123798390252e-10)
(-3.57055999153376e-12,-2.94662982390449e-11,1.15443187894998e-10)
(-4.19177715233761e-12,-5.11772036428553e-11,1.10945644035422e-10)
(-5.09602113245403e-12,-8.82468103303091e-11,1.04918089990101e-10)
(-3.83800355918117e-12,-1.54139662055871e-10,9.69936223606842e-11)
(2.10476907567221e-12,-2.7185025041559e-10,8.65253046664625e-11)
(7.45489903354044e-12,-4.65139885278756e-10,6.93360784867879e-11)
(9.7689282762108e-12,-7.70279526272436e-10,4.8547243851089e-11)
(1.11911886459989e-11,-1.19376390565058e-09,2.52818301714916e-11)
(0,0,0)
(0,0,0)
(0,0,0)
(0,0,0)
(0,0,0)
(0,0,0)
(-2.68928337712901e-12,-5.17170057428344e-12,1.86506888560233e-10)
(-5.10130605419956e-12,-1.24169521756286e-11,1.8540982222162e-10)
(-5.81623493979545e-12,-2.31249611665238e-11,1.82915699725657e-10)
(-5.87187915699595e-12,-4.15565466856298e-11,1.78783287405001e-10)
(-5.74047500443762e-12,-7.5382455393584e-11,1.73151207833747e-10)
(-2.67756780262272e-12,-1.39445567047863e-10,1.64701233695315e-10)
(4.18936698724625e-12,-2.57494094938118e-10,1.5107593164146e-10)
(1.04636208911686e-11,-4.49019940539403e-10,1.26363338488251e-10)
(1.36025150268994e-11,-7.5103076065321e-10,9.1540040950483e-11)
(1.55129786743398e-11,-1.17188889620766e-09,4.86401743620094e-11)
(0,0,0)
(0,0,0)
(0,0,0)
(0,0,0)
(0,0,0)
(0,0,0)
(-3.44800715920441e-12,-3.5743669291626e-12,2.93195205804809e-10)
(-6.83617316350159e-12,-9.21311089875387e-12,2.91892753318777e-10)
(-8.5129095553769e-12,-1.75630772909948e-11,2.89778980898017e-10)
(-8.67244709199451e-12,-3.29316968634714e-11,2.86571470832251e-10)
(-7.19981786897318e-12,-6.27464411584296e-11,2.81631088725945e-10)
(-1.75729165674907e-12,-1.22287441356828e-10,2.71940914045456e-10)
(5.48318739274867e-12,-2.35449004955515e-10,2.51724939060239e-10)
(1.28106888306532e-11,-4.18543120665498e-10,2.17217233737248e-10)
(1.65360304157475e-11,-7.11937836412678e-10,1.62556191646357e-10)
(1.82280545236643e-11,-1.12653526199106e-09,8.87850561496136e-11)
(0,0,0)
(0,0,0)
(0,0,0)
(0,0,0)
(0,0,0)
(0,0,0)
(-4.1577931349819e-12,-2.02065435598877e-12,4.71510023615928e-10)
(-7.92565804820292e-12,-6.47942451778697e-12,4.70784403965082e-10)
(-1.03061984269198e-11,-1.32604182695275e-11,4.69037155388128e-10)
(-1.0667293433656e-11,-2.61571824549592e-11,4.65969037073168e-10)
(-8.53384696421804e-12,-5.20325411883615e-11,4.60489016856253e-10)
(-3.36220947323975e-12,-1.04198530464767e-10,4.48458553935559e-10)
(3.7891391233006e-12,-2.02240486147395e-10,4.22214260137515e-10)
(1.17394204345491e-11,-3.65576831290072e-10,3.71993621933535e-10)
(1.68348544185791e-11,-6.40113586185198e-10,2.88223251279736e-10)
(1.91856278554004e-11,-1.04001225511437e-09,1.63455936393021e-10)
(0,0,0)
(0,0,0)
(0,0,0)
(0,0,0)
(0,0,0)
(0,0,0)
(-4.75128564095898e-12,-9.41467215555669e-13,7.70020955241998e-10)
(-8.78167283067578e-12,-3.8800953415251e-12,7.69603398178732e-10)
(-1.12037219667892e-11,-9.03706368470857e-12,7.68204452834262e-10)
(-1.1409111883216e-11,-1.89577029508681e-11,7.64946141147254e-10)
(-8.4400819896267e-12,-3.86741405997462e-11,7.58032010204844e-10)
(-2.9546163790768e-12,-7.82160382162205e-11,7.42463545596827e-10)
(4.11706521643558e-12,-1.5216860965552e-10,7.08416504890508e-10)
(1.14605585737475e-11,-2.82357817182737e-10,6.40945070950873e-10)
(1.64687716267023e-11,-5.16550778894064e-10,5.18853396753687e-10)
(1.78223155164187e-11,-8.78241181073234e-10,3.1181595311874e-10)
(0,0,0)
(0,0,0)
(0,0,0)
(0,0,0)
(0,0,0)
(0,0,0)
(-4.94973512862055e-12,-2.41130748348551e-13,1.19049975283548e-09)
(-8.72441803277817e-12,-1.59884988463262e-12,1.19006234348668e-09)
(-1.09364756973315e-11,-4.4979103098807e-12,1.18896705611915e-09)
(-1.19209753283299e-11,-1.00997051203826e-11,1.18563662211305e-09)
(-9.93083880994903e-12,-2.06530219924506e-11,1.17712971571932e-09)
(-4.48273508750384e-12,-4.21454848924879e-11,1.15875023512963e-09)
(3.09072235798402e-12,-8.30875566221403e-11,1.11911025500253e-09)
(1.06566644643689e-11,-1.59797907680584e-10,1.03802087753215e-09)
(1.64900951666641e-11,-3.10146249493814e-10,8.78961503526105e-10)
(1.74132366265249e-11,-5.67560070444862e-10,5.68485010714206e-10)
(0,0,0)
(0,0,0)
(0,0,0)
(0,0,0)
(0,0,0)
(0,0,0)
(0,0,0)
(0,0,0)
(0,0,0)
(0,0,0)
(0,0,0)
(0,0,0)
(0,0,0)
(0,0,0)
(0,0,0)
(0,0,0)
(0,0,0)
(0,0,0)
(0,0,0)
(0,0,0)
(0,0,0)
(0,0,0)
(0,0,0)
(0,0,0)
(0,0,0)
(0,0,0)
(0,0,0)
(0,0,0)
(0,0,0)
(0,0,0)
(0,0,0)
(0,0,0)
(0,0,0)
(0,0,0)
(0,0,0)
(0,0,0)
(0,0,0)
(0,0,0)
(0,0,0)
(0,0,0)
(0,0,0)
(0,0,0)
(0,0,0)
(0,0,0)
(0,0,0)
(0,0,0)
(0,0,0)
(0,0,0)
(0,0,0)
(0,0,0)
(0,0,0)
(0,0,0)
(0,0,0)
(0,0,0)
(0,0,0)
(0,0,0)
(0,0,0)
(0,0,0)
(0,0,0)
(0,0,0)
(0,0,0)
(0,0,0)
(0,0,0)
(0,0,0)
(0,0,0)
(0,0,0)
(0,0,0)
(0,0,0)
(0,0,0)
(0,0,0)
(0,0,0)
(0,0,0)
(0,0,0)
(0,0,0)
(0,0,0)
(0,0,0)
(0,0,0)
(0,0,0)
(0,0,0)
(0,0,0)
(0,0,0)
(0,0,0)
(0,0,0)
(0,0,0)
(0,0,0)
(0,0,0)
(0,0,0)
(0,0,0)
(0,0,0)
(0,0,0)
(0,0,0)
(0,0,0)
(0,0,0)
(0,0,0)
(0,0,0)
(0,0,0)
(0,0,0)
(0,0,0)
(0,0,0)
(0,0,0)
(0,0,0)
(0,0,0)
(-4.08304077981421e-13,-2.08949052484351e-11,2.28249395134986e-11)
(-9.64001630170898e-13,-4.7002372949283e-11,2.22955897306518e-11)
(-3.28430192944951e-13,-8.35063396266939e-11,2.02638772289278e-11)
(-6.99681763762234e-13,-1.35837552199402e-10,1.70853650626661e-11)
(-7.26287575782954e-13,-2.12261747716449e-10,1.28274630991173e-11)
(-7.422659230062e-13,-3.29032698900149e-10,7.64490211146429e-12)
(-4.88785389774944e-13,-5.15968430696306e-10,2.78080390130237e-12)
(5.6432448715398e-14,-8.3435484157837e-10,3.27545697741669e-13)
(1.29027148050167e-13,-1.44077031781656e-09,-6.21805959137707e-13)
(7.3719430653326e-13,-2.83237862518941e-09,-5.25845006136552e-13)
(0,0,0)
(0,0,0)
(0,0,0)
(0,0,0)
(0,0,0)
(0,0,0)
(-1.21943352152977e-12,-2.04139585657262e-11,5.15605709206398e-11)
(-1.8584212499898e-12,-4.5572894937676e-11,4.98568116865478e-11)
(-1.15850699205562e-12,-8.07269034203578e-11,4.59000484824395e-11)
(-2.17640622908652e-12,-1.31378427825905e-10,3.97930308169712e-11)
(-2.92885450407567e-12,-2.06653154403869e-10,3.11573856037382e-11)
(-2.70565985800133e-12,-3.24299648779907e-10,1.96711522063778e-11)
(-1.43812043110872e-12,-5.14177553945033e-10,8.61595435164119e-12)
(3.0030247326207e-13,-8.34978555849774e-10,3.29531014235249e-12)
(7.00759528047947e-13,-1.44263648720652e-09,1.57603693028206e-12)
(1.15373686273736e-12,-2.83457361294615e-09,8.40249164676354e-13)
(0,0,0)
(0,0,0)
(0,0,0)
(0,0,0)
(0,0,0)
(0,0,0)
(-1.39134728625919e-12,-1.839194068014e-11,8.97268411326112e-11)
(-2.44328071021406e-12,-4.16532403660734e-11,8.75959649399361e-11)
(-2.32100987775445e-12,-7.42980605193161e-11,8.24642382567193e-11)
(-3.66057622609115e-12,-1.21773358247634e-10,7.34577239716705e-11)
(-5.12818154006705e-12,-1.94459212806961e-10,6.02233597489962e-11)
(-5.21101440214788e-12,-3.13192691277817e-10,4.26506931400403e-11)
(-2.71909103241802e-12,-5.09342571347567e-10,2.41751606342197e-11)
(1.81673046304372e-12,-8.35769076734849e-10,1.5288381304085e-11)
(3.44744526047211e-12,-1.44507815598776e-09,1.09265395495591e-11)
(3.16604145339952e-12,-2.83692572717366e-09,5.93583360830757e-12)
(0,0,0)
(0,0,0)
(0,0,0)
(0,0,0)
(0,0,0)
(0,0,0)
(-1.6474686891687e-12,-1.54154695032909e-11,1.41089439331981e-10)
(-2.80380590497774e-12,-3.5624530259421e-11,1.38812678115731e-10)
(-3.75041471785522e-12,-6.40480308410023e-11,1.33165799421819e-10)
(-6.34280778614058e-12,-1.06516262294032e-10,1.2326291684353e-10)
(-8.60776607466084e-12,-1.7462555256156e-10,1.08430161615828e-10)
(-8.18705661073741e-12,-2.92465855576897e-10,8.81533142904607e-11)
(-2.5930085376228e-12,-4.98041395176585e-10,6.43669116018868e-11)
(5.5380459392106e-12,-8.34411043091158e-10,4.87479529642919e-11)
(7.94724811266943e-12,-1.44487601631929e-09,3.50172932225255e-11)
(8.28690007471677e-12,-2.83581948741439e-09,1.86289096645447e-11)
(0,0,0)
(0,0,0)
(0,0,0)
(0,0,0)
(0,0,0)
(0,0,0)
(-3.049250122637e-12,-1.196858546079e-11,2.15925366860613e-10)
(-4.61952231933801e-12,-2.81595611349818e-11,2.13848418851938e-10)
(-5.41435320448294e-12,-5.14791847127533e-11,2.09033980689392e-10)
(-7.78488006424221e-12,-8.7576420748983e-11,2.00304086420096e-10)
(-1.00359084397598e-11,-1.48140715467956e-10,1.87430948010195e-10)
(-8.06378087303538e-12,-2.59364955444526e-10,1.71456350169869e-10)
(4.93783977796416e-12,-4.70562124555839e-10,1.56787888536331e-10)
(1.21237889301065e-11,-8.24593044673086e-10,1.22332611370372e-10)
(1.37855763361171e-11,-1.43525753144129e-09,8.51740106729455e-11)
(1.45980093743753e-11,-2.82339865322727e-09,4.42156020535661e-11)
(0,0,0)
(0,0,0)
(0,0,0)
(0,0,0)
(0,0,0)
(0,0,0)
(-3.18955068363458e-12,-9.21756488657e-12,3.31586406327135e-10)
(-5.81102483511523e-12,-2.15641153516796e-11,3.29737795421892e-10)
(-7.24570649467842e-12,-3.92342281533461e-11,3.25697933676014e-10)
(-8.86464940789634e-12,-6.82548631346684e-11,3.18395109591602e-10)
(-9.92651510114685e-12,-1.20682987249339e-10,3.07991945999563e-10)
(-6.21039143979697e-12,-2.27762544281416e-10,2.94182700207855e-10)
(6.85687015776947e-12,-4.4923688938814e-10,2.75309220046197e-10)
(1.4810098554929e-11,-8.00885318383759e-10,2.28667867209539e-10)
(1.7409457374796e-11,-1.40402993345602e-09,1.63491711360659e-10)
(1.87995188200287e-11,-2.78603849845679e-09,8.56665020169021e-11)
(0,0,0)
(0,0,0)
(0,0,0)
(0,0,0)
(0,0,0)
(0,0,0)
(-3.69926724634831e-12,-6.5954154603736e-12,5.13065748977494e-10)
(-7.4560871237059e-12,-1.54133790245707e-11,5.11395612543894e-10)
(-9.60805851107111e-12,-2.81832747862286e-11,5.08461809289905e-10)
(-1.0506579394208e-11,-5.11692197959055e-11,5.03544131299315e-10)
(-8.22354315850836e-12,-9.53909076212484e-11,4.96615583410194e-10)
(3.69772436395607e-13,-1.92545457900483e-10,4.8429842410014e-10)
(6.78237390763884e-12,-4.12745728755556e-10,4.47794927947023e-10)
(1.45054415458646e-11,-7.48379634801222e-10,3.91577005798358e-10)
(1.84829156854229e-11,-1.33521662606929e-09,2.88838577436734e-10)
(2.04901037975195e-11,-2.70618720838045e-09,1.5535009182724e-10)
(0,0,0)
(0,0,0)
(0,0,0)
(0,0,0)
(0,0,0)
(0,0,0)
(-4.51136062456764e-12,-4.26914101257456e-12,8.23280099044252e-10)
(-8.77773864750937e-12,-1.05095331982271e-11,8.21990218415381e-10)
(-1.1461434696774e-11,-2.01670129751785e-11,8.1955203622984e-10)
(-1.23867527208331e-11,-4.00837362579507e-11,8.15502295658286e-10)
(-9.86178463216303e-12,-8.12626292621825e-11,8.08512558592969e-10)
(-3.1004079236606e-12,-1.71620324881624e-10,7.93247800510527e-10)
(3.93790083546967e-12,-3.57967978024917e-10,7.52432341338792e-10)
(1.22907769807813e-11,-6.5003455280409e-10,6.61496092854796e-10)
(1.80393620142462e-11,-1.2062159180296e-09,5.09763742508459e-10)
(2.08704902062999e-11,-2.55417269315846e-09,2.89585738303368e-10)
(0,0,0)
(0,0,0)
(0,0,0)
(0,0,0)
(0,0,0)
(0,0,0)
(-5.03406504490072e-12,-2.41508662882668e-12,1.42283488822185e-09)
(-9.66397294309727e-12,-6.55157617602906e-12,1.42158753097113e-09)
(-1.24845636546036e-11,-1.39010310989719e-11,1.41920055701311e-09)
(-1.3352978771287e-11,-2.97819535901832e-11,1.41443468509608e-09)
(-1.08927359888971e-11,-6.23932496234231e-11,1.40413325312105e-09)
(-4.97812899653264e-12,-1.31916266455241e-10,1.38060448891415e-09)
(2.50744612271814e-12,-2.66709937881793e-10,1.32451926390763e-09)
(1.09923232688003e-11,-4.99307107202855e-10,1.20543944953463e-09)
(1.71016858613473e-11,-9.88030840710887e-10,9.91233300412133e-10)
(1.89571580067556e-11,-2.26633991806213e-09,6.19655648901877e-10)
(0,0,0)
(0,0,0)
(0,0,0)
(0,0,0)
(0,0,0)
(0,0,0)
(-4.75345652817664e-12,-9.70958857648266e-13,2.80937991080539e-09)
(-9.22798054987378e-12,-3.07346351536481e-12,2.8082968349392e-09)
(-1.21039520011187e-11,-7.27484000148058e-12,2.80599870316835e-09)
(-1.35137740549815e-11,-1.63290910961614e-11,2.80049007932043e-09)
(-1.22043802127207e-11,-3.41311302822952e-11,2.7869673024811e-09)
(-6.98823985289538e-12,-7.18596424453393e-11,2.75707343729763e-09)
(1.09254320618939e-12,-1.44791310580537e-10,2.68955956084339e-09)
(9.91813078985941e-12,-2.83716289784558e-10,2.54799270788471e-09)
(1.68203384847463e-11,-6.16829270568927e-10,2.26638381128868e-09)
(1.83381768959844e-11,-1.64819453397813e-09,1.64998217597946e-09)
(0,0,0)
(0,0,0)
(0,0,0)
(0,0,0)
(0,0,0)
(0,0,0)
(0,0,0)
(0,0,0)
(0,0,0)
(0,0,0)
(0,0,0)
(0,0,0)
(0,0,0)
(0,0,0)
(0,0,0)
(0,0,0)
(0,0,0)
(0,0,0)
(0,0,0)
(0,0,0)
(0,0,0)
(0,0,0)
(0,0,0)
(0,0,0)
(0,0,0)
(0,0,0)
(0,0,0)
(0,0,0)
(0,0,0)
(0,0,0)
(0,0,0)
(0,0,0)
(0,0,0)
(0,0,0)
(0,0,0)
(0,0,0)
(0,0,0)
(0,0,0)
(0,0,0)
(0,0,0)
(0,0,0)
(0,0,0)
(0,0,0)
(0,0,0)
(0,0,0)
(0,0,0)
(0,0,0)
(0,0,0)
(0,0,0)
(0,0,0)
(0,0,0)
(0,0,0)
(0,0,0)
(0,0,0)
(0,0,0)
(0,0,0)
(0,0,0)
(0,0,0)
(0,0,0)
(0,0,0)
(0,0,0)
(0,0,0)
(0,0,0)
(0,0,0)
(0,0,0)
(0,0,0)
(0,0,0)
(0,0,0)
(0,0,0)
(0,0,0)
(0,0,0)
(0,0,0)
(0,0,0)
(0,0,0)
(0,0,0)
(0,0,0)
(0,0,0)
(0,0,0)
(0,0,0)
(0,0,0)
(0,0,0)
(0,0,0)
(0,0,0)
(0,0,0)
(0,0,0)
(0,0,0)
(0,0,0)
(0,0,0)
(0,0,0)
(0,0,0)
(0,0,0)
(0,0,0)
(0,0,0)
(0,0,0)
(0,0,0)
(0,0,0)
(0,0,0)
(0,0,0)
(0,0,0)
(0,0,0)
(0,0,0)
(0,0,0)
(-3.59900978413678e-13,-2.8908843274655e-11,3.15963463870464e-11)
(-3.61767139765181e-13,-6.43344798379688e-11,3.03178244112027e-11)
(7.06457677915595e-14,-1.11573325591587e-10,2.70382288276077e-11)
(-9.00904173492325e-13,-1.76382182523392e-10,2.21347270383156e-11)
(-1.15231990136447e-12,-2.69919074796402e-10,1.50552027944911e-11)
(-6.11217832620108e-13,-4.06276153056474e-10,6.36086797304447e-12)
(1.73596061766393e-13,-6.07582706282109e-10,-1.68792009114877e-12)
(1.62949837673578e-12,-8.99658046460356e-10,-4.81703426336648e-12)
(1.89923558570647e-12,-1.31410601621012e-09,-4.40599231577363e-12)
(2.40633705603974e-12,-1.81982763393463e-09,-2.53322594768197e-12)
(0,0,0)
(0,0,0)
(0,0,0)
(0,0,0)
(0,0,0)
(0,0,0)
(-1.53769217308022e-12,-2.79649647868782e-11,6.93435897967525e-11)
(-1.82131261847245e-12,-6.182914687175e-11,6.66723038902278e-11)
(-1.48033222819074e-12,-1.06880968960223e-10,6.05890128027548e-11)
(-3.14583059389685e-12,-1.69271438213387e-10,5.06822226239634e-11)
(-3.63656270319395e-12,-2.61445537671976e-10,3.57762200335516e-11)
(-2.7574195057943e-12,-3.99507821210265e-10,1.5462209415903e-11)
(-9.52458820064537e-13,-6.06440401948248e-10,-4.51260741067919e-12)
(2.81009657124092e-12,-9.02630318654602e-10,-9.79408221990995e-12)
(3.87821607522371e-12,-1.31860099791339e-09,-6.72954772367234e-12)
(4.34610025567292e-12,-1.82471117002477e-09,-2.78873424197573e-12)
(0,0,0)
(0,0,0)
(0,0,0)
(0,0,0)
(0,0,0)
(0,0,0)
(-2.23694227267073e-12,-2.5095250698799e-11,1.18953813049702e-10)
(-3.34026413244119e-12,-5.57575991259455e-11,1.15536847782887e-10)
(-3.56452527083288e-12,-9.64973580654392e-11,1.0757282799055e-10)
(-5.68330795691324e-12,-1.53916021798853e-10,9.30931462056842e-11)
(-7.38917517686987e-12,-2.41597546254912e-10,6.98878906211237e-11)
(-7.46231759758608e-12,-3.81654998022559e-10,3.54579082344317e-11)
(-5.13348787298979e-12,-6.04138399681276e-10,-3.78395762020885e-12)
(4.82053857403246e-12,-9.1102713782772e-10,-8.2320587543518e-12)
(8.23601153377398e-12,-1.32803585558451e-09,-1.67363277135031e-12)
(7.99563530240714e-12,-1.83257243109591e-09,1.24582039146131e-12)
(0,0,0)
(0,0,0)
(0,0,0)
(0,0,0)
(0,0,0)
(0,0,0)
(-2.81759151660489e-12,-2.08849421964175e-11,1.84087383166743e-10)
(-4.62189633437931e-12,-4.67623850049805e-11,1.80637681430928e-10)
(-6.41637826805462e-12,-8.07154184978774e-11,1.71880667729349e-10)
(-1.04498941049077e-11,-1.29356951339322e-10,1.55785751869604e-10)
(-1.48157558437637e-11,-2.06347334902848e-10,1.28613872865732e-10)
(-1.75015540527663e-11,-3.42217095766721e-10,8.46960344163392e-11)
(-1.44533205205517e-11,-5.95680901204287e-10,2.3536110227574e-11)
(9.45070726261236e-12,-9.26483382499313e-10,2.2386286842362e-11)
(1.47171467935439e-11,-1.3401658177653e-09,2.4862868455623e-11)
(1.44949755505234e-11,-1.839111975331e-09,1.61767110676314e-11)
(0,0,0)
(0,0,0)
(0,0,0)
(0,0,0)
(0,0,0)
(0,0,0)
(-3.72332268782272e-12,-1.63564713166013e-11,2.76716080426952e-10)
(-6.40052993952789e-12,-3.63951277496299e-11,2.73286186989791e-10)
(-8.92941549632057e-12,-6.22452352674914e-11,2.653359853522e-10)
(-1.42332992684841e-11,-9.86758490970455e-11,2.51009913694425e-10)
(-2.15190388162642e-11,-1.56256332714062e-10,2.28661676078184e-10)
(-2.49977304034358e-11,-2.64376713854335e-10,2.0227278043263e-10)
(1.80678817748594e-11,-5.20937638303544e-10,2.19128918554534e-10)
(2.55746633376884e-11,-9.40834691413118e-10,1.4375429931402e-10)
(2.35163869720385e-11,-1.34468398940621e-09,9.73885858890843e-11)
(2.14534566569186e-11,-1.83242102929569e-09,5.07186759467106e-11)
(0,0,0)
(0,0,0)
(0,0,0)
(0,0,0)
(0,0,0)
(0,0,0)
(-3.96308920481789e-12,-1.2427906351835e-11,4.10571939165235e-10)
(-7.92189941650935e-12,-2.67766696164766e-11,4.07595058228998e-10)
(-1.09938357775729e-11,-4.41386631174516e-11,4.01291448638835e-10)
(-1.55471291540052e-11,-6.83646819740371e-11,3.90633100167462e-10)
(-2.14093489376485e-11,-1.09167182871889e-10,3.76003228953703e-10)
(-2.2553997659437e-11,-2.07680451192734e-10,3.59497361476302e-10)
(1.7007062362958e-11,-5.27003677558848e-10,3.70616903542481e-10)
(2.74805708195215e-11,-9.29919043365711e-10,2.90967913730662e-10)
(2.64213593336676e-11,-1.31530038129008e-09,2.01022147025835e-10)
(2.46147307601046e-11,-1.79173802913254e-09,1.03118207143103e-10)
(0,0,0)
(0,0,0)
(0,0,0)
(0,0,0)
(0,0,0)
(0,0,0)
(-4.35540525887121e-12,-8.5257178981343e-12,6.03174808683873e-10)
(-9.42612969841813e-12,-1.77635674900336e-11,6.01025238712188e-10)
(-1.27066423310164e-11,-2.81118195446114e-11,5.97169752298737e-10)
(-1.46635150435645e-11,-4.25001394390243e-11,5.92830483671597e-10)
(-1.00346622067591e-11,-6.49385470701888e-11,5.93089730786115e-10)
(1.59481355705129e-11,-1.27229597026645e-10,6.01895006775195e-10)
(8.22254532543178e-12,-4.92601848635544e-10,5.31183804631923e-10)
(1.88987879098113e-11,-8.71185826890489e-10,5.06865213106684e-10)
(2.29706932559849e-11,-1.23215406714326e-09,3.51344822467264e-10)
(2.38256804023164e-11,-1.69631172747324e-09,1.80498079764539e-10)
(0,0,0)
(0,0,0)
(0,0,0)
(0,0,0)
(0,0,0)
(0,0,0)
(-5.07553437812306e-12,-5.29798379914545e-12,8.84921148904342e-10)
(-1.02975134844309e-11,-1.11386824509164e-11,8.83147476168176e-10)
(-1.36776760014079e-11,-1.85559122947835e-11,8.80369872705318e-10)
(-1.56987983232434e-11,-3.34201143924603e-11,8.78326697690824e-10)
(-1.34664061881218e-11,-6.66741781266678e-11,8.79712428786676e-10)
(-1.98900717835198e-12,-1.62677103319391e-10,8.84780608533322e-10)
(3.61610917609e-12,-4.45165773140948e-10,8.65234034115056e-10)
(1.32956817248182e-11,-7.20732479881258e-10,7.37350273694818e-10)
(2.00322889004361e-11,-1.06659529316029e-09,5.37888308644015e-10)
(2.26234534143489e-11,-1.51911715899956e-09,2.90096450984983e-10)
(0,0,0)
(0,0,0)
(0,0,0)
(0,0,0)
(0,0,0)
(0,0,0)
(-5.2308355658758e-12,-2.86514590356123e-12,1.2917971190622e-09)
(-1.07551116463285e-11,-6.65934807121864e-12,1.29016438035556e-09)
(-1.43448828341821e-11,-1.28731773275695e-11,1.28722904945791e-09)
(-1.65044092904296e-11,-2.74868818148871e-11,1.28336783636878e-09)
(-1.56260911225667e-11,-6.04788498865169e-11,1.27671795569776e-09)
(-8.94952799977107e-12,-1.41351068086051e-10,1.26016292622422e-09)
(-3.31366805274625e-13,-3.12773786271403e-10,1.20700143749848e-09)
(9.60765497098669e-12,-5.21889444231907e-10,1.06213164737114e-09)
(1.74777672310831e-11,-8.19971534365302e-10,8.23298327051457e-10)
(2.04674228244225e-11,-1.22964315973557e-09,4.73289510917198e-10)
(0,0,0)
(0,0,0)
(0,0,0)
(0,0,0)
(0,0,0)
(0,0,0)
(-4.64133952069556e-12,-1.15269238575662e-12,1.79223058754799e-09)
(-1.00033122944833e-11,-3.11608643120678e-12,1.79109289620094e-09)
(-1.38701681547224e-11,-6.9640699170562e-12,1.78834211659168e-09)
(-1.63200883122555e-11,-1.60743551578859e-11,1.78262296384109e-09)
(-1.64416453104685e-11,-3.58029919347998e-11,1.76976934133316e-09)