/*--------------------------------*- C++ -*----------------------------------*\
| =========                 |                                                 |
| \\      /  F ield         | foam-extend: Open Source CFD                    |
|  \\    /   O peration     | Version:     4.0                                |
|   \\  /    A nd           | Web:         http://www.foam-extend.org         |
|    \\/     M anipulation  |                                                 |
\*---------------------------------------------------------------------------*/
FoamFile
{
    version 2.0;
    format ascii;
    class volVectorField;
    location "2321";
    object      E;
}
// * * * * * * * * * * * * * * * * * * * * * * * * * * * * * * * * * * * * * //

dimensions      [0 1 -1 0 0 0 0];

internalField   nonuniform List<vector>
4096
(
(0,0,0)
(0,0,0)
(0,0,0)
(0,0,0)
(0,0,0)
(0,0,0)
(0,0,0)
(0,0,0)
(0,0,0)
(0,0,0)
(0,0,0)
(0,0,0)
(0,0,0)
(0,0,0)
(0,0,0)
(0,0,0)
(0,0,0)
(0,0,0)
(0,0,0)
(0,0,0)
(0,0,0)
(0,0,0)
(0,0,0)
(0,0,0)
(0,0,0)
(0,0,0)
(0,0,0)
(0,0,0)
(0,0,0)
(0,0,0)
(0,0,0)
(0,0,0)
(0,0,0)
(0,0,0)
(0,0,0)
(0,0,0)
(0,0,0)
(0,0,0)
(0,0,0)
(0,0,0)
(0,0,0)
(0,0,0)
(0,0,0)
(0,0,0)
(0,0,0)
(0,0,0)
(0,0,0)
(0,0,0)
(0,0,0)
(0,0,0)
(0,0,0)
(0,0,0)
(0,0,0)
(0,0,0)
(0,0,0)
(0,0,0)
(0,0,0)
(0,0,0)
(0,0,0)
(0,0,0)
(0,0,0)
(0,0,0)
(0,0,0)
(0,0,0)
(0,0,0)
(0,0,0)
(0,0,0)
(0,0,0)
(0,0,0)
(0,0,0)
(0,0,0)
(0,0,0)
(0,0,0)
(0,0,0)
(0,0,0)
(0,0,0)
(0,0,0)
(0,0,0)
(0,0,0)
(0,0,0)
(0,0,0)
(0,0,0)
(0,0,0)
(0,0,0)
(0,0,0)
(0,0,0)
(0,0,0)
(0,0,0)
(0,0,0)
(0,0,0)
(0,0,0)
(0,0,0)
(0,0,0)
(0,0,0)
(0,0,0)
(0,0,0)
(0,0,0)
(0,0,0)
(0,0,0)
(0,0,0)
(0,0,0)
(0,0,0)
(0,0,0)
(0,0,0)
(0,0,0)
(0,0,0)
(0,0,0)
(0,0,0)
(0,0,0)
(0,0,0)
(0,0,0)
(0,0,0)
(0,0,0)
(0,0,0)
(0,0,0)
(0,0,0)
(0,0,0)
(0,0,0)
(0,0,0)
(0,0,0)
(0,0,0)
(0,0,0)
(0,0,0)
(0,0,0)
(0,0,0)
(0,0,0)
(0,0,0)
(0,0,0)
(0,0,0)
(0,0,0)
(0,0,0)
(0,0,0)
(0,0,0)
(0,0,0)
(0,0,0)
(0,0,0)
(0,0,0)
(0,0,0)
(0,0,0)
(0,0,0)
(0,0,0)
(0,0,0)
(0,0,0)
(0,0,0)
(0,0,0)
(0,0,0)
(0,0,0)
(0,0,0)
(0,0,0)
(0,0,0)
(0,0,0)
(0,0,0)
(0,0,0)
(0,0,0)
(0,0,0)
(0,0,0)
(0,0,0)
(0,0,0)
(0,0,0)
(0,0,0)
(0,0,0)
(0,0,0)
(0,0,0)
(0,0,0)
(0,0,0)
(0,0,0)
(0,0,0)
(0,0,0)
(0,0,0)
(0,0,0)
(0,0,0)
(0,0,0)
(0,0,0)
(0,0,0)
(0,0,0)
(0,0,0)
(0,0,0)
(0,0,0)
(0,0,0)
(0,0,0)
(0,0,0)
(0,0,0)
(0,0,0)
(0,0,0)
(0,0,0)
(0,0,0)
(0,0,0)
(0,0,0)
(0,0,0)
(0,0,0)
(0,0,0)
(0,0,0)
(0,0,0)
(0,0,0)
(0,0,0)
(0,0,0)
(0,0,0)
(0,0,0)
(0,0,0)
(0,0,0)
(0,0,0)
(0,0,0)
(0,0,0)
(0,0,0)
(0,0,0)
(0,0,0)
(0,0,0)
(0,0,0)
(0,0,0)
(0,0,0)
(0,0,0)
(0,0,0)
(0,0,0)
(0,0,0)
(0,0,0)
(0,0,0)
(0,0,0)
(0,0,0)
(0,0,0)
(0,0,0)
(0,0,0)
(0,0,0)
(0,0,0)
(0,0,0)
(0,0,0)
(0,0,0)
(0,0,0)
(0,0,0)
(0,0,0)
(0,0,0)
(0,0,0)
(0,0,0)
(0,0,0)
(0,0,0)
(0,0,0)
(0,0,0)
(0,0,0)
(0,0,0)
(0,0,0)
(0,0,0)
(0,0,0)
(0,0,0)
(0,0,0)
(0,0,0)
(0,0,0)
(0,0,0)
(0,0,0)
(0,0,0)
(0,0,0)
(0,0,0)
(0,0,0)
(0,0,0)
(0,0,0)
(0,0,0)
(0,0,0)
(0,0,0)
(0,0,0)
(0,0,0)
(0,0,0)
(0,0,0)
(0,0,0)
(0,0,0)
(0,0,0)
(0,0,0)
(0,0,0)
(0,0,0)
(0,0,0)
(0,0,0)
(0,0,0)
(0,0,0)
(0,0,0)
(0,0,0)
(0,0,0)
(0,0,0)
(0,0,0)
(0,0,0)
(0,0,0)
(0,0,0)
(0,0,0)
(0,0,0)
(0,0,0)
(0,0,0)
(0,0,0)
(0,0,0)
(0,0,0)
(0,0,0)
(0,0,0)
(0,0,0)
(0,0,0)
(0,0,0)
(0,0,0)
(0,0,0)
(0,0,0)
(0,0,0)
(0,0,0)
(0,0,0)
(0,0,0)
(0,0,0)
(0,0,0)
(0,0,0)
(0,0,0)
(0,0,0)
(0,0,0)
(0,0,0)
(0,0,0)
(0,0,0)
(0,0,0)
(0,0,0)
(0,0,0)
(0,0,0)
(0,0,0)
(0,0,0)
(0,0,0)
(0,0,0)
(0,0,0)
(0,0,0)
(0,0,0)
(0,0,0)
(0,0,0)
(0,0,0)
(0,0,0)
(0,0,0)
(0,0,0)
(0,0,0)
(0,0,0)
(0,0,0)
(0,0,0)
(0,0,0)
(0,0,0)
(0,0,0)
(0,0,0)
(0,0,0)
(0,0,0)
(0,0,0)
(0,0,0)
(0,0,0)
(0,0,0)
(0,0,0)
(0,0,0)
(0,0,0)
(0,0,0)
(0,0,0)
(0,0,0)
(0,0,0)
(0,0,0)
(0,0,0)
(0,0,0)
(0,0,0)
(0,0,0)
(0,0,0)
(0,0,0)
(0,0,0)
(0,0,0)
(0,0,0)
(0,0,0)
(0,0,0)
(0,0,0)
(0,0,0)
(0,0,0)
(0,0,0)
(0,0,0)
(0,0,0)
(0,0,0)
(0,0,0)
(0,0,0)
(0,0,0)
(0,0,0)
(0,0,0)
(0,0,0)
(0,0,0)
(0,0,0)
(0,0,0)
(0,0,0)
(0,0,0)
(0,0,0)
(0,0,0)
(0,0,0)
(0,0,0)
(0,0,0)
(0,0,0)
(0,0,0)
(0,0,0)
(0,0,0)
(0,0,0)
(0,0,0)
(0,0,0)
(0,0,0)
(0,0,0)
(0,0,0)
(0,0,0)
(0,0,0)
(0,0,0)
(0,0,0)
(0,0,0)
(0,0,0)
(0,0,0)
(0,0,0)
(0,0,0)
(0,0,0)
(0,0,0)
(0,0,0)
(0,0,0)
(0,0,0)
(0,0,0)
(0,0,0)
(0,0,0)
(0,0,0)
(0,0,0)
(0,0,0)
(0,0,0)
(0,0,0)
(0,0,0)
(0,0,0)
(0,0,0)
(0,0,0)
(0,0,0)
(0,0,0)
(0,0,0)
(0,0,0)
(0,0,0)
(0,0,0)
(0,0,0)
(0,0,0)
(0,0,0)
(0,0,0)
(0,0,0)
(0,0,0)
(0,0,0)
(0,0,0)
(0,0,0)
(0,0,0)
(0,0,0)
(0,0,0)
(0,0,0)
(0,0,0)
(0,0,0)
(0,0,0)
(0,0,0)
(0,0,0)
(0,0,0)
(0,0,0)
(0,0,0)
(0,0,0)
(0,0,0)
(0,0,0)
(0,0,0)
(0,0,0)
(0,0,0)
(0,0,0)
(0,0,0)
(0,0,0)
(0,0,0)
(0,0,0)
(0,0,0)
(0,0,0)
(0,0,0)
(0,0,0)
(0,0,0)
(0,0,0)
(0,0,0)
(0,0,0)
(0,0,0)
(0,0,0)
(0,0,0)
(0,0,0)
(0,0,0)
(0,0,0)
(0,0,0)
(0,0,0)
(0,0,0)
(0,0,0)
(0,0,0)
(0,0,0)
(0,0,0)
(0,0,0)
(0,0,0)
(0,0,0)
(0,0,0)
(0,0,0)
(0,0,0)
(0,0,0)
(0,0,0)
(0,0,0)
(0,0,0)
(0,0,0)
(0,0,0)
(0,0,0)
(0,0,0)
(0,0,0)
(0,0,0)
(0,0,0)
(0,0,0)
(0,0,0)
(0,0,0)
(0,0,0)
(0,0,0)
(0,0,0)
(0,0,0)
(0,0,0)
(0,0,0)
(0,0,0)
(0,0,0)
(0,0,0)
(0,0,0)
(0,0,0)
(0,0,0)
(0,0,0)
(0,0,0)
(0,0,0)
(0,0,0)
(0,0,0)
(0,0,0)
(0,0,0)
(0,0,0)
(0,0,0)
(0,0,0)
(0,0,0)
(0,0,0)
(0,0,0)
(0,0,0)
(0,0,0)
(0,0,0)
(0,0,0)
(0,0,0)
(0,0,0)
(0,0,0)
(0,0,0)
(0,0,0)
(0,0,0)
(0,0,0)
(0,0,0)
(0,0,0)
(0,0,0)
(0,0,0)
(0,0,0)
(0,0,0)
(0,0,0)
(0,0,0)
(0,0,0)
(0,0,0)
(0,0,0)
(0,0,0)
(0,0,0)
(0,0,0)
(0,0,0)
(0,0,0)
(0,0,0)
(0,0,0)
(0,0,0)
(0,0,0)
(0,0,0)
(0,0,0)
(0,0,0)
(0,0,0)
(0,0,0)
(0,0,0)
(0,0,0)
(0,0,0)
(0,0,0)
(0,0,0)
(0,0,0)
(0,0,0)
(0,0,0)
(0,0,0)
(0,0,0)
(0,0,0)
(0,0,0)
(0,0,0)
(0,0,0)
(0,0,0)
(0,0,0)
(0,0,0)
(0,0,0)
(0,0,0)
(0,0,0)
(0,0,0)
(0,0,0)
(0,0,0)
(0,0,0)
(0,0,0)
(0,0,0)
(0,0,0)
(0,0,0)
(0,0,0)
(0,0,0)
(0,0,0)
(0,0,0)
(0,0,0)
(0,0,0)
(0,0,0)
(0,0,0)
(0,0,0)
(0,0,0)
(0,0,0)
(0,0,0)
(0,0,0)
(0,0,0)
(0,0,0)
(0,0,0)
(0,0,0)
(0,0,0)
(0,0,0)
(0,0,0)
(0,0,0)
(0,0,0)
(0,0,0)
(0,0,0)
(0,0,0)
(0,0,0)
(0,0,0)
(0,0,0)
(0,0,0)
(0,0,0)
(0,0,0)
(0,0,0)
(0,0,0)
(0,0,0)
(0,0,0)
(0,0,0)
(0,0,0)
(0,0,0)
(0,0,0)
(0,0,0)
(0,0,0)
(0,0,0)
(0,0,0)
(0,0,0)
(0,0,0)
(0,0,0)
(0,0,0)
(0,0,0)
(0,0,0)
(0,0,0)
(0,0,0)
(0,0,0)
(0,0,0)
(0,0,0)
(0,0,0)
(0,0,0)
(0,0,0)
(0,0,0)
(0,0,0)
(0,0,0)
(0,0,0)
(0,0,0)
(0,0,0)
(0,0,0)
(0,0,0)
(0,0,0)
(0,0,0)
(0,0,0)
(0,0,0)
(0,0,0)
(0,0,0)
(0,0,0)
(0,0,0)
(0,0,0)
(0,0,0)
(0,0,0)
(0,0,0)
(0,0,0)
(0,0,0)
(0,0,0)
(0,0,0)
(0,0,0)
(0,0,0)
(0,0,0)
(0,0,0)
(0,0,0)
(0,0,0)
(0,0,0)
(0,0,0)
(0,0,0)
(0,0,0)
(0,0,0)
(0,0,0)
(0,0,0)
(0,0,0)
(0,0,0)
(0,0,0)
(0,0,0)
(0,0,0)
(0,0,0)
(0,0,0)
(0,0,0)
(0,0,0)
(0,0,0)
(0,0,0)
(0,0,0)
(0,0,0)
(0,0,0)
(0,0,0)
(0,0,0)
(0,0,0)
(0,0,0)
(0,0,0)
(0,0,0)
(0,0,0)
(0,0,0)
(0,0,0)
(0,0,0)
(0,0,0)
(0,0,0)
(0,0,0)
(0,0,0)
(0,0,0)
(0,0,0)
(0,0,0)
(0,0,0)
(0,0,0)
(0,0,0)
(0,0,0)
(0,0,0)
(0,0,0)
(0,0,0)
(0,0,0)
(0,0,0)
(0,0,0)
(0,0,0)
(0,0,0)
(0,0,0)
(0,0,0)
(0,0,0)
(0,0,0)
(0,0,0)
(0,0,0)
(0,0,0)
(0,0,0)
(0,0,0)
(0,0,0)
(0,0,0)
(0,0,0)
(0,0,0)
(0,0,0)
(0,0,0)
(0,0,0)
(0,0,0)
(0,0,0)
(0,0,0)
(0,0,0)
(0,0,0)
(0,0,0)
(0,0,0)
(0,0,0)
(0,0,0)
(0,0,0)
(0,0,0)
(0,0,0)
(0,0,0)
(0,0,0)
(0,0,0)
(0,0,0)
(0,0,0)
(0,0,0)
(0,0,0)
(0,0,0)
(0,0,0)
(0,0,0)
(0,0,0)
(0,0,0)
(0,0,0)
(0,0,0)
(0,0,0)
(0,0,0)
(0,0,0)
(0,0,0)
(0,0,0)
(0,0,0)
(0,0,0)
(0,0,0)
(0,0,0)
(0,0,0)
(0,0,0)
(0,0,0)
(0,0,0)
(0,0,0)
(0,0,0)
(0,0,0)
(0,0,0)
(0,0,0)
(0,0,0)
(0,0,0)
(0,0,0)
(0,0,0)
(0,0,0)
(0,0,0)
(0,0,0)
(0,0,0)
(0,0,0)
(0,0,0)
(0,0,0)
(0,0,0)
(0,0,0)
(0,0,0)
(0,0,0)
(0,0,0)
(0,0,0)
(0,0,0)
(0,0,0)
(0,0,0)
(0,0,0)
(0,0,0)
(0,0,0)
(0,0,0)
(0,0,0)
(0,0,0)
(0,0,0)
(0,0,0)
(0,0,0)
(0,0,0)
(0,0,0)
(0,0,0)
(0,0,0)
(0,0,0)
(0,0,0)
(0,0,0)
(0,0,0)
(0,0,0)
(0,0,0)
(-100374.493918692,53446.7724431551,46927.7214755348)
(-106107.828068224,51245.6506930117,101789.898850747)
(-119489.128772725,46692.5322109225,174586.49541255)
(-144784.232397659,39520.921313024,279849.806497191)
(-190323.174748384,29823.4080087171,440349.573236866)
(-272088.197531308,18675.3214547854,693762.449313381)
(-420205.632182401,8519.3133368815,1105448.76815892)
(-687926.906575533,2264.19843003162,1791111.47630446)
(-1134601.64255518,150.410567830499,2925562.70829178)
(-1580855.10026811,-78.1104215171852,4506495.91898144)
(0,0,0)
(0,0,0)
(0,0,0)
(0,0,0)
(0,0,0)
(0,0,0)
(-106141.97237878,114835.07401189,44753.6708100432)
(-111943.479721566,110707.786114328,97235.0151102986)
(-125527.449387507,102074.133834269,167380.862874455)
(-151388.883650219,88205.0377644453,270085.63007326)
(-198182.758325588,68953.7099858542,429138.086421699)
(-281909.779128724,46118.5307447786,683604.656260429)
(-431641.187380125,24524.9263114043,1099240.23066603)
(-698332.030972671,10797.1967470191,1789039.26332164)
(-1141546.12036461,5352.78275753466,2925383.01149659)
(-1584106.82297898,2754.02497097801,4506657.699083)
(0,0,0)
(0,0,0)
(0,0,0)
(0,0,0)
(0,0,0)
(0,0,0)
(-119361.136198756,193611.560420379,40584.6497902662)
(-125242.770845847,188071.708143158,88463.4986072856)
(-139224.968937043,176318.586874544,153444.014504059)
(-166358.786874586,157152.559209363,250855.279933729)
(-216162.72379597,129718.061451393,406253.652264149)
(-305097.921877753,95503.4670749142,661966.637811766)
(-459968.659604908,60897.3917181822,1085562.83200991)
(-724396.735110876,37080.3727219752,1783676.3911458)
(-1158331.00061054,24464.6343703055,2922895.5401436)
(-1591712.57880686,13274.1147614136,4504088.02916008)
(0,0,0)
(0,0,0)
(0,0,0)
(0,0,0)
(0,0,0)
(0,0,0)
(-143976.572776286,302574.66362455,35013.4695721154)
(-149952.902278602,296403.320707025,76634.7592868528)
(-164472.97642874,283178.800666959,134247.521923171)
(-193496.2604242,261350.864366199,223545.477190527)
(-248246.440749814,229352.704907136,372157.274484605)
(-347177.685671298,187381.883922452,627456.543308369)
(-514335.529430919,140776.469115368,1061912.9953421)
(-774933.44387875,102673.646211557,1771253.1657312)
(-1189156.2849906,72959.5551987445,2911914.52989332)
(-1605179.85145421,39260.8570125283,4491107.63909656)
(0,0,0)
(0,0,0)
(0,0,0)
(0,0,0)
(0,0,0)
(0,0,0)
(-188136.971034107,461888.494489855,28823.1401687982)
(-194103.022460836,455885.877620963,63443.6057156927)
(-208923.40568129,443007.692553047,112538.119510895)
(-239536.214586371,421704.26580185,191720.932661614)
(-299389.339293671,390161.508613996,330301.468248428)
(-410665.989317132,347358.423844742,580990.917643248)
(-597150.479876686,294889.443017383,1024028.42361792)
(-851902.663827245,236861.89683953,1741742.8368172)
(-1233955.79193339,170247.724692364,2878410.45925705)
(-1624625.92673016,90224.8008901447,4452072.44210958)
(0,0,0)
(0,0,0)
(0,0,0)
(0,0,0)
(0,0,0)
(0,0,0)
(-267944.957835859,707058.446251528,22775.0060741892)
(-273609.728737919,701695.876821871,50574.7356111966)
(-287957.450751205,690204.925770693,91334.9531447578)
(-318267.71355815,671019.412841071,160287.519663685)
(-378771.996550889,641653.682124122,287567.342704453)
(-492160.149502103,598445.932653013,528639.983398304)
(-679210.892250739,536587.303120014,966153.015546423)
(-922401.806456328,450077.763336576,1675338.9555057)
(-1282541.22921684,329530.19725656,2798597.71215842)
(-1649098.59136894,175890.389790187,4362030.71462716)
(0,0,0)
(0,0,0)
(0,0,0)
(0,0,0)
(0,0,0)
(0,0,0)
(-414402.437417181,1104062.49011533,17398.3935533741)
(-419433.063147494,1099415.55649718,39111.7770255706)
(-432316.483627287,1089406.44986896,72226.7365545974)
(-459996.562900182,1072257.41683397,130985.295461882)
(-516209.357408338,1044431.97576193,244416.359232407)
(-622761.936079588,998755.806812059,466868.421152944)
(-798306.711857211,921992.78465288,879769.651477301)
(-1019431.2001833,794316.421804644,1554962.19319254)
(-1354944.89696618,594298.021310096,2645139.26610513)
(-1689024.576202,323778.281092224,4186275.95100521)
(0,0,0)
(0,0,0)
(0,0,0)
(0,0,0)
(0,0,0)
(0,0,0)
(-682271.55447672,1773635.34671898,12698.6978730762)
(-686308.987366945,1769372.76372621,29050.4780109944)
(-696687.839330886,1760031.42886223,55113.3383486242)
(-719202.947743146,1743351.53144654,103222.171479195)
(-765404.936217517,1714235.69971826,198823.383740383)
(-853974.282100133,1661346.84837593,390206.624276628)
(-1000979.2109143,1560956.18951149,752222.430332296)
(-1179992.05655105,1371459.07726213,1355071.83142588)
(-1486380.73673281,1060983.48063128,2374767.10883751)
(-1765379.96810174,601367.838497487,3862557.51953393)
(0,0,0)
(0,0,0)
(0,0,0)
(0,0,0)
(0,0,0)
(0,0,0)
(-1130787.38484789,2895936.49579643,8486.23577040199)
(-1133546.30819348,2891640.27040106,19765.0372890517)
(-1140602.25952893,2881891.45149027,38507.2741898955)
(-1155753.21437898,2863410.51246733,74201.5075480709)
(-1186273.89230519,2828616.61838169,146094.481189825)
(-1243601.25734652,2761074.36421353,289968.222698749)
(-1339843.21297187,2627870.19139917,562897.43378295)
(-1482823.50099118,2372381.33989068,1044798.67214557)
(-1728812.02591839,1919215.76250612,1915378.41618904)
(-1898582.65515216,1153909.72200143,3261419.18783727)
(0,0,0)
(0,0,0)
(0,0,0)
(0,0,0)
(0,0,0)
(0,0,0)
(-1579134.19440483,4470750.84421549,4319.84598579911)
(-1580511.48345692,4466300.31220148,10171.287642293)
(-1584031.55613331,4455915.66190782,20178.63335809)
(-1591483.26466608,4435494.12864718,39578.281844352)
(-1606253.26691706,4395685.70124109,78762.4659020424)
(-1633869.08405085,4316673.17398925,157032.740177159)
(-1682043.56218605,4159268.46194009,307678.031822284)
(-1763195.37381207,3851281.05119102,591973.694333972)
(-1898171.40848205,3258955.20172217,1150405.66359992)
(-1911651.321104,2108155.88831926,2107810.81838612)
(0,0,0)
(0,0,0)
(0,0,0)
(0,0,0)
(0,0,0)
(0,0,0)
(0,0,0)
(0,0,0)
(0,0,0)
(0,0,0)
(0,0,0)
(0,0,0)
(0,0,0)
(0,0,0)
(0,0,0)
(0,0,0)
(0,0,0)
(0,0,0)
(0,0,0)
(0,0,0)
(0,0,0)
(0,0,0)
(0,0,0)
(0,0,0)
(0,0,0)
(0,0,0)
(0,0,0)
(0,0,0)
(0,0,0)
(0,0,0)
(0,0,0)
(0,0,0)
(0,0,0)
(0,0,0)
(0,0,0)
(0,0,0)
(0,0,0)
(0,0,0)
(0,0,0)
(0,0,0)
(0,0,0)
(0,0,0)
(0,0,0)
(0,0,0)
(0,0,0)
(0,0,0)
(0,0,0)
(0,0,0)
(0,0,0)
(0,0,0)
(0,0,0)
(0,0,0)
(0,0,0)
(0,0,0)
(0,0,0)
(0,0,0)
(0,0,0)
(0,0,0)
(0,0,0)
(0,0,0)
(0,0,0)
(0,0,0)
(0,0,0)
(0,0,0)
(0,0,0)
(0,0,0)
(0,0,0)
(0,0,0)
(0,0,0)
(0,0,0)
(0,0,0)
(0,0,0)
(0,0,0)
(0,0,0)
(0,0,0)
(0,0,0)
(0,0,0)
(0,0,0)
(0,0,0)
(0,0,0)
(0,0,0)
(0,0,0)
(0,0,0)
(0,0,0)
(0,0,0)
(0,0,0)
(0,0,0)
(0,0,0)
(0,0,0)
(0,0,0)
(0,0,0)
(0,0,0)
(0,0,0)
(0,0,0)
(0,0,0)
(0,0,0)
(0,0,0)
(0,0,0)
(0,0,0)
(0,0,0)
(0,0,0)
(0,0,0)
(14826203.7437519,47679.3141763216,41139.0708831449)
(14816559.7775119,45440.8016688276,88427.2863642926)
(14794308.6935496,40661.6347519069,149364.452020043)
(14752771.5322968,32880.7173100589,234324.592745501)
(14678883.1772858,21913.7240852243,358601.139356155)
(14547422.6460456,8793.56556877989,545693.352940356)
(14306124.0069184,-2999.50599450421,837759.842563959)
(13829117.8755464,-8237.15080275618,1344348.83397488)
(12752789.2997999,-6843.96617040348,2479198.48052032)
(9829799.42718546,-3335.68694841393,6087276.26274519)
(0,0,0)
(0,0,0)
(0,0,0)
(0,0,0)
(0,0,0)
(0,0,0)
(14816431.2308341,101607.319821182,38895.4138723788)
(14806765.1765823,97381.0468337267,83643.1351336612)
(14784332.7539089,88291.7410506567,141549.448268489)
(14742017.6229097,73124.4259119013,223295.855836756)
(14666088.9801179,50917.5052819372,345416.95892667)
(14530905.326478,22908.9847783267,533883.056840534)
(14285915.1258688,-3831.76750657917,832555.627833842)
(13810913.3141366,-15300.0818623653,1345769.83651428)
(12741500.6194549,-11451.2877878237,2482727.04104206)
(9824857.29985787,-4854.97207670965,6090678.82606349)
(0,0,0)
(0,0,0)
(0,0,0)
(0,0,0)
(0,0,0)
(0,0,0)
(14794107.4992767,168902.622598632,34632.6844770797)
(14784441.4060522,163260.708245811,74465.4688970334)
(14761621.7451173,150967.62482474,126339.493798765)
(14717479.097287,129940.4925537,201082.165725462)
(14636262.8090792,97622.7620364947,317347.998825844)
(14489961.2828159,53481.6119997387,507112.789640859)
(14230948.984605,6610.28531106749,821149.71534341)
(13760481.8245293,-13373.5744208587,1349741.27099187)
(12712187.357061,-6308.78434843677,2489477.03261087)
(9812691.1540544,-156.061282913362,6095771.01168591)
(0,0,0)
(0,0,0)
(0,0,0)
(0,0,0)
(0,0,0)
(0,0,0)
(14753058.4282127,258287.882717131,28976.3616225898)
(14743413.2082258,252137.83182482,62129.7502692688)
(14720062.9808636,238656.058431927,105301.98209979)
(14673015.2894847,215289.235295654,168838.312179011)
(14582093.8905764,178245.851673839,273271.513945547)
(14410702.7054189,123957.494322116,460311.863263103)
(14108637.115035,58040.4740335546,801305.652804797)
(13645556.506906,25793.9069691727,1357044.84336007)
(12652857.821438,28209.2595473915,2495909.31576556)
(9789875.23697937,19836.3110134458,6096258.47776579)
(0,0,0)
(0,0,0)
(0,0,0)
(0,0,0)
(0,0,0)
(0,0,0)
(14680719.0028615,382016.277192132,22812.2543594435)
(14671278.0997063,376325.915574682,48639.6711724307)
(14647799.0657899,363968.851967305,82001.0288959819)
(14598263.3044594,343004.377459477,131882.990416415)
(14496234.7053992,310866.146314456,219035.27381307)
(14287271.9248421,265953.778400457,394497.698305562)
(13888649.0812012,212903.868035798,769231.365955459)
(13432375.280783,166450.889526746,1359693.06151779)
(12559828.5106989,121720.770028995,2487793.87113385)
(9755960.97434653,65770.0786212101,6076669.82517945)
(0,0,0)
(0,0,0)
(0,0,0)
(0,0,0)
(0,0,0)
(0,0,0)
(14551896.7837107,560517.68443613,17053.4739394702)
(14543102.7537308,555835.104252177,36228.4255233938)
(14520722.9538605,545853.614943407,61059.8806656197)
(14472089.6828764,529318.484432648,99784.9999880827)
(14368856.0509262,504266.090333153,174153.631222385)
(14153915.2534996,467889.922411575,341538.706939622)
(13750223.97172,417509.615027594,722894.718707218)
(13314098.1741562,353069.894251711,1315172.35609967)
(12480523.2916805,257141.150813003,2432084.07714843)
(9717074.10623196,135965.276042692,6011112.80485603)
(0,0,0)
(0,0,0)
(0,0,0)
(0,0,0)
(0,0,0)
(0,0,0)
(14313007.4319459,836180.434039666,12324.0037634269)
(14305343.152734,832564.592573386,26214.9222907816)
(14285500.0430285,825090.863523568,44557.7697850414)
(14241362.6371409,813114.062973951,74799.6139326895)
(14145089.9067101,795295.563090066,137867.499787389)
(13939537.5480124,767583.935055634,291270.625781285)
(13547987.6144814,719324.13829595,658558.398904334)
(13154446.9036777,633740.023365637,1219406.7886595)
(12363065.0883827,462840.049028263,2311094.52782526)
(9650697.52903816,247417.574519637,5875316.74683834)
(0,0,0)
(0,0,0)
(0,0,0)
(0,0,0)
(0,0,0)
(0,0,0)
(13835582.4619061,1325090.3861216,8632.65426534924)
(13829525.92727,1322118.91409598,18640.0408358347)
(13813706.8147976,1316141.11272454,32591.7602363821)
(13778025.5226661,1306836.26471159,57037.7108195275)
(13698693.7881211,1293393.7520803,110237.42022054)
(13524333.306824,1271777.3093398,243133.079742401)
(13181596.6235619,1222146.61731711,573131.388975021)
(12924967.3736553,1068647.37989534,1048661.22496888)
(12126130.5331821,818571.604629321,2095815.02218294)
(9497063.68429174,468183.894172697,5628001.67286646)
(0,0,0)
(0,0,0)
(0,0,0)
(0,0,0)
(0,0,0)
(0,0,0)
(12756507.1007446,2447490.95474349,5701.56851567729)
(12752418.4405141,2444583.46538276,12668.8912514684)
(12741836.3637173,2438429.81845917,23338.1850007015)
(12718482.5462596,2427667.9986496,43667.3131541086)
(12668832.7603616,2408613.77275899,88737.2625386914)
(12567845.0880001,2370799.13226536,193665.716996605)
(12385850.7038276,2285665.77413858,419849.266105792)
(12130288.0171151,2091987.86989074,798793.880734198)
(11408481.470414,1749848.07236772,1745620.53939351)
(9029738.7337713,1140856.50211602,5160023.16525675)
(0,0,0)
(0,0,0)
(0,0,0)
(0,0,0)
(0,0,0)
(0,0,0)
(9831082.26954785,6049754.53378546,2916.57973531884)
(9829055.02880853,6046703.08963459,6627.06594802321)
(9823848.20223222,6039863.23481533,12710.5139564026)
(9812622.24874448,6026893.92076438,24775.7011612406)
(9789549.12354282,6001859.23606547,51124.4701249992)
(9744164.08896273,5950456.8226109,108830.229495978)
(9660148.97473395,5841213.97263353,226486.116811099)
(9499323.29004654,5614374.80697206,456977.138601304)
(9030066.12588739,5157058.84446378,1136925.45486587)
(7342273.99662534,4019784.36163808,4019468.90034441)
(0,0,0)
(0,0,0)
(0,0,0)
(0,0,0)
(0,0,0)
(0,0,0)
(0,0,0)
(0,0,0)
(0,0,0)
(0,0,0)
(0,0,0)
(0,0,0)
(0,0,0)
(0,0,0)
(0,0,0)
(0,0,0)
(0,0,0)
(0,0,0)
(0,0,0)
(0,0,0)
(0,0,0)
(0,0,0)
(0,0,0)
(0,0,0)
(0,0,0)
(0,0,0)
(0,0,0)
(0,0,0)
(0,0,0)
(0,0,0)
(0,0,0)
(0,0,0)
(0,0,0)
(0,0,0)
(0,0,0)
(0,0,0)
(0,0,0)
(0,0,0)
(0,0,0)
(0,0,0)
(0,0,0)
(0,0,0)
(0,0,0)
(0,0,0)
(0,0,0)
(0,0,0)
(0,0,0)
(0,0,0)
(0,0,0)
(0,0,0)
(0,0,0)
(0,0,0)
(0,0,0)
(0,0,0)
(0,0,0)
(0,0,0)
(0,0,0)
(0,0,0)
(0,0,0)
(0,0,0)
(0,0,0)
(0,0,0)
(0,0,0)
(0,0,0)
(0,0,0)
(0,0,0)
(0,0,0)
(0,0,0)
(0,0,0)
(0,0,0)
(0,0,0)
(0,0,0)
(0,0,0)
(0,0,0)
(0,0,0)
(0,0,0)
(0,0,0)
(0,0,0)
(0,0,0)
(0,0,0)
(0,0,0)
(0,0,0)
(0,0,0)
(0,0,0)
(0,0,0)
(0,0,0)
(0,0,0)
(0,0,0)
(0,0,0)
(0,0,0)
(0,0,0)
(0,0,0)
(0,0,0)
(0,0,0)
(0,0,0)
(0,0,0)
(0,0,0)
(0,0,0)
(0,0,0)
(0,0,0)
(0,0,0)
(0,0,0)
(-258460.983594313,37777.3059751368,31490.7986410195)
(-269105.626489575,35544.378170496,66215.2017418955)
(-293250.857111376,30570.8128555297,107807.31681736)
(-337143.228977752,21999.916927636,160325.5384343)
(-412225.314144743,9041.28279517161,226996.124339614)
(-537494.418841104,-7758.06461924344,304274.631115663)
(-742486.603857049,-23208.40878103,360697.027942207)
(-1067060.47867386,-26447.7574567606,267926.516889137)
(-1532504.82582537,-18159.1778919303,-444016.802323802)
(-1878616.32408261,-8297.26762501407,-3742700.40616061)
(0,0,0)
(0,0,0)
(0,0,0)
(0,0,0)
(0,0,0)
(0,0,0)
(-269618.67217614,79222.6730854872,29207.9131697703)
(-280073.809053952,74969.380177351,61225.2740691181)
(-303946.709954537,65439.3618690289,99239.5661890692)
(-347886.123660041,48423.589451001,147323.017505414)
(-424125.41191893,21013.5677077045,210168.501899603)
(-552833.44722787,-18041.6974624749,288794.285718574)
(-762632.686029239,-58748.9893761216,357486.055481568)
(-1084060.50739708,-65668.4423836414,276283.939212006)
(-1540975.48067658,-40730.3803975323,-434065.380880802)
(-1881594.40954437,-17012.6959662209,-3734294.86586734)
(0,0,0)
(0,0,0)
(0,0,0)
(0,0,0)
(0,0,0)
(0,0,0)
(-294726.231785271,127744.550269706,24915.231147768)
(-304810.752223065,122114.842577125,51625.304293171)
(-328208.204957638,109283.479281096,82214.5142258794)
(-372549.027059786,85386.4179752425,119883.187318347)
(-452742.029409085,43431.7345632197,171073.236220999)
(-594742.488456857,-25718.1675590867,248056.854860285)
(-830190.131961957,-115588.619281566,350638.978602586)
(-1143169.82652761,-128190.064333613,301415.628879308)
(-1566879.42598865,-65561.3603516366,-410083.230846827)
(-1889902.78714336,-22921.3889404864,-3716977.21940487)
(0,0,0)
(0,0,0)
(0,0,0)
(0,0,0)
(0,0,0)
(0,0,0)
(-339709.020393967,185839.078312455,19276.2978338418)
(-349259.440004715,179914.519006887,38752.6469045072)
(-371972.114597424,166357.450403338,58317.1485132421)
(-417223.853411744,140573.221457384,77972.865197467)
(-506345.403282925,92471.1869730393,101976.083916885)
(-687279.023061496,621.442618705095,158221.579489373)
(-1040426.00445969,-161846.133007502,338145.5899799)
(-1336882.07832889,-187316.984086577,364314.472237724)
(-1631898.55870537,-64785.045911646,-367102.084788864)
(-1907768.24108107,-14065.6575790939,-3693710.96081995)
(0,0,0)
(0,0,0)
(0,0,0)
(0,0,0)
(0,0,0)
(0,0,0)
(-415344.227479609,253176.841018303,13328.8449052028)
(-424128.203296786,248129.450347126,25123.5938380606)
(-445574.609458593,236937.943820208,32520.1529395594)
(-490855.685266521,216925.332690479,29890.4087023584)
(-590579.130486911,183639.460542451,10139.3482889204)
(-845877.837253897,132714.897795615,-4200.9675220536)
(-1680160.97114918,74558.3492322363,312807.979858534)
(-1992829.10692533,48215.3108074219,487083.449942766)
(-1759573.63472614,42412.4672812587,-316108.540555087)
(-1937068.974392,26866.8687939917,-3679407.74091956)
(0,0,0)
(0,0,0)
(0,0,0)
(0,0,0)
(0,0,0)
(0,0,0)
(-540127.29193296,321591.360505818,8212.933426122)
(-547817.609262194,318046.937259454,13819.186776658)
(-567037.355548877,310662.903004485,12457.9142717231)
(-609162.062152782,298663.905236362,-3425.53597516208)
(-706179.664478476,280627.875242723,-40774.8580008407)
(-960896.897784113,253625.044486463,-62269.4761380284)
(-1754846.07635635,215345.278583179,286617.019857234)
(-2041408.45288704,193454.116246864,481488.218731031)
(-1819211.62651745,139672.583715716,-331433.602235616)
(-1966387.6724058,69572.0533056988,-3706073.63083948)
(0,0,0)
(0,0,0)
(0,0,0)
(0,0,0)
(0,0,0)
(0,0,0)
(-744106.356500052,358690.597331181,4617.92889053498)
(-750436.829086328,356694.671632448,6353.55360781756)
(-766615.177446704,353302.524526272,432.529831007082)
(-803348.363462815,349858.570971785,-21447.7580307319)
(-892458.396778609,349015.856657257,-67684.0586865952)
(-1141951.45143642,352451.903325021,-100418.540806267)
(-1970269.87485489,352971.940900198,264815.663483003)
(-2234829.01661862,404274.094404617,427874.982891509)
(-1909298.24788575,225869.901436326,-401355.621290564)
(-2014761.48825903,93747.0280836711,-3775468.20150155)
(0,0,0)
(0,0,0)
(0,0,0)
(0,0,0)
(0,0,0)
(0,0,0)
(-1069600.42560394,245923.154100296,2553.70801083183)
(-1074373.96347368,244930.659156822,2820.98850011481)
(-1086749.14345483,244245.628424788,-3062.77987596987)
(-1115607.04480918,247317.62326997,-22285.8874289137)
(-1189384.63132118,263568.081386611,-64156.3154458595)
(-1418360.54544516,315317.357366781,-99724.5399485891)
(-2323334.69417498,426448.414011973,316333.68194654)
(-1893540.62723337,274003.2916523,249715.862857554)
(-1981296.4887855,100916.258252261,-533300.094720758)
(-2089657.93823601,849.068020122354,-3869077.13485946)
(0,0,0)
(0,0,0)
(0,0,0)
(0,0,0)
(0,0,0)
(0,0,0)
(-1536506.29863086,-478071.264378535,1611.19512421926)
(-1539611.12663707,-478916.363513563,2091.16221562384)
(-1547556.94850207,-479656.881725227,-9.63814507445324)
(-1565335.32075577,-478259.905738688,-6010.86485104692)
(-1606009.29147912,-470724.738147096,-12272.6162066717)
(-1703199.15550908,-452941.638007537,11633.9999467028)
(-1915575.33584168,-440062.253030883,164174.083928735)
(-1984862.72900761,-538981.470888356,76912.9698619992)
(-2167322.22568363,-628588.655310806,-633175.043207381)
(-2201575.4675446,-546628.347118277,-3869780.04948314)
(0,0,0)
(0,0,0)
(0,0,0)
(0,0,0)
(0,0,0)
(0,0,0)
(-1881742.99652982,-3781535.2338996,892.612868712491)
(-1883246.20311809,-3782554.03704504,1434.89559671685)
(-1887058.27109288,-3784196.34992284,1484.21438940976)
(-1895292.41513647,-3785923.0096461,1665.3594475778)
(-1912777.02134903,-3787849.89183636,5720.03529864603)
(-1949394.68975889,-3793867.09242077,24807.6457034041)
(-2017019.86087316,-3819064.68751582,65582.293065445)
(-2092100.64361654,-3885023.92405805,-12347.9428319522)
(-2202293.59669246,-3873064.98013757,-550908.518155415)
(-2125274.18085918,-3322524.94285057,-3322860.36766862)
(0,0,0)
(0,0,0)
(0,0,0)
(0,0,0)
(0,0,0)
(0,0,0)
(0,0,0)
(0,0,0)
(0,0,0)
(0,0,0)
(0,0,0)
(0,0,0)
(0,0,0)
(0,0,0)
(0,0,0)
(0,0,0)
(0,0,0)
(0,0,0)
(0,0,0)
(0,0,0)
(0,0,0)
(0,0,0)
(0,0,0)
(0,0,0)
(0,0,0)
(0,0,0)
(0,0,0)
(0,0,0)
(0,0,0)
(0,0,0)
(0,0,0)
(0,0,0)
(0,0,0)
(0,0,0)
(0,0,0)
(0,0,0)
(0,0,0)
(0,0,0)
(0,0,0)
(0,0,0)
(0,0,0)
(0,0,0)
(0,0,0)
(0,0,0)
(0,0,0)
(0,0,0)
(0,0,0)
(0,0,0)
(0,0,0)
(0,0,0)
(0,0,0)
(0,0,0)
(0,0,0)
(0,0,0)
(0,0,0)
(0,0,0)
(0,0,0)
(0,0,0)
(0,0,0)
(0,0,0)
(0,0,0)
(0,0,0)
(0,0,0)
(0,0,0)
(0,0,0)
(0,0,0)
(0,0,0)
(0,0,0)
(0,0,0)
(0,0,0)
(0,0,0)
(0,0,0)
(0,0,0)
(0,0,0)
(0,0,0)
(0,0,0)
(0,0,0)
(0,0,0)
(0,0,0)
(0,0,0)
(0,0,0)
(0,0,0)
(0,0,0)
(0,0,0)
(0,0,0)
(0,0,0)
(0,0,0)
(0,0,0)
(0,0,0)
(0,0,0)
(0,0,0)
(0,0,0)
(0,0,0)
(0,0,0)
(0,0,0)
(0,0,0)
(0,0,0)
(0,0,0)
(0,0,0)
(0,0,0)
(0,0,0)
(0,0,0)
(-305727.759288904,26441.1150800064,20825.6606145855)
(-314745.412605786,24392.8123389558,42072.6343918447)
(-334695.661417708,19662.3337525678,63855.1049456101)
(-369481.217135253,11050.7864140361,85142.3066890714)
(-425636.525650987,-2995.92686364322,101549.44505896)
(-511932.433466521,-23150.548808846,99138.0084932257)
(-636010.699350528,-43368.9367721896,36031.0407588955)
(-789915.855814832,-43472.6670509142,-197640.915049221)
(-913058.919204072,-26678.4712819587,-790408.350388539)
(-793404.54540487,-11303.622002797,-1864316.50706346)
(0,0,0)
(0,0,0)
(0,0,0)
(0,0,0)
(0,0,0)
(0,0,0)
(-315848.506067106,53947.8123064123,18723.136664559)
(-324363.174177996,50060.864890969,37344.4492365905)
(-343193.206842228,40964.9252471781,55288.3546296745)
(-376125.627672002,23536.7897054091,71041.8553502589)
(-429715.093497283,-7743.55687561645,81379.1669405888)
(-513535.821620733,-59986.9777704009,78917.9702950143)
(-636809.368710878,-126287.509868977,36013.2260734471)
(-786064.284286493,-124741.305904708,-180714.358183343)
(-906920.533039309,-66602.5806393942,-774845.196463168)
(-789642.121625273,-25291.1672574822,-1852809.93912764)
(0,0,0)
(0,0,0)
(0,0,0)
(0,0,0)
(0,0,0)
(0,0,0)
(-338190.480861339,82626.1180254069,14785.9433570775)
(-345714.686592102,77562.55650471,28188.1861123698)
(-362328.661151114,65402.0855240045,37871.4820290179)
(-391436.157293576,40605.8449857592,39689.5569824607)
(-439662.459471575,-10214.9577513192,29081.3879206516)
(-520033.490368937,-118214.604151877,12600.0162141962)
(-655798.878044356,-325744.071965817,37665.3243934372)
(-786064.519040813,-321833.051803742,-122348.237194332)
(-892116.104970078,-130514.103497704,-733200.035354587)
(-780529.393407447,-40715.1942222239,-1827149.40212576)
(0,0,0)
(0,0,0)
(0,0,0)
(0,0,0)
(0,0,0)
(0,0,0)
(-376871.278811704,110109.609235025,9678.76720812655)
(-383013.959259603,105011.871385569,15983.97158216)
(-396397.348408879,92733.0212824219,13078.2696351998)
(-419339.89186584,66947.4192603255,-11147.266185272)
(-457113.420255199,8312.72265554129,-78906.9296198552)
(-531640.209918619,-157851.151725516,-194909.195189095)
(-801321.564694646,-801442.998473451,41685.2915534879)
(-843100.51391136,-843173.697567472,69244.372899694)
(-857718.894163035,-192383.783011369,-643065.612128976)
(-762161.160309094,-43298.9139932357,-1786088.97312996)
(0,0,0)
(0,0,0)
(0,0,0)
(0,0,0)
(0,0,0)
(0,0,0)
(-438122.09958874,128376.528763051,4510.95258110398)
(-442657.754391256,124445.204669653,3607.17039148858)
(-452000.336697799,115511.441300383,-12745.5223872641)
(-465523.517733384,98682.9634678081,-69813.2341278806)
(-475124.358016123,68163.6713410574,-245118.955284188)
(-428104.83416022,17802.6997668907,-838545.809870279)
(-8.43991081907441e-05,-2.26872901707982e-05,5.47017678282035e-05)