/*--------------------------------*- C++ -*----------------------------------*\
| =========                 |                                                 |
| \\      /  F ield         | foam-extend: Open Source CFD                    |
|  \\    /   O peration     | Version:     4.0                                |
|   \\  /    A nd           | Web:         http://www.foam-extend.org         |
|    \\/     M anipulation  |                                                 |
\*---------------------------------------------------------------------------*/
FoamFile
{
    version 2.0;
    format ascii;
    class volVectorField;
    location "2625";
    object      E;
}
// * * * * * * * * * * * * * * * * * * * * * * * * * * * * * * * * * * * * * //

dimensions      [0 1 -1 0 0 0 0];

internalField   nonuniform List<vector>
4096
(
(0,0,0)
(0,0,0)
(0,0,0)
(0,0,0)
(0,0,0)
(0,0,0)
(0,0,0)
(0,0,0)
(0,0,0)
(0,0,0)
(0,0,0)
(0,0,0)
(0,0,0)
(0,0,0)
(0,0,0)
(0,0,0)
(0,0,0)
(0,0,0)
(0,0,0)
(0,0,0)
(0,0,0)
(0,0,0)
(0,0,0)
(0,0,0)
(0,0,0)
(0,0,0)
(0,0,0)
(0,0,0)
(0,0,0)
(0,0,0)
(0,0,0)
(0,0,0)
(0,0,0)
(0,0,0)
(0,0,0)
(0,0,0)
(0,0,0)
(0,0,0)
(0,0,0)
(0,0,0)
(0,0,0)
(0,0,0)
(0,0,0)
(0,0,0)
(0,0,0)
(0,0,0)
(0,0,0)
(0,0,0)
(0,0,0)
(0,0,0)
(0,0,0)
(0,0,0)
(0,0,0)
(0,0,0)
(0,0,0)
(0,0,0)
(0,0,0)
(0,0,0)
(0,0,0)
(0,0,0)
(0,0,0)
(0,0,0)
(0,0,0)
(0,0,0)
(0,0,0)
(0,0,0)
(0,0,0)
(0,0,0)
(0,0,0)
(0,0,0)
(0,0,0)
(0,0,0)
(0,0,0)
(0,0,0)
(0,0,0)
(0,0,0)
(0,0,0)
(0,0,0)
(0,0,0)
(0,0,0)
(0,0,0)
(0,0,0)
(0,0,0)
(0,0,0)
(0,0,0)
(0,0,0)
(0,0,0)
(0,0,0)
(0,0,0)
(0,0,0)
(0,0,0)
(0,0,0)
(0,0,0)
(0,0,0)
(0,0,0)
(0,0,0)
(0,0,0)
(0,0,0)
(0,0,0)
(0,0,0)
(0,0,0)
(0,0,0)
(0,0,0)
(0,0,0)
(0,0,0)
(0,0,0)
(0,0,0)
(0,0,0)
(0,0,0)
(0,0,0)
(0,0,0)
(0,0,0)
(0,0,0)
(0,0,0)
(0,0,0)
(0,0,0)
(0,0,0)
(0,0,0)
(0,0,0)
(0,0,0)
(0,0,0)
(0,0,0)
(0,0,0)
(0,0,0)
(0,0,0)
(0,0,0)
(0,0,0)
(0,0,0)
(0,0,0)
(0,0,0)
(0,0,0)
(0,0,0)
(0,0,0)
(0,0,0)
(0,0,0)
(0,0,0)
(0,0,0)
(0,0,0)
(0,0,0)
(0,0,0)
(0,0,0)
(0,0,0)
(0,0,0)
(0,0,0)
(0,0,0)
(0,0,0)
(0,0,0)
(0,0,0)
(0,0,0)
(0,0,0)
(0,0,0)
(0,0,0)
(0,0,0)
(0,0,0)
(0,0,0)
(0,0,0)
(0,0,0)
(0,0,0)
(0,0,0)
(0,0,0)
(0,0,0)
(0,0,0)
(0,0,0)
(0,0,0)
(0,0,0)
(0,0,0)
(0,0,0)
(0,0,0)
(0,0,0)
(0,0,0)
(0,0,0)
(0,0,0)
(0,0,0)
(0,0,0)
(0,0,0)
(0,0,0)
(0,0,0)
(0,0,0)
(0,0,0)
(0,0,0)
(0,0,0)
(0,0,0)
(0,0,0)
(0,0,0)
(0,0,0)
(0,0,0)
(0,0,0)
(0,0,0)
(0,0,0)
(0,0,0)
(0,0,0)
(0,0,0)
(0,0,0)
(0,0,0)
(0,0,0)
(0,0,0)
(0,0,0)
(0,0,0)
(0,0,0)
(0,0,0)
(0,0,0)
(0,0,0)
(0,0,0)
(0,0,0)
(0,0,0)
(0,0,0)
(0,0,0)
(0,0,0)
(0,0,0)
(0,0,0)
(0,0,0)
(0,0,0)
(0,0,0)
(0,0,0)
(0,0,0)
(0,0,0)
(0,0,0)
(0,0,0)
(0,0,0)
(0,0,0)
(0,0,0)
(0,0,0)
(0,0,0)
(0,0,0)
(0,0,0)
(0,0,0)
(0,0,0)
(0,0,0)
(0,0,0)
(0,0,0)
(0,0,0)
(0,0,0)
(0,0,0)
(0,0,0)
(0,0,0)
(0,0,0)
(0,0,0)
(0,0,0)
(0,0,0)
(0,0,0)
(0,0,0)
(0,0,0)
(0,0,0)
(0,0,0)
(0,0,0)
(0,0,0)
(0,0,0)
(0,0,0)
(0,0,0)
(0,0,0)
(0,0,0)
(0,0,0)
(0,0,0)
(0,0,0)
(0,0,0)
(0,0,0)
(0,0,0)
(0,0,0)
(0,0,0)
(0,0,0)
(0,0,0)
(0,0,0)
(0,0,0)
(0,0,0)
(0,0,0)
(0,0,0)
(0,0,0)
(0,0,0)
(0,0,0)
(0,0,0)
(0,0,0)
(0,0,0)
(0,0,0)
(0,0,0)
(0,0,0)
(0,0,0)
(0,0,0)
(0,0,0)
(0,0,0)
(0,0,0)
(0,0,0)
(0,0,0)
(0,0,0)
(0,0,0)
(0,0,0)
(0,0,0)
(0,0,0)
(0,0,0)
(0,0,0)
(0,0,0)
(0,0,0)
(0,0,0)
(0,0,0)
(0,0,0)
(0,0,0)
(0,0,0)
(0,0,0)
(0,0,0)
(0,0,0)
(0,0,0)
(0,0,0)
(0,0,0)
(0,0,0)
(0,0,0)
(0,0,0)
(0,0,0)
(0,0,0)
(0,0,0)
(0,0,0)
(0,0,0)
(0,0,0)
(0,0,0)
(0,0,0)
(0,0,0)
(0,0,0)
(0,0,0)
(0,0,0)
(0,0,0)
(0,0,0)
(0,0,0)
(0,0,0)
(0,0,0)
(0,0,0)
(0,0,0)
(0,0,0)
(0,0,0)
(0,0,0)
(0,0,0)
(0,0,0)
(0,0,0)
(0,0,0)
(0,0,0)
(0,0,0)
(0,0,0)
(0,0,0)
(0,0,0)
(0,0,0)
(0,0,0)
(0,0,0)
(0,0,0)
(0,0,0)
(0,0,0)
(0,0,0)
(0,0,0)
(0,0,0)
(0,0,0)
(0,0,0)
(0,0,0)
(0,0,0)
(0,0,0)
(0,0,0)
(0,0,0)
(0,0,0)
(0,0,0)
(0,0,0)
(0,0,0)
(0,0,0)
(0,0,0)
(0,0,0)
(0,0,0)
(0,0,0)
(0,0,0)
(0,0,0)
(0,0,0)
(0,0,0)
(0,0,0)
(0,0,0)
(0,0,0)
(0,0,0)
(0,0,0)
(0,0,0)
(0,0,0)
(0,0,0)
(0,0,0)
(0,0,0)
(0,0,0)
(0,0,0)
(0,0,0)
(0,0,0)
(0,0,0)
(0,0,0)
(0,0,0)
(0,0,0)
(0,0,0)
(0,0,0)
(0,0,0)
(0,0,0)
(0,0,0)
(0,0,0)
(0,0,0)
(0,0,0)
(0,0,0)
(0,0,0)
(0,0,0)
(0,0,0)
(0,0,0)
(0,0,0)
(0,0,0)
(0,0,0)
(0,0,0)
(0,0,0)
(0,0,0)
(0,0,0)
(0,0,0)
(0,0,0)
(0,0,0)
(0,0,0)
(0,0,0)
(0,0,0)
(0,0,0)
(0,0,0)
(0,0,0)
(0,0,0)
(0,0,0)
(0,0,0)
(0,0,0)
(0,0,0)
(0,0,0)
(0,0,0)
(0,0,0)
(0,0,0)
(0,0,0)
(0,0,0)
(0,0,0)
(0,0,0)
(0,0,0)
(0,0,0)
(0,0,0)
(0,0,0)
(0,0,0)
(0,0,0)
(0,0,0)
(0,0,0)
(0,0,0)
(0,0,0)
(0,0,0)
(0,0,0)
(0,0,0)
(0,0,0)
(0,0,0)
(0,0,0)
(0,0,0)
(0,0,0)
(0,0,0)
(0,0,0)
(0,0,0)
(0,0,0)
(0,0,0)
(0,0,0)
(0,0,0)
(0,0,0)
(0,0,0)
(0,0,0)
(0,0,0)
(0,0,0)
(0,0,0)
(0,0,0)
(0,0,0)
(0,0,0)
(0,0,0)
(0,0,0)
(0,0,0)
(0,0,0)
(0,0,0)
(0,0,0)
(0,0,0)
(0,0,0)
(0,0,0)
(0,0,0)
(0,0,0)
(0,0,0)
(0,0,0)
(0,0,0)
(0,0,0)
(0,0,0)
(0,0,0)
(0,0,0)
(0,0,0)
(0,0,0)
(0,0,0)
(0,0,0)
(0,0,0)
(0,0,0)
(0,0,0)
(0,0,0)
(0,0,0)
(0,0,0)
(0,0,0)
(0,0,0)
(0,0,0)
(0,0,0)
(0,0,0)
(0,0,0)
(0,0,0)
(0,0,0)
(0,0,0)
(0,0,0)
(0,0,0)
(0,0,0)
(0,0,0)
(0,0,0)
(0,0,0)
(0,0,0)
(0,0,0)
(0,0,0)
(0,0,0)
(0,0,0)
(0,0,0)
(0,0,0)
(0,0,0)
(0,0,0)
(0,0,0)
(0,0,0)
(0,0,0)
(0,0,0)
(0,0,0)
(0,0,0)
(0,0,0)
(0,0,0)
(0,0,0)
(0,0,0)
(0,0,0)
(0,0,0)
(0,0,0)
(0,0,0)
(0,0,0)
(0,0,0)
(0,0,0)
(0,0,0)
(0,0,0)
(0,0,0)
(0,0,0)
(0,0,0)
(0,0,0)
(0,0,0)
(0,0,0)
(0,0,0)
(0,0,0)
(0,0,0)
(0,0,0)
(0,0,0)
(0,0,0)
(0,0,0)
(0,0,0)
(0,0,0)
(0,0,0)
(0,0,0)
(0,0,0)
(0,0,0)
(0,0,0)
(0,0,0)
(0,0,0)
(0,0,0)
(0,0,0)
(0,0,0)
(0,0,0)
(0,0,0)
(0,0,0)
(0,0,0)
(0,0,0)
(0,0,0)
(0,0,0)
(0,0,0)
(0,0,0)
(0,0,0)
(0,0,0)
(0,0,0)
(0,0,0)
(0,0,0)
(0,0,0)
(0,0,0)
(0,0,0)
(0,0,0)
(0,0,0)
(0,0,0)
(0,0,0)
(0,0,0)
(0,0,0)
(0,0,0)
(0,0,0)
(0,0,0)
(0,0,0)
(0,0,0)
(0,0,0)
(0,0,0)
(0,0,0)
(0,0,0)
(0,0,0)
(0,0,0)
(0,0,0)
(0,0,0)
(0,0,0)
(0,0,0)
(0,0,0)
(0,0,0)
(0,0,0)
(0,0,0)
(0,0,0)
(0,0,0)
(0,0,0)
(0,0,0)
(0,0,0)
(0,0,0)
(0,0,0)
(0,0,0)
(0,0,0)
(0,0,0)
(0,0,0)
(0,0,0)
(0,0,0)
(0,0,0)
(0,0,0)
(0,0,0)
(0,0,0)
(0,0,0)
(0,0,0)
(0,0,0)
(0,0,0)
(0,0,0)
(0,0,0)
(0,0,0)
(0,0,0)
(0,0,0)
(0,0,0)
(0,0,0)
(0,0,0)
(0,0,0)
(0,0,0)
(0,0,0)
(0,0,0)
(0,0,0)
(0,0,0)
(0,0,0)
(0,0,0)
(0,0,0)
(0,0,0)
(0,0,0)
(0,0,0)
(0,0,0)
(0,0,0)
(0,0,0)
(0,0,0)
(0,0,0)
(0,0,0)
(0,0,0)
(0,0,0)
(0,0,0)
(0,0,0)
(0,0,0)
(0,0,0)
(0,0,0)
(0,0,0)
(0,0,0)
(0,0,0)
(0,0,0)
(0,0,0)
(0,0,0)
(0,0,0)
(0,0,0)
(0,0,0)
(0,0,0)
(0,0,0)
(0,0,0)
(0,0,0)
(0,0,0)
(0,0,0)
(0,0,0)
(0,0,0)
(0,0,0)
(0,0,0)
(0,0,0)
(0,0,0)
(0,0,0)
(0,0,0)
(0,0,0)
(0,0,0)
(0,0,0)
(0,0,0)
(0,0,0)
(0,0,0)
(0,0,0)
(0,0,0)
(0,0,0)
(0,0,0)
(0,0,0)
(0,0,0)
(0,0,0)
(0,0,0)
(0,0,0)
(0,0,0)
(0,0,0)
(0,0,0)
(0,0,0)
(0,0,0)
(0,0,0)
(0,0,0)
(0,0,0)
(0,0,0)
(0,0,0)
(0,0,0)
(0,0,0)
(0,0,0)
(0,0,0)
(0,0,0)
(0,0,0)
(0,0,0)
(0,0,0)
(0,0,0)
(0,0,0)
(0,0,0)
(0,0,0)
(0,0,0)
(0,0,0)
(0,0,0)
(0,0,0)
(0,0,0)
(0,0,0)
(0,0,0)
(0,0,0)
(0,0,0)
(0,0,0)
(0,0,0)
(0,0,0)
(0,0,0)
(0,0,0)
(0,0,0)
(0,0,0)
(0,0,0)
(0,0,0)
(0,0,0)
(0,0,0)
(0,0,0)
(0,0,0)
(0,0,0)
(0,0,0)
(0,0,0)
(0,0,0)
(0,0,0)
(0,0,0)
(0,0,0)
(0,0,0)
(0,0,0)
(0,0,0)
(0,0,0)
(0,0,0)
(0,0,0)
(0,0,0)
(0,0,0)
(0,0,0)
(0,0,0)
(0,0,0)
(0,0,0)
(0,0,0)
(0,0,0)
(0,0,0)
(0,0,0)
(0,0,0)
(0,0,0)
(0,0,0)
(0,0,0)
(0,0,0)
(0,0,0)
(0,0,0)
(0,0,0)
(0,0,0)
(0,0,0)
(0,0,0)
(0,0,0)
(0,0,0)
(0,0,0)
(0,0,0)
(0,0,0)
(0,0,0)
(0,0,0)
(0,0,0)
(0,0,0)
(0,0,0)
(0,0,0)
(0,0,0)
(0,0,0)
(0,0,0)
(0,0,0)
(0,0,0)
(0,0,0)
(0,0,0)
(0,0,0)
(0,0,0)
(0,0,0)
(0,0,0)
(0,0,0)
(0,0,0)
(0,0,0)
(0,0,0)
(0,0,0)
(0,0,0)
(0,0,0)
(0,0,0)
(0,0,0)
(0,0,0)
(0,0,0)
(0,0,0)
(0,0,0)
(0,0,0)
(0,0,0)
(0,0,0)
(0,0,0)
(0,0,0)
(0,0,0)
(0,0,0)
(0,0,0)
(0,0,0)
(0,0,0)
(0,0,0)
(0,0,0)
(0,0,0)
(0,0,0)
(0,0,0)
(0,0,0)
(0,0,0)
(-219051.136887206,116562.293316521,102488.843570684)
(-231678.139675287,111757.838700167,222409.144545804)
(-260893.124373982,101710.459180879,381591.809738904)
(-316063.340416603,85953.6805569138,611701.469598602)
(-415552.831256215,64725.3671567262,962528.933698095)
(-594244.306104656,40279.0526495452,1516494.1871532)
(-917863.711371709,18057.6518894296,2416300.24663551)
(-1502716.57926164,4517.97095860864,3914498.85493857)
(-2478571.15237334,40.2293789877843,6393029.77793289)
(-3453439.07511346,-337.616418731294,9846806.46946514)
(0,0,0)
(0,0,0)
(0,0,0)
(0,0,0)
(0,0,0)
(0,0,0)
(-231689.902467853,250534.272695452,97717.9230889203)
(-244453.148639676,241472.317193498,212456.593235269)
(-274145.456844963,222386.708803631,365925.800457478)
(-330610.204857367,191945.128405542,590544.55746622)
(-432865.22513275,149970.92824093,938164.22151476)
(-615860.63002118,100027.192662273,1494276.71152321)
(-943047.132110503,52785.3092121703,2402596.18631096)
(-1525684.9169737,22928.9120369042,3909870.16220631)
(-2493889.3137053,11234.4503240715,6392565.25496657)
(-3460575.05505504,5746.35660967913,9847056.33699312)
(0,0,0)
(0,0,0)
(0,0,0)
(0,0,0)
(0,0,0)
(0,0,0)
(-260574.919683187,422433.60184989,88675.5905287492)
(-273566.632401122,410277.021523486,193437.518599886)
(-304207.98566461,384435.648446698,335596.564621434)
(-363500.861819351,342431.308113196,548611.246733134)
(-472304.585876412,282624.448695799,888262.312154667)
(-666662.644775284,207899.765981703,1447052.38361052)
(-1005114.49723161,132279.215246774,2372672.97480754)
(-1582843.70834891,80388.7159098959,3898056.87928342)
(-2530713.20130212,53022.3781350712,6386982.1527746)
(-3477257.28397094,28748.7063268829,9841237.08702835)
(0,0,0)
(0,0,0)
(0,0,0)
(0,0,0)
(0,0,0)
(0,0,0)
(-314491.67270606,660408.759121402,76516.5154345487)
(-327677.75771423,646838.953272948,167632.341399319)
(-359463.225805893,617843.601741001,293687.6139109)
(-422843.03731269,570141.195147357,488820.764189422)
(-542481.263063712,500364.576668618,813561.899280323)
(-758653.180700897,408688.82712041,1371426.01884251)
(-1123970.30279455,306918.158974071,2320757.37790976)
(-1693352.93290146,223854.452300442,3870644.57442064)
(-2598110.83853477,159120.414532719,6362657.37655771)
(-3506648.24746224,85646.7066052877,9812407.62374171)
(0,0,0)
(0,0,0)
(0,0,0)
(0,0,0)
(0,0,0)
(0,0,0)
(-411058.198207619,1008495.09015928,62971.8671697355)
(-424175.274802598,995263.72575971,138722.369485568)
(-456589.126500705,967047.567335154,246107.530392122)
(-523396.80242808,920555.828404763,419089.699562795)
(-654192.543100399,851766.029336226,721880.789995584)
(-897358.043261674,758322.182812421,1269605.47756523)
(-1304919.27165457,643793.728201079,2237649.17999278)
(-1861556.79229256,517172.44502183,3805887.97956398)
(-2696016.85296707,371811.466288852,6289213.78077503)
(-3549109.86928491,197097.554001999,9726872.80266319)
(0,0,0)
(0,0,0)
(0,0,0)
(0,0,0)
(0,0,0)
(0,0,0)
(-585347.978519754,1544061.84486333,49781.2238157101)
(-597801.093208254,1532256.22950633,110589.813277342)
(-629161.634996086,1507089.25488644,199709.760722143)
(-695316.336874479,1465226.23367365,350355.692327726)
(-827494.057990688,1401185.77067732,628430.008977329)
(-1075271.34303663,1306940.42164371,1155083.11318268)
(-1484077.1263359,1171925.04693307,2111028.92078659)
(-2015462.60433103,983073.454870153,3660590.5152693)
(-2802117.42211689,719851.377472867,6114668.02620223)
(-3602576.39206141,384286.703881483,9530055.26838405)
(0,0,0)
(0,0,0)
(0,0,0)
(0,0,0)
(0,0,0)
(0,0,0)
(-905346.305005781,2411332.95243316,38075.1974359451)
(-916356.994219967,2401107.85618174,85580.5649805133)
(-944472.646866129,2379138.11376671,158004.352966379)
(-1004902.4335294,2341717.68084183,286415.339327601)
(-1127673.06703131,2281039.30496147,534234.87207476)
(-1360470.24059502,2181434.75861681,1020210.77569669)
(-1744130.38738722,2013929.6669849,1922336.5430321)
(-2227346.74365926,1735195.10845506,3397561.63310644)
(-2960247.70396771,1298319.37000408,5779341.34454289)
(-3689803.70618545,707387.65876883,9146044.0958411)
(0,0,0)
(0,0,0)
(0,0,0)
(0,0,0)
(0,0,0)
(0,0,0)
(-1490509.60394067,3873874.08579023,27968.4705836008)
(-1499319.57820745,3864572.02860588,63823.8763669125)
(-1521956.27345905,3844121.42546271,120796.838129967)
(-1571090.12458819,3807690.94367905,225913.699880912)
(-1671975.23708264,3744160.53457441,434767.707350604)
(-1865489.18161396,3628847.79113381,852843.85644755)
(-2186775.86510761,3409787.69942185,1643761.68911818)
(-2577964.72724953,2995996.34229832,2960925.18252449)
(-3247278.63026215,2317815.79812266,5188707.38466806)
(-3856573.66409248,1313741.92820426,8438926.77932505)
(0,0,0)
(0,0,0)
(0,0,0)
(0,0,0)
(0,0,0)
(0,0,0)
(-2470223.51710348,6325318.65305455,18778.9498391277)
(-2476254.93658749,6316020.41547715,43585.499555349)
(-2491633.51704617,6294744.8998294,84595.5422347703)
(-2524666.38945134,6254363.57509371,162589.300271434)
(-2591299.70297251,6178404.9822995,319644.555518856)
(-2716506.36238636,6031027.8534482,633970.855590817)
(-2926796.29291582,5740351.57811873,1230203.26980976)
(-3239255.31122706,5182378.13313869,2283076.79019647)
(-3776654.15883854,4192529.2012159,4185017.54594169)
(-4147438.29908682,2520732.2052209,7125465.56801187)
(0,0,0)
(0,0,0)
(0,0,0)
(0,0,0)
(0,0,0)
(0,0,0)
(-3449564.91141044,9765318.94082709,9564.62363792116)
(-3452590.11169236,9755670.7727188,22504.3780886358)
(-3460225.41778612,9733040.54630213,44434.1494020909)
(-3476441.15277117,9688455.02243969,86783.854827342)
(-3508699.08031282,9601504.77026213,172383.147177561)
(-3568991.12530273,9428998.48995335,343403.635975117)
(-3674214.58331641,9085505.80976269,672463.987647548)
(-3851567.72228079,8412867.67184956,1293542.17121741)
(-4146480.68658419,7119025.48689777,2513526.57211967)
(-4175904.09635163,4605185.96601188,4604976.90768036)
(0,0,0)
(0,0,0)
(0,0,0)
(0,0,0)
(0,0,0)
(0,0,0)
(0,0,0)
(0,0,0)
(0,0,0)
(0,0,0)
(0,0,0)
(0,0,0)
(0,0,0)
(0,0,0)
(0,0,0)
(0,0,0)
(0,0,0)
(0,0,0)
(0,0,0)
(0,0,0)
(0,0,0)
(0,0,0)
(0,0,0)
(0,0,0)
(0,0,0)
(0,0,0)
(0,0,0)
(0,0,0)
(0,0,0)
(0,0,0)
(0,0,0)
(0,0,0)
(0,0,0)
(0,0,0)
(0,0,0)
(0,0,0)
(0,0,0)
(0,0,0)
(0,0,0)
(0,0,0)
(0,0,0)
(0,0,0)
(0,0,0)
(0,0,0)
(0,0,0)
(0,0,0)
(0,0,0)
(0,0,0)
(0,0,0)
(0,0,0)
(0,0,0)
(0,0,0)
(0,0,0)
(0,0,0)
(0,0,0)
(0,0,0)
(0,0,0)
(0,0,0)
(0,0,0)
(0,0,0)
(0,0,0)
(0,0,0)
(0,0,0)
(0,0,0)
(0,0,0)
(0,0,0)
(0,0,0)
(0,0,0)
(0,0,0)
(0,0,0)
(0,0,0)
(0,0,0)
(0,0,0)
(0,0,0)
(0,0,0)
(0,0,0)
(0,0,0)
(0,0,0)
(0,0,0)
(0,0,0)
(0,0,0)
(0,0,0)
(0,0,0)
(0,0,0)
(0,0,0)
(0,0,0)
(0,0,0)
(0,0,0)
(0,0,0)
(0,0,0)
(0,0,0)
(0,0,0)
(0,0,0)
(0,0,0)
(0,0,0)
(0,0,0)
(0,0,0)
(0,0,0)
(0,0,0)
(0,0,0)
(0,0,0)
(0,0,0)
(32386384.8989148,103860.775849014,89893.3346190257)
(32365257.7959784,98951.5155350708,193196.029700426)
(32316684.2324631,88455.6733814156,326353.145751909)
(32225952.8586577,71425.7892378669,512101.303709779)
(32064478.4177377,47432.717890643,783827.48309523)
(31777110.7696074,18711.9333928576,1192950.62026028)
(31249804.9132402,-7056.45637130279,1831528.59828959)
(30207720.3921823,-18398.0526949469,2938679.8258107)
(27856515.2093801,-15250.1442795897,5418033.75460699)
(21471473.8177145,-7484.49481035014,13299795.5028594)
(0,0,0)
(0,0,0)
(0,0,0)
(0,0,0)
(0,0,0)
(0,0,0)
(32364846.555713,221531.819959833,84982.6439783831)
(32343642.5725214,212271.136174186,182757.448448234)
(32294603.1166286,192269.050622409,309385.644003669)
(32202163.7482892,159048.112644469,488179.51372059)
(32036257.7723476,110526.97976544,755152.400635593)
(31740798.3641394,49242.5986649062,1167152.88747308)
(31205405.5076994,-9231.56876947139,1820065.50633148)
(30167654.1626191,-34193.7763055606,2941712.29661927)
(27831609.239135,-25574.3195458393,5425728.06531516)
(21460598.2509632,-10934.4176092388,13307194.8283658)
(0,0,0)
(0,0,0)
(0,0,0)
(0,0,0)
(0,0,0)
(0,0,0)
(32315990.9814899,368456.206027682,75699.8590289658)
(32294707.861717,356093.839295357,162792.808059699)
(32244702.4299424,329092.44607273,276249.14327243)
(32148222.4821668,283044.592429787,439719.465771117)
(31970797.1058372,212439.432635252,693895.467457767)
(31651080.8005182,115918.756792067,1108666.01030725)
(31084996.614632,13449.2019400518,1795064.27400414)
(30057124.4195235,-30148.6907508991,2950241.2068472)
(27767303.2613302,-14435.2238635166,5440275.79480249)
(21433919.8894084,-691.310129874519,13318045.6602139)
(0,0,0)
(0,0,0)
(0,0,0)
(0,0,0)
(0,0,0)
(0,0,0)
(32226136.3429931,563708.087246111,63310.2493524408)
(32204915.8169637,550205.650716315,135795.009523577)
(32153746.8471778,520619.569444447,230247.959438191)
(32050958.4565759,469535.098234894,369146.106014595)
(31852271.1590098,388610.2486754,597413.014171101)
(31477732.1745114,269946.779612087,1006189.78240887)
(30817464.2562071,125943.452999967,1751451.11861736)
(29805665.2834555,55570.4944473412,2965903.86333228)
(27637474.2851899,61120.1242140237,5453953.53780001)
(21384061.2766868,43106.6438099499,13318636.2059814)
(0,0,0)
(0,0,0)
(0,0,0)
(0,0,0)
(0,0,0)
(0,0,0)
(32067978.499565,834050.117225911,49811.4185176719)
(32047284.723076,821487.882877008,106259.334748424)
(31995878.5083938,794358.83935508,179242.576213415)
(31887710.7677008,748567.55462112,288292.695968208)
(31664732.9854485,678408.678006428,478758.884358454)
(31208065.2901662,580355.264561152,862117.212251611)
(30336694.2997759,464607.238093295,1681030.0019979)
(29339622.8144444,363213.071466028,2971397.96451237)
(27434093.1836356,265655.659816408,5435942.53857729)
(21309960.1918021,143596.079890153,13275573.18768)
(0,0,0)
(0,0,0)
(0,0,0)
(0,0,0)
(0,0,0)
(0,0,0)
(31786635.5480061,1223971.79206056,37284.9449094045)
(31767372.5667355,1213586.99575366,79202.3183590532)
(31718424.1146243,1191648.65474658,133516.8996172)
(31612224.3571422,1155551.57388644,218182.332605382)
(31386672.2005197,1100933.96982766,380680.928543797)
(30916955.8403275,1021654.81391722,746344.342093586)
(30034585.2360496,911808.842590407,1579670.52148107)
(29081543.9624069,771149.920945674,2873917.2515334)
(27260929.2717779,561693.587653187,5314022.77607189)
(21225006.5833616,297043.458617936,13132182.568191)
(0,0,0)
(0,0,0)
(0,0,0)
(0,0,0)
(0,0,0)
(0,0,0)
(31264756.504527,1826047.5741742,27011.5546236646)
(31247997.973939,1818030.20445777,57403.5240305814)
(31204673.7497626,1801555.06465932,97540.8637592511)
(31108295.6329582,1775429.95588825,163654.561539871)
(30898027.4288511,1736625.93289334,301452.248861882)
(30448909.9501707,1676302.49348492,636614.524798365)
(29593136.7476538,1571180.17757824,1439166.20103946)
(28733024.7885833,1384482.66047159,2664652.07554108)
(27004488.5318126,1011202.83820756,5049596.73547624)
(21080050.6511992,540566.857580291,12835409.1253993)
(0,0,0)
(0,0,0)
(0,0,0)
(0,0,0)
(0,0,0)
(0,0,0)
(30221745.6981086,2893857.67748423,19124.7409108221)
(30208530.9398265,2887378.26769634,41116.3059083509)
(30174061.9472719,2874225.86545073,71617.4306559985)
(30096245.486778,2853877.95945751,125023.961990577)
(29923030.0688779,2824580.02483746,241254.710355923)
(29542091.1344772,2777569.3558637,531597.678156223)
(28793083.1293735,2669508.60890378,1252600.39861955)
(28232236.7168302,2334478.25344203,2291593.50783932)
(26487221.5559367,1788254.98650069,4579231.3196174)
(20744546.0668072,1022772.54168969,12295096.0508783)
(0,0,0)
(0,0,0)
(0,0,0)
(0,0,0)
(0,0,0)
(0,0,0)
(27864604.4600052,5345475.79906475,12744.0475808897)
(27855687.0247105,5339216.57615067,28153.9240986629)
(27832676.8062423,5325736.36845069,51523.2440803096)
(27781808.3547815,5302177.33450834,95939.2710666799)
(27673412.98923,5260587.49538707,194409.254584518)
(27452872.2357404,5178122.87185313,423667.286738426)
(27055289.6941324,4992541.91884398,917738.136020085)
(26496765.4765069,4569738.4391333,1745647.30886502)
(24919909.2008921,3822448.07693544,3814081.0049697)
(19723900.4006992,2492137.89860931,11272567.0945341)
(0,0,0)
(0,0,0)
(0,0,0)
(0,0,0)
(0,0,0)
(0,0,0)
(21474426.0257527,13214131.9568914,6543.05128013743)
(21469997.7702222,13207535.4127501,14826.4790360873)
(21458728.4980997,13192610.2947676,28188.7831034399)
(21434319.9262655,13164278.1492691,54517.035576276)
(21383935.993731,13109597.1535328,112062.449656937)
(21284849.4782062,12997391.123504,238143.74076731)
(21101373.3691383,12759195.016813,495092.836613632)
(20749895.5083498,12263950.2339633,998607.957423214)
(19724712.243178,11265056.5893545,2483996.66151203)
(16037956.4941767,8780833.62075404,8780630.49510896)
(0,0,0)
(0,0,0)
(0,0,0)
(0,0,0)
(0,0,0)
(0,0,0)
(0,0,0)
(0,0,0)
(0,0,0)
(0,0,0)
(0,0,0)
(0,0,0)
(0,0,0)
(0,0,0)
(0,0,0)
(0,0,0)
(0,0,0)
(0,0,0)
(0,0,0)
(0,0,0)
(0,0,0)
(0,0,0)
(0,0,0)
(0,0,0)
(0,0,0)
(0,0,0)
(0,0,0)
(0,0,0)
(0,0,0)
(0,0,0)
(0,0,0)
(0,0,0)
(0,0,0)
(0,0,0)
(0,0,0)
(0,0,0)
(0,0,0)
(0,0,0)
(0,0,0)
(0,0,0)
(0,0,0)
(0,0,0)
(0,0,0)
(0,0,0)
(0,0,0)
(0,0,0)
(0,0,0)
(0,0,0)
(0,0,0)
(0,0,0)
(0,0,0)
(0,0,0)
(0,0,0)
(0,0,0)
(0,0,0)
(0,0,0)
(0,0,0)
(0,0,0)
(0,0,0)
(0,0,0)
(0,0,0)
(0,0,0)
(0,0,0)
(0,0,0)
(0,0,0)
(0,0,0)
(0,0,0)
(0,0,0)
(0,0,0)
(0,0,0)
(0,0,0)
(0,0,0)
(0,0,0)
(0,0,0)
(0,0,0)
(0,0,0)
(0,0,0)
(0,0,0)
(0,0,0)
(0,0,0)
(0,0,0)
(0,0,0)
(0,0,0)
(0,0,0)
(0,0,0)
(0,0,0)
(0,0,0)
(0,0,0)
(0,0,0)
(0,0,0)
(0,0,0)
(0,0,0)
(0,0,0)
(0,0,0)
(0,0,0)
(0,0,0)
(0,0,0)
(0,0,0)
(0,0,0)
(0,0,0)
(0,0,0)
(0,0,0)
(-563798.533414838,82256.7391478857,68736.5469117062)
(-587138.839226262,77318.4822828418,144624.553563365)
(-639855.244696518,66399.4371178407,235574.447335164)
(-735786.123090829,47672.1917520151,350451.091061637)
(-899870.083536788,19240.9703907912,496368.475675336)
(-1173796.46675652,-17540.6958603801,665626.261629658)
(-1621855.34047604,-51378.064211798,789474.433287748)
(-2331028.90393729,-58392.6175603582,587426.200697589)
(-3347820.21000397,-40111.3434011452,-967317.182787322)
(-4103962.01457904,-18365.9950722194,-8172705.50169152)
(0,0,0)
(0,0,0)
(0,0,0)
(0,0,0)
(0,0,0)
(0,0,0)
(-588480.265553353,172587.329097419,63806.0850467604)
(-611445.6587766,163266.836448441,133755.815909118)
(-663642.604321399,142325.846119053,216884.981587913)
(-759660.345440196,105085.636729378,322105.484069857)
(-926261.46539554,45047.806715586,459627.739218063)
(-1207648.40006405,-40426.7447156161,631770.406006633)
(-1666232.30409079,-129544.855633759,782384.862948678)
(-2368536.43813386,-144637.122554469,605629.822425723)
(-3366631.08697638,-89817.1870397654,-945614.154094223)
(-4110588.49349533,-37582.296504318,-8154401.25447354)
(0,0,0)
(0,0,0)
(0,0,0)
(0,0,0)
(0,0,0)
(0,0,0)
(-643583.975831416,278510.777203605,54461.3629452313)
(-665777.96794054,266181.19615993,112842.686621256)
(-717025.236663368,237992.32058321,179713.732492802)
(-813960.10074189,185648.575012018,262143.230848705)
(-989211.808785863,93865.0564776011,374144.749439668)
(-1299646.63311699,-57379.9726585749,542635.264747695)
(-1814405.32420449,-254000.480380203,767302.682060603)
(-2498240.16658187,-281578.679271233,660418.678612607)
(-3423583.62771631,-144259.072713012,-893442.692937569)
(-4128861.00831612,-50549.8495264351,-8116884.38846108)
(0,0,0)
(0,0,0)
(0,0,0)
(0,0,0)
(0,0,0)
(0,0,0)
(-742034.823974245,405391.01975045,42100.7781504658)
(-763035.059618676,392397.410074032,84645.294548716)
(-812802.236914257,362588.474616358,127408.078337599)
(-911716.934639799,306154.397385177,170387.500910038)
(-1106577.82091801,201021.11048874,222890.280556549)
(-1502217.93671641,269.211612690137,346001.061243025)
(-2274582.87883311,-354872.285174982,739729.854807964)
(-2922509.68717353,-410558.091903248,797694.091798896)
(-3566131.45255268,-142351.833806856,-799797.555634653)
(-4168003.07147111,-31061.515472719,-8066411.68780064)
(0,0,0)
(0,0,0)
(0,0,0)
(0,0,0)
(0,0,0)
(0,0,0)
(-907386.177613809,552478.383374013,29087.1672851502)
(-926622.75694991,541352.493028893,54849.4180861504)
(-973599.221633486,516699.07890078,71026.3975588791)
(-1072538.67249381,472922.538848814,65317.550019949)
(-1290528.54111188,400248.165773554,22161.8750253461)
(-1848665.30489815,289138.948381861,-9167.41294956246)
(-3672892.369312,162355.799038175,684001.025655077)
(-4356934.76643403,104996.811876442,1065813.55648374)
(-3845504.169668,92394.8839052701,-688525.954194786)
(-4232084.12386357,58594.8444174537,-8035328.14468924)
(0,0,0)
(0,0,0)
(0,0,0)
(0,0,0)
(0,0,0)
(0,0,0)
(-1179936.16067156,701888.455867894,17971.4899138686)
(-1196758.2348904,694023.959847028,30240.6784515864)
(-1238825.00477489,677700.296007068,27298.4344744575)
(-1330847.35229588,651445.126141489,-7342.5896503177)
(-1542797.88337768,612134.089218015,-88948.5754674332)
(-2099553.04068615,553430.825434506,-135921.7177764)
(-3835016.91605759,470176.551876643,626669.535222216)
(-4461713.51893626,422493.009816517,1053240.67235533)
(-3975514.48165798,305159.674457828,-722270.511031461)
(-4296068.25339665,152035.03257462,-8093826.00870024)
(0,0,0)
(0,0,0)
(0,0,0)
(0,0,0)
(0,0,0)
(0,0,0)
(-1625519.94743156,782786.269538371,10188.4920179823)
(-1639356.2703719,778355.611667632,14020.9382382921)
(-1674703.87434917,770761.307718058,1147.40436890988)
(-1754886.06818259,763184.779621736,-46600.6942405628)
(-1949460.91628692,761433.343444461,-147601.749599078)
(-2494681.87520755,769272.826280941,-219042.07133716)
(-4304933.15403155,770908.101378252,579106.134576647)
(-4884117.24782291,883500.898333498,936050.136195832)
(-4172050.50772689,493782.307683291,-875223.603759941)
(-4401644.26915505,204969.235498011,-8245653.0325992)
(0,0,0)
(0,0,0)
(0,0,0)
(0,0,0)
(0,0,0)
(0,0,0)
(-2336690.46293496,536178.132627804,5854.15168401222)
(-2347092.31035377,534087.961586177,6554.90567568806)
(-2374033.50618939,532472.171580172,-6250.65099513515)
(-2436880.05802887,539072.961678425,-48203.4345149866)
(-2597889.19559185,574608.389456861,-139649.362327644)
(-3098116.35438213,687964.737216883,-217323.930674455)
(-5075585.18863873,931284.22337376,691778.119072293)
(-4136790.72517357,598627.942170794,546488.37096875)
(-4328548.86848471,220672.055659353,-1163821.0988559)
(-4565038.90374997,1979.85850473521,-8450436.89757543)
(0,0,0)
(0,0,0)
(0,0,0)
(0,0,0)
(0,0,0)
(0,0,0)
(-3356628.66962494,-1045584.32068456,3805.43667240204)
(-3363377.87973679,-1047287.79139931,5055.94783506211)
(-3380614.76791855,-1048950.7052073,580.252513314289)
(-3419227.88414786,-1046024.55155033,-12476.1415986176)
(-3507915.71497841,-1029579.56729318,-26149.6269101221)
(-3719993.8451449,-990590.739551596,26081.784473516)
(-4183639.53788977,-962083.96022866,359189.053828051)
(-4335554.21031239,-1177749.68383954,168696.220387511)
(-4734432.49772559,-1373210.70740982,-1382269.46419566)
(-4809281.25233853,-1194062.11203688,-8452235.9868864)
(0,0,0)
(0,0,0)
(0,0,0)
(0,0,0)
(0,0,0)
(0,0,0)
(-4110614.58772877,-8261842.51779523,2108.66432215938)
(-4113887.46020488,-8263972.695367,3488.65244687301)
(-4122115.288806,-8267531.46083704,3723.04871224515)
(-4139938.32578589,-8271378.08444363,4144.68738669438)
(-4178041.2778538,-8275627.49852769,12979.7439359243)
(-4257905.22348171,-8288707.85047265,54661.4102747877)
(-4405493.02145344,-8343370.58696323,143624.281331068)
(-4569772.05560336,-8487054.1871118,-26593.7977137295)
(-4810689.88941492,-8460630.1568055,-1202962.36199526)
(-4642491.35647645,-7257777.02789801,-7257989.74175107)
(0,0,0)
(0,0,0)
(0,0,0)
(0,0,0)
(0,0,0)
(0,0,0)
(0,0,0)
(0,0,0)
(0,0,0)
(0,0,0)
(0,0,0)
(0,0,0)
(0,0,0)
(0,0,0)
(0,0,0)
(0,0,0)
(0,0,0)
(0,0,0)
(0,0,0)
(0,0,0)
(0,0,0)
(0,0,0)
(0,0,0)
(0,0,0)
(0,0,0)
(0,0,0)
(0,0,0)
(0,0,0)
(0,0,0)
(0,0,0)
(0,0,0)
(0,0,0)
(0,0,0)
(0,0,0)
(0,0,0)
(0,0,0)
(0,0,0)
(0,0,0)
(0,0,0)
(0,0,0)
(0,0,0)
(0,0,0)
(0,0,0)
(0,0,0)
(0,0,0)
(0,0,0)
(0,0,0)
(0,0,0)
(0,0,0)
(0,0,0)
(0,0,0)
(0,0,0)
(0,0,0)
(0,0,0)
(0,0,0)
(0,0,0)
(0,0,0)
(0,0,0)
(0,0,0)
(0,0,0)
(0,0,0)
(0,0,0)
(0,0,0)
(0,0,0)
(0,0,0)
(0,0,0)
(0,0,0)
(0,0,0)
(0,0,0)
(0,0,0)
(0,0,0)
(0,0,0)
(0,0,0)
(0,0,0)
(0,0,0)
(0,0,0)
(0,0,0)
(0,0,0)
(0,0,0)
(0,0,0)
(0,0,0)
(0,0,0)
(0,0,0)
(0,0,0)
(0,0,0)
(0,0,0)
(0,0,0)
(0,0,0)
(0,0,0)
(0,0,0)
(0,0,0)
(0,0,0)
(0,0,0)
(0,0,0)
(0,0,0)
(0,0,0)
(0,0,0)
(0,0,0)
(0,0,0)
(0,0,0)
(0,0,0)
(0,0,0)
(-666734.325151088,57511.218316022,45424.5734202311)
(-686581.572919571,52972.0583226492,91895.2487908952)
(-730174.998734342,42613.3261748923,139601.676653829)
(-806202.889033642,23819.2873583392,186199.155238299)
(-928884.747705933,-7104.56846973896,222318.387877179)
(-1117649.61312035,-51321.7811936562,217493.315434667)
(-1389008.80487419,-95673.2498370365,80320.029669855)
(-1725518.02487317,-95824.940727421,-429365.908666848)
(-1994668.48097162,-58890.8784816269,-1723626.75921755)
(-1733356.46214587,-24991.7849147163,-4069240.52673598)
(0,0,0)
(0,0,0)
(0,0,0)
(0,0,0)
(0,0,0)
(0,0,0)
(-689224.570106309,117363.402242918,40892.1206260598)
(-707957.693264526,108809.692626528,81566.5208101069)
(-749139.055343928,88851.7284347097,120824.56957282)
(-821123.92626447,50738.5511981781,155368.88655725)
(-938228.298844896,-17929.0793122464,178160.230849113)
(-1121569.6576811,-132412.97309666,173172.680369172)
(-1391196.6880323,-277676.328798727,80140.1432723732)
(-1717474.48890661,-274284.213741411,-392462.532940879)
(-1981514.70172226,-146716.417540202,-1689753.37913641)
(-1725241.0988504,-55810.1360844415,-4044282.42261168)
(0,0,0)
(0,0,0)
(0,0,0)
(0,0,0)
(0,0,0)
(0,0,0)
(-738387.594916662,179855.267401288,32311.7539268806)
(-754955.327147295,168705.429249492,61593.3765106675)
(-791341.315543209,142029.15484373,82732.0289814868)
(-855035.015234658,87759.6463156526,86785.8483567813)
(-960469.583388754,-23560.9109060293,63675.454553454)
(-1136357.30231313,-259933.331377805,27906.4820307181)
(-1433548.81177927,-714138.760413391,83512.4012201574)
(-1718242.47866247,-705809.80868841,-264959.691752256)
(-1949551.53870662,-286772.086847425,-1598936.11145471)
(-1705446.2338924,-89653.7632734994,-3988507.25868939)
(0,0,0)
(0,0,0)
(0,0,0)
(0,0,0)
(0,0,0)
(0,0,0)
(-823105.388936347,239801.708508264,21124.123855132)
(-836623.555530745,228549.549272542,34868.4997441577)
(-865944.452230266,201569.077968316,28470.7919355834)
(-916177.966754852,145177.527663235,-24486.0572969456)
(-998894.891185613,16970.1106775393,-172700.008612906)
(-1162299.37322445,-346256.823926819,-426295.07955586)
(-1753542.21876352,-1753307.3446755,91832.8446366432)
(-1845441.47384661,-1845052.35999243,154007.182613739)
(-1875198.61124284,-421797.049874944,-1401900.69566858)
(-1665489.39702785,-95185.5121082036,-3898882.62127718)
(0,0,0)
(0,0,0)
(0,0,0)
(0,0,0)
(0,0,0)
(0,0,0)
(-957087.071163853,279673.641502462,9828.96055584349)
(-967026.010167408,270946.251334264,7835.51171162117)
(-987505.51784723,251237.940132165,-27927.0542384778)
(-1017103.48979922,214443.950797492,-152628.660067323)
(-1038139.97437827,147821.366032347,-535868.48215574)
(-935558.553200318,38075.7550557324,-1833307.81283613)
(1.41004956327567e-05,4.81274977853436e-06,-1.05374634886707e-05)