/*--------------------------------*- C++ -*----------------------------------*\
| =========                 |                                                 |
| \\      /  F ield         | foam-extend: Open Source CFD                    |
|  \\    /   O peration     | Version:     4.0                                |
|   \\  /    A nd           | Web:         http://www.foam-extend.org         |
|    \\/     M anipulation  |                                                 |
\*---------------------------------------------------------------------------*/
FoamFile
{
    version 2.0;
    format ascii;
    class volVectorField;
    location "1289";
    object      E;
}
// * * * * * * * * * * * * * * * * * * * * * * * * * * * * * * * * * * * * * //

dimensions      [0 1 -1 0 0 0 0];

internalField   nonuniform List<vector>
4096
(
(0,0,0)
(0,0,0)
(0,0,0)
(0,0,0)
(0,0,0)
(0,0,0)
(0,0,0)
(0,0,0)
(0,0,0)
(0,0,0)
(0,0,0)
(0,0,0)
(0,0,0)
(0,0,0)
(0,0,0)
(0,0,0)
(0,0,0)
(0,0,0)
(0,0,0)
(0,0,0)
(0,0,0)
(0,0,0)
(0,0,0)
(0,0,0)
(0,0,0)
(0,0,0)
(0,0,0)
(0,0,0)
(0,0,0)
(0,0,0)
(0,0,0)
(0,0,0)
(0,0,0)
(0,0,0)
(0,0,0)
(0,0,0)
(0,0,0)
(0,0,0)
(0,0,0)
(0,0,0)
(0,0,0)
(0,0,0)
(0,0,0)
(0,0,0)
(0,0,0)
(0,0,0)
(0,0,0)
(0,0,0)
(0,0,0)
(0,0,0)
(0,0,0)
(0,0,0)
(0,0,0)
(0,0,0)
(0,0,0)
(0,0,0)
(0,0,0)
(0,0,0)
(0,0,0)
(0,0,0)
(0,0,0)
(0,0,0)
(0,0,0)
(0,0,0)
(0,0,0)
(0,0,0)
(0,0,0)
(0,0,0)
(0,0,0)
(0,0,0)
(0,0,0)
(0,0,0)
(0,0,0)
(0,0,0)
(0,0,0)
(0,0,0)
(0,0,0)
(0,0,0)
(0,0,0)
(0,0,0)
(0,0,0)
(0,0,0)
(0,0,0)
(0,0,0)
(0,0,0)
(0,0,0)
(0,0,0)
(0,0,0)
(0,0,0)
(0,0,0)
(0,0,0)
(0,0,0)
(0,0,0)
(0,0,0)
(0,0,0)
(0,0,0)
(0,0,0)
(0,0,0)
(0,0,0)
(0,0,0)
(0,0,0)
(0,0,0)
(0,0,0)
(0,0,0)
(0,0,0)
(0,0,0)
(0,0,0)
(0,0,0)
(0,0,0)
(0,0,0)
(0,0,0)
(0,0,0)
(0,0,0)
(0,0,0)
(0,0,0)
(0,0,0)
(0,0,0)
(0,0,0)
(0,0,0)
(0,0,0)
(0,0,0)
(0,0,0)
(0,0,0)
(0,0,0)
(0,0,0)
(0,0,0)
(0,0,0)
(0,0,0)
(0,0,0)
(0,0,0)
(0,0,0)
(0,0,0)
(0,0,0)
(0,0,0)
(0,0,0)
(0,0,0)
(0,0,0)
(0,0,0)
(0,0,0)
(0,0,0)
(0,0,0)
(0,0,0)
(0,0,0)
(0,0,0)
(0,0,0)
(0,0,0)
(0,0,0)
(0,0,0)
(0,0,0)
(0,0,0)
(0,0,0)
(0,0,0)
(0,0,0)
(0,0,0)
(0,0,0)
(0,0,0)
(0,0,0)
(0,0,0)
(0,0,0)
(0,0,0)
(0,0,0)
(0,0,0)
(0,0,0)
(0,0,0)
(0,0,0)
(0,0,0)
(0,0,0)
(0,0,0)
(0,0,0)
(0,0,0)
(0,0,0)
(0,0,0)
(0,0,0)
(0,0,0)
(0,0,0)
(0,0,0)
(0,0,0)
(0,0,0)
(0,0,0)
(0,0,0)
(0,0,0)
(0,0,0)
(0,0,0)
(0,0,0)
(0,0,0)
(0,0,0)
(0,0,0)
(0,0,0)
(0,0,0)
(0,0,0)
(0,0,0)
(0,0,0)
(0,0,0)
(0,0,0)
(0,0,0)
(0,0,0)
(0,0,0)
(0,0,0)
(0,0,0)
(0,0,0)
(0,0,0)
(0,0,0)
(0,0,0)
(0,0,0)
(0,0,0)
(0,0,0)
(0,0,0)
(0,0,0)
(0,0,0)
(0,0,0)
(0,0,0)
(0,0,0)
(0,0,0)
(0,0,0)
(0,0,0)
(0,0,0)
(0,0,0)
(0,0,0)
(0,0,0)
(0,0,0)
(0,0,0)
(0,0,0)
(0,0,0)
(0,0,0)
(0,0,0)
(0,0,0)
(0,0,0)
(0,0,0)
(0,0,0)
(0,0,0)
(0,0,0)
(0,0,0)
(0,0,0)
(0,0,0)
(0,0,0)
(0,0,0)
(0,0,0)
(0,0,0)
(0,0,0)
(0,0,0)
(0,0,0)
(0,0,0)
(0,0,0)
(0,0,0)
(0,0,0)
(0,0,0)
(0,0,0)
(0,0,0)
(0,0,0)
(0,0,0)
(0,0,0)
(0,0,0)
(0,0,0)
(0,0,0)
(0,0,0)
(0,0,0)
(0,0,0)
(0,0,0)
(0,0,0)
(0,0,0)
(0,0,0)
(0,0,0)
(0,0,0)
(0,0,0)
(0,0,0)
(0,0,0)
(0,0,0)
(0,0,0)
(0,0,0)
(0,0,0)
(0,0,0)
(0,0,0)
(0,0,0)
(0,0,0)
(0,0,0)
(0,0,0)
(0,0,0)
(0,0,0)
(0,0,0)
(0,0,0)
(0,0,0)
(0,0,0)
(0,0,0)
(0,0,0)
(0,0,0)
(0,0,0)
(0,0,0)
(0,0,0)
(0,0,0)
(0,0,0)
(0,0,0)
(0,0,0)
(0,0,0)
(0,0,0)
(0,0,0)
(0,0,0)
(0,0,0)
(0,0,0)
(0,0,0)
(0,0,0)
(0,0,0)
(0,0,0)
(0,0,0)
(0,0,0)
(0,0,0)
(0,0,0)
(0,0,0)
(0,0,0)
(0,0,0)
(0,0,0)
(0,0,0)
(0,0,0)
(0,0,0)
(0,0,0)
(0,0,0)
(0,0,0)
(0,0,0)
(0,0,0)
(0,0,0)
(0,0,0)
(0,0,0)
(0,0,0)
(0,0,0)
(0,0,0)
(0,0,0)
(0,0,0)
(0,0,0)
(0,0,0)
(0,0,0)
(0,0,0)
(0,0,0)
(0,0,0)
(0,0,0)
(0,0,0)
(0,0,0)
(0,0,0)
(0,0,0)
(0,0,0)
(0,0,0)
(0,0,0)
(0,0,0)
(0,0,0)
(0,0,0)
(0,0,0)
(0,0,0)
(0,0,0)
(0,0,0)
(0,0,0)
(0,0,0)
(0,0,0)
(0,0,0)
(0,0,0)
(0,0,0)
(0,0,0)
(0,0,0)
(0,0,0)
(0,0,0)
(0,0,0)
(0,0,0)
(0,0,0)
(0,0,0)
(0,0,0)
(0,0,0)
(0,0,0)
(0,0,0)
(0,0,0)
(0,0,0)
(0,0,0)
(0,0,0)
(0,0,0)
(0,0,0)
(0,0,0)
(0,0,0)
(0,0,0)
(0,0,0)
(0,0,0)
(0,0,0)
(0,0,0)
(0,0,0)
(0,0,0)
(0,0,0)
(0,0,0)
(0,0,0)
(0,0,0)
(0,0,0)
(0,0,0)
(0,0,0)
(0,0,0)
(0,0,0)
(0,0,0)
(0,0,0)
(0,0,0)
(0,0,0)
(0,0,0)
(0,0,0)
(0,0,0)
(0,0,0)
(0,0,0)
(0,0,0)
(0,0,0)
(0,0,0)
(0,0,0)
(0,0,0)
(0,0,0)
(0,0,0)
(0,0,0)
(0,0,0)
(0,0,0)
(0,0,0)
(0,0,0)
(0,0,0)
(0,0,0)
(0,0,0)
(0,0,0)
(0,0,0)
(0,0,0)
(0,0,0)
(0,0,0)
(0,0,0)
(0,0,0)
(0,0,0)
(0,0,0)
(0,0,0)
(0,0,0)
(0,0,0)
(0,0,0)
(0,0,0)
(0,0,0)
(0,0,0)
(0,0,0)
(0,0,0)
(0,0,0)
(0,0,0)
(0,0,0)
(0,0,0)
(0,0,0)
(0,0,0)
(0,0,0)
(0,0,0)
(0,0,0)
(0,0,0)
(0,0,0)
(0,0,0)
(0,0,0)
(0,0,0)
(0,0,0)
(0,0,0)
(0,0,0)
(0,0,0)
(0,0,0)
(0,0,0)
(0,0,0)
(0,0,0)
(0,0,0)
(0,0,0)
(0,0,0)
(0,0,0)
(0,0,0)
(0,0,0)
(0,0,0)
(0,0,0)
(0,0,0)
(0,0,0)
(0,0,0)
(0,0,0)
(0,0,0)
(0,0,0)
(0,0,0)
(0,0,0)
(0,0,0)
(0,0,0)
(0,0,0)
(0,0,0)
(0,0,0)
(0,0,0)
(0,0,0)
(0,0,0)
(0,0,0)
(0,0,0)
(0,0,0)
(0,0,0)
(0,0,0)
(0,0,0)
(0,0,0)
(0,0,0)
(0,0,0)
(0,0,0)
(0,0,0)
(0,0,0)
(0,0,0)
(0,0,0)
(0,0,0)
(0,0,0)
(0,0,0)
(0,0,0)
(0,0,0)
(0,0,0)
(0,0,0)
(0,0,0)
(0,0,0)
(0,0,0)
(0,0,0)
(0,0,0)
(0,0,0)
(0,0,0)
(0,0,0)
(0,0,0)
(0,0,0)
(0,0,0)
(0,0,0)
(0,0,0)
(0,0,0)
(0,0,0)
(0,0,0)
(0,0,0)
(0,0,0)
(0,0,0)
(0,0,0)
(0,0,0)
(0,0,0)
(0,0,0)
(0,0,0)
(0,0,0)
(0,0,0)
(0,0,0)
(0,0,0)
(0,0,0)
(0,0,0)
(0,0,0)
(0,0,0)
(0,0,0)
(0,0,0)
(0,0,0)
(0,0,0)
(0,0,0)
(0,0,0)
(0,0,0)
(0,0,0)
(0,0,0)
(0,0,0)
(0,0,0)
(0,0,0)
(0,0,0)
(0,0,0)
(0,0,0)
(0,0,0)
(0,0,0)
(0,0,0)
(0,0,0)
(0,0,0)
(0,0,0)
(0,0,0)
(0,0,0)
(0,0,0)
(0,0,0)
(0,0,0)
(0,0,0)
(0,0,0)
(0,0,0)
(0,0,0)
(0,0,0)
(0,0,0)
(0,0,0)
(0,0,0)
(0,0,0)
(0,0,0)
(0,0,0)
(0,0,0)
(0,0,0)
(0,0,0)
(0,0,0)
(0,0,0)
(0,0,0)
(0,0,0)
(0,0,0)
(0,0,0)
(0,0,0)
(0,0,0)
(0,0,0)
(0,0,0)
(0,0,0)
(0,0,0)
(0,0,0)
(0,0,0)
(0,0,0)
(0,0,0)
(0,0,0)
(0,0,0)
(0,0,0)
(0,0,0)
(0,0,0)
(0,0,0)
(0,0,0)
(0,0,0)
(0,0,0)
(0,0,0)
(0,0,0)
(0,0,0)
(0,0,0)
(0,0,0)
(0,0,0)
(0,0,0)
(0,0,0)
(0,0,0)
(0,0,0)
(0,0,0)
(0,0,0)
(0,0,0)
(0,0,0)
(0,0,0)
(0,0,0)
(0,0,0)
(0,0,0)
(0,0,0)
(0,0,0)
(0,0,0)
(0,0,0)
(0,0,0)
(0,0,0)
(0,0,0)
(0,0,0)
(0,0,0)
(0,0,0)
(0,0,0)
(0,0,0)
(0,0,0)
(0,0,0)
(0,0,0)
(0,0,0)
(0,0,0)
(0,0,0)
(0,0,0)
(0,0,0)
(0,0,0)
(0,0,0)
(0,0,0)
(0,0,0)
(0,0,0)
(0,0,0)
(0,0,0)
(0,0,0)
(0,0,0)
(0,0,0)
(0,0,0)
(0,0,0)
(0,0,0)
(0,0,0)
(0,0,0)
(0,0,0)
(0,0,0)
(0,0,0)
(0,0,0)
(0,0,0)
(0,0,0)
(0,0,0)
(0,0,0)
(0,0,0)
(0,0,0)
(0,0,0)
(0,0,0)
(0,0,0)
(0,0,0)
(0,0,0)
(0,0,0)
(0,0,0)
(0,0,0)
(0,0,0)
(0,0,0)
(0,0,0)
(0,0,0)
(0,0,0)
(0,0,0)
(0,0,0)
(0,0,0)
(0,0,0)
(0,0,0)
(0,0,0)
(0,0,0)
(0,0,0)
(0,0,0)
(0,0,0)
(0,0,0)
(0,0,0)
(0,0,0)
(0,0,0)
(0,0,0)
(0,0,0)
(0,0,0)
(0,0,0)
(0,0,0)
(0,0,0)
(0,0,0)
(0,0,0)
(0,0,0)
(0,0,0)
(0,0,0)
(0,0,0)
(0,0,0)
(0,0,0)
(0,0,0)
(0,0,0)
(0,0,0)
(0,0,0)
(0,0,0)
(0,0,0)
(0,0,0)
(0,0,0)
(0,0,0)
(0,0,0)
(0,0,0)
(0,0,0)
(0,0,0)
(0,0,0)
(0,0,0)
(0,0,0)
(0,0,0)
(0,0,0)
(0,0,0)
(0,0,0)
(0,0,0)
(0,0,0)
(0,0,0)
(0,0,0)
(0,0,0)
(0,0,0)
(0,0,0)
(0,0,0)
(0,0,0)
(0,0,0)
(0,0,0)
(0,0,0)
(0,0,0)
(0,0,0)
(0,0,0)
(0,0,0)
(0,0,0)
(0,0,0)
(0,0,0)
(0,0,0)
(0,0,0)
(0,0,0)
(0,0,0)
(0,0,0)
(0,0,0)
(0,0,0)
(0,0,0)
(0,0,0)
(0,0,0)
(0,0,0)
(0,0,0)
(0,0,0)
(0,0,0)
(0,0,0)
(0,0,0)
(0,0,0)
(0,0,0)
(0,0,0)
(0,0,0)
(0,0,0)
(0,0,0)
(0,0,0)
(0,0,0)
(0,0,0)
(0,0,0)
(0,0,0)
(0,0,0)
(0,0,0)
(0,0,0)
(0,0,0)
(0,0,0)
(0,0,0)
(0,0,0)
(0,0,0)
(0,0,0)
(0,0,0)
(0,0,0)
(0,0,0)
(0,0,0)
(0,0,0)
(0,0,0)
(0,0,0)
(0,0,0)
(0,0,0)
(0,0,0)
(0,0,0)
(0,0,0)
(0,0,0)
(0,0,0)
(0,0,0)
(0,0,0)
(0,0,0)
(0,0,0)
(0,0,0)
(0,0,0)
(0,0,0)
(0,0,0)
(0,0,0)
(0,0,0)
(0,0,0)
(0,0,0)
(0,0,0)
(0,0,0)
(0,0,0)
(0,0,0)
(0,0,0)
(0,0,0)
(0,0,0)
(0,0,0)
(0,0,0)
(0,0,0)
(0,0,0)
(0,0,0)
(0,0,0)
(0,0,0)
(0,0,0)
(0,0,0)
(0,0,0)
(0,0,0)
(0,0,0)
(-104534.700052963,55614.8365590828,48919.8634938801)
(-110570.098861197,53324.8150479153,106165.147307162)
(-124591.570454063,48536.3891744196,182220.328586806)
(-151015.511932165,41034.6803550631,292201.160163911)
(-198551.619667573,30905.9683903334,459846.811441157)
(-283842.173488663,19228.0017333317,724460.983196474)
(-438336.352772404,8603.21951142404,1154194.11645749)
(-717646.342253768,2131.45497123253,1869709.00374002)
(-1183692.25744146,-22.9226109589903,3053424.18379249)
(-1649272.87128254,-171.449880828423,4702868.50495587)
(0,0,0)
(0,0,0)
(0,0,0)
(0,0,0)
(0,0,0)
(0,0,0)
(-110619.674954062,119557.997080478,46676.5144326669)
(-116704.555010882,115243.33085264,101462.553638828)
(-130926.057478652,106154.823862433,174770.176429463)
(-157955.323147095,91659.1811826407,282100.998748984)
(-206817.53410209,71604.6069798355,448219.89426157)
(-294166.095376127,47737.3002119866,713876.691159048)
(-450364.329292932,25150.1075061222,1147694.13245725)
(-728594.496050706,10882.6351120578,1867537.4483671)
(-1190963.27160777,5281.56226480245,3053196.23509917)
(-1652661.35704132,2693.29727010562,4702992.84498946)
(0,0,0)
(0,0,0)
(0,0,0)
(0,0,0)
(0,0,0)
(0,0,0)
(-124456.367884193,201635.119424446,42379.2455402245)
(-130665.295384922,195866.142320212,92421.7294575759)
(-145311.718753036,183554.237708516,160334.034364533)
(-173662.728865567,163513.733444863,262142.210967879)
(-225646.223308641,134943.369786553,424449.671469803)
(-318425.910818349,99243.8696591512,691369.012840988)
(-480016.230249375,63105.3511238526,1133429.99947264)
(-755886.606031423,38301.1731002022,1861898.06751588)
(-1208536.66871818,25235.4215547668,3050480.87694417)
(-1660633.23464289,13669.4910076729,4700137.91784947)
(0,0,0)
(0,0,0)
(0,0,0)
(0,0,0)
(0,0,0)
(0,0,0)
(-150227.964649411,315289.94007344,36573.1440004177)
(-156526.205866297,308859.436532258,80106.0556546706)
(-171722.790417144,295055.738759554,140327.345020771)
(-202025.50497717,272261.84080393,233604.74263887)
(-259172.909679033,238939.489246018,388781.53285844)
(-362367.804909028,195152.196613695,655241.010812918)
(-536782.241234068,146549.379966428,1108579.22320442)
(-808664.796235604,106835.060882334,1848710.13165786)
(-1240734.46134335,75913.3665776704,3038766.64797827)
(-1674690.48949424,40832.3067466952,4686294.32173358)
(0,0,0)
(0,0,0)
(0,0,0)
(0,0,0)
(0,0,0)
(0,0,0)
(-196361.084105392,481544.051771014,30106.9724078166)
(-202621.327845604,475253.128064036,66334.6087216413)
(-218111.51112465,461830.124054292,117671.734551553)
(-250027.973450677,439616.840222422,200344.708583743)
(-312485.83666814,406779.490860641,344990.543637265)
(-428576.207920371,362130.339005256,606588.609166061)
(-623181.357093334,307460.292664901,1068859.05356093)
(-889013.92344371,246965.288818452,1817742.74906854)
(-1287531.96914227,177548.455661864,3003639.62912667)
(-1694984.28004506,94088.7740872958,4645367.44183114)
(0,0,0)
(0,0,0)
(0,0,0)
(0,0,0)
(0,0,0)
(0,0,0)
(-279594.992013465,737321.078331427,23817.9654530539)
(-285518.919280157,731667.321657647,52922.6911395986)
(-300493.815259558,719687.609777457,95559.0206759911)
(-332102.422728238,699724.520727911,167553.762898736)
(-395230.680062243,669171.257810952,300392.676010667)
(-513532.869314952,624125.092408276,551930.791922606)
(-708725.454276749,559693.650518089,1008422.88834619)
(-962516.107476626,469537.378275006,1748366.90636625)
(-1338208.05467358,343862.322845359,2920261.09385637)
(-1720507.54679597,183566.073462798,4551291.34127676)
(0,0,0)
(0,0,0)
(0,0,0)
(0,0,0)
(0,0,0)
(0,0,0)
(-432394.657819401,1151459.81586949,18255.9202813389)
(-437626.100910275,1146567.47510432,40981.867744934)
(-451029.195793824,1136089.97103204,75608.7022841801)
(-479887.735414605,1118251.73047289,136969.227953806)
(-538538.568108306,1089310.91299413,255368.140878936)
(-649720.777162999,1041734.8624945,487479.147955706)
(-832902.874629467,961797.089877942,918278.583225324)
(-1063682.15536224,828731.588497662,1622766.5283649)
(-1413705.57910466,620161.896213206,2760172.53410166)
(-1762137.72613543,337921.544179897,4367954.78952003)
(0,0,0)
(0,0,0)
(0,0,0)
(0,0,0)
(0,0,0)
(0,0,0)
(-711792.058267602,1849835.69147683,13416.182660251)
(-715977.32991911,1845382.8498343,30578.1378493942)
(-726768.127063167,1835619.82284001,57816.4131046024)
(-750222.344073057,1818256.16983828,108034.317812264)
(-798431.740427279,1787957.92508629,207819.046147374)
(-890872.780899508,1732915.7695771,407510.919964279)
(-1044270.16668574,1628357.51366938,785220.66285857)
(-1231114.76330807,1430807.71440401,1414259.3002603)
(-1550775.22184887,1107006.63855591,2478189.77976648)
(-1841786.28347967,627492.290105707,4030405.31732027)
(0,0,0)
(0,0,0)
(0,0,0)
(0,0,0)
(0,0,0)
(0,0,0)
(-1179637.52218131,3020442.83474912,9030.37890900168)
(-1182498.01049415,3015996.84736005,20914.3918774034)
(-1189844.84557657,3005853.27298549,40525.7873084606)
(-1205612.60948509,2986625.28803445,77769.2785973786)
(-1237460.62320911,2950421.71672896,152766.110163845)
(-1297277.66613016,2880072.73469425,302886.811176841)
(-1397712.76123828,2741299.06055917,587658.025525322)
(-1546979.77241032,2474948.33033324,1090497.18200641)
(-1803622.31444422,2002317.07234533,1998809.06266117)
(-1980720.67265543,1203904.71511996,3403117.31030236)
(0,0,0)
(0,0,0)
(0,0,0)
(0,0,0)
(0,0,0)
(0,0,0)
(-1647375.60180678,4663229.77806596,4588.65848993524)
(-1648811.44010886,4658612.88568167,10784.0602771802)
(-1652467.39968085,4647821.86620458,21282.8667389535)
(-1660204.59084941,4626605.39177335,41507.35384947)
(-1675622.55682157,4585179.34602483,82372.2813751847)
(-1704421.66216566,4502823.46256388,164043.215671209)
(-1754696.15127343,4338818.53688914,321219.890614655)
(-1839422.06616143,4017744.05063481,617846.236474471)
(-1980263.19554859,3399953.8188172,1200472.68555119)
(-1994338.01233821,2199378.29474873,2199337.11826064)
(0,0,0)
(0,0,0)
(0,0,0)
(0,0,0)
(0,0,0)
(0,0,0)
(0,0,0)
(0,0,0)
(0,0,0)
(0,0,0)
(0,0,0)
(0,0,0)
(0,0,0)
(0,0,0)
(0,0,0)
(0,0,0)
(0,0,0)
(0,0,0)
(0,0,0)
(0,0,0)
(0,0,0)
(0,0,0)
(0,0,0)
(0,0,0)
(0,0,0)
(0,0,0)
(0,0,0)
(0,0,0)
(0,0,0)
(0,0,0)
(0,0,0)
(0,0,0)
(0,0,0)
(0,0,0)
(0,0,0)
(0,0,0)
(0,0,0)
(0,0,0)
(0,0,0)
(0,0,0)
(0,0,0)
(0,0,0)
(0,0,0)
(0,0,0)
(0,0,0)
(0,0,0)
(0,0,0)
(0,0,0)
(0,0,0)
(0,0,0)
(0,0,0)
(0,0,0)
(0,0,0)
(0,0,0)
(0,0,0)
(0,0,0)
(0,0,0)
(0,0,0)
(0,0,0)
(0,0,0)
(0,0,0)
(0,0,0)
(0,0,0)
(0,0,0)
(0,0,0)
(0,0,0)
(0,0,0)
(0,0,0)
(0,0,0)
(0,0,0)
(0,0,0)
(0,0,0)
(0,0,0)
(0,0,0)
(0,0,0)
(0,0,0)
(0,0,0)
(0,0,0)
(0,0,0)
(0,0,0)
(0,0,0)
(0,0,0)
(0,0,0)
(0,0,0)
(0,0,0)
(0,0,0)
(0,0,0)
(0,0,0)
(0,0,0)
(0,0,0)
(0,0,0)
(0,0,0)
(0,0,0)
(0,0,0)
(0,0,0)
(0,0,0)
(0,0,0)
(0,0,0)
(0,0,0)
(0,0,0)
(0,0,0)
(0,0,0)
(15467780.0442414,49568.4748271882,42940.62392199)
(15457641.6199907,47252.5036178082,92300.2444957741)
(15434345.0544283,42259.6697406544,155927.79291623)
(15390938.1473287,34135.4173603007,244662.559338478)
(15313770.030878,22681.2772092459,374483.474627153)
(15176598.7111273,8959.69250117491,569906.740553445)
(14924858.0417992,-3365.56305935455,874901.752084655)
(14427212.4827374,-8810.81592671553,1403677.58606365)
(13304329.7172702,-7304.65428696411,2587784.10868243)
(10254891.2050171,-3581.13195025171,6352025.00737649)
(0,0,0)
(0,0,0)
(0,0,0)
(0,0,0)
(0,0,0)
(0,0,0)
(15457401.6278527,105754.33853863,40616.6765252955)
(15447282.1561163,101359.909728515,87346.4023309563)
(15423806.3667323,91840.2200645868,147857.270839564)
(15379599.0767594,75990.8487998634,233271.282536976)
(15300330.1290516,52808.6805036112,360820.059132425)
(15159295.7944741,23525.3639362774,557616.34089062)
(14903690.0888618,-4436.89281273427,869457.095532873)
(14408117.4419377,-16391.8594682557,1405150.04412953)
(13292483.0132801,-12258.6052611979,2591481.55325934)
(10249701.0844374,-5238.47956041608,6355600.30243417)
(0,0,0)
(0,0,0)
(0,0,0)
(0,0,0)
(0,0,0)
(0,0,0)
(15434005.3027668,175915.890479362,36200.6204517199)
(15423843.4794109,170042.050477226,77833.547950763)
(15399944.4928863,157185.790805745,132055.608613814)
(15353830.1402411,135193.948536756,210183.482813836)
(15269081.453281,101463.486244615,331624.84352656)
(15116464.9452227,55350.2352265669,529732.959238685)
(14846191.9875327,6365.17327184637,857546.518415514)
(14355346.8676588,-14486.2299681732,1409231.25826882)
(13261792.8646013,-6949.52296248238,2598416.48569405)
(10236953.7380999,-338.652100030144,6360753.52853444)
(0,0,0)
(0,0,0)
(0,0,0)
(0,0,0)
(0,0,0)
(0,0,0)
(15391059.7151045,269171.166823711,30280.8869451967)
(15380924.2985245,262759.859541947,64936.416533192)
(15356468.2059091,248672.219375344,110082.834680875)
(15307338.4261905,224244.520651543,176492.174441981)
(15212467.4831485,185586.32669928,285552.784203228)
(15033686.7658379,128895.632887492,480776.658838894)
(14718436.5966821,60077.9646666026,836668.872571506)
(14235255.8420374,26440.5903787282,1416645.25699508)
(13199781.5411536,29124.11451393,2604879.46006517)
(10213126.3927111,20569.1916736502,6360978.57712974)
(0,0,0)
(0,0,0)
(0,0,0)
(0,0,0)
(0,0,0)
(0,0,0)
(15315511.5157112,398294.0046689,23828.4053816848)
(15305645.6427954,392308.279679298,50836.8576468045)
(15281090.3963526,379384.691697812,85746.3208906138)
(15229411.2173598,357498.251253156,137877.242522003)
(15122953.4963557,323991.766540392,228856.312700554)
(14904929.5427992,277125.357324459,411944.680587481)
(14488839.3227774,221809.378557814,803016.429868985)
(14012655.1230583,173363.533416727,1419248.28337246)
(13102601.0029541,126828.050286027,2596235.21854734)
(10177719.1554724,68566.1497722026,6340358.66797492)
(0,0,0)
(0,0,0)
(0,0,0)
(0,0,0)
(0,0,0)
(0,0,0)
(15181171.9038867,584510.133238077,17840.8185741084)
(15172007.1464419,579535.12011202,37911.7554628022)
(15148639.1826731,569068.462646837,63918.8296246211)
(15097904.2539254,551843.359896608,104390.887371068)
(14990181.1484352,525777.013381989,182017.655075503)
(14765875.2080853,487894.320189469,356664.457853727)
(14344499.2222241,435440.109640224,754632.89331403)
(13889284.9651285,368297.760057918,1372721.43711112)
(13019851.7226611,268305.358022089,2538008.19508387)
(10137141.0173129,141905.448723106,6271844.17506767)
(0,0,0)
(0,0,0)
(0,0,0)
(0,0,0)
(0,0,0)
(0,0,0)
(14931988.6310881,872015.481061227,12935.2063128825)
(14924023.3590019,868161.241364311,27483.4681919358)
(14903362.0488161,860280.233328733,46704.2959436697)
(14857347.8624817,847835.707492077,78300.1934953863)
(14756896.3226456,829333.974162838,144132.185004141)
(14542389.2562427,800523.746824259,304216.568007174)
(14133731.1966097,750349.4472482,687497.002203472)
(13722937.3487193,661235.244474152,1272763.85674929)
(12897424.3516294,483025.579451872,2411737.54762897)
(10067962.8290219,258239.364494844,6130126.9197435)
(0,0,0)
(0,0,0)
(0,0,0)
(0,0,0)
(0,0,0)
(0,0,0)
(14433956.1407271,1381927.16630322,9163.95880683448)
(14427674.4457744,1378796.27014917,19700.9973720127)
(14411235.7030787,1372498.14050795,34303.1030944316)
(14374094.3365685,1362827.77601049,59818.1969780351)
(14291332.6387635,1348851.38221948,115360.252773992)
(14109391.0413812,1326403.13870126,254040.881659817)
(13751736.5223593,1274835.01806438,598372.464842074)
(13483828.7812004,1114906.70113928,1094581.30671193)
(12650417.888304,854104.044975861,2187133.57407853)
(9907747.35460462,488512.207601345,5872150.93593121)
(0,0,0)
(0,0,0)
(0,0,0)
(0,0,0)
(0,0,0)
(0,0,0)
(13308279.7372849,2552707.39221195,6126.35766850533)
(13304032.5120651,2549691.71569597,13524.2326059998)
(13293043.1749437,2543241.42947881,24716.7661583856)
(13268758.1781434,2532059.59817251,45937.9994112725)
(13216957.8614793,2512229.49744779,92965.2425379667)
(13111624.2080757,2472853.31526061,202437.034816279)
(12921739.7964376,2384234.91099224,438408.427256051)
(12654932.3455358,2182414.87504638,833811.978446392)
(11901852.4633198,1825592.07767718,1821673.01102459)
(9420270.87430974,1190234.57812509,5383782.93657909)
(0,0,0)
(0,0,0)
(0,0,0)
(0,0,0)
(0,0,0)
(0,0,0)
(10256365.9680612,6310638.24528587,3151.42010154964)
(10254256.7619875,6307471.56020817,7127.21653651368)
(10248865.7835607,6300339.0613659,13520.2444513448)
(10237211.8483649,6286888.57144755,26098.6750055339)
(10213122.8877229,6260833.22366122,53573.3472911889)
(10165805.9100988,6207255.95200746,113766.981323427)
(10078154.5752875,6093475.09527113,236499.913527137)
(9910257.51069601,5857073.11559806,476985.939161518)
(9420635.93745026,5380109.31926705,1186393.4076163)
(7659836.90446618,4193644.02136784,4193632.89061261)
(0,0,0)
(0,0,0)
(0,0,0)
(0,0,0)
(0,0,0)
(0,0,0)
(0,0,0)
(0,0,0)
(0,0,0)
(0,0,0)
(0,0,0)
(0,0,0)
(0,0,0)
(0,0,0)
(0,0,0)
(0,0,0)
(0,0,0)
(0,0,0)
(0,0,0)
(0,0,0)
(0,0,0)
(0,0,0)
(0,0,0)
(0,0,0)
(0,0,0)
(0,0,0)
(0,0,0)
(0,0,0)
(0,0,0)
(0,0,0)
(0,0,0)
(0,0,0)
(0,0,0)
(0,0,0)
(0,0,0)
(0,0,0)
(0,0,0)
(0,0,0)
(0,0,0)
(0,0,0)
(0,0,0)
(0,0,0)
(0,0,0)
(0,0,0)
(0,0,0)
(0,0,0)
(0,0,0)
(0,0,0)
(0,0,0)
(0,0,0)
(0,0,0)
(0,0,0)
(0,0,0)
(0,0,0)
(0,0,0)
(0,0,0)
(0,0,0)
(0,0,0)
(0,0,0)
(0,0,0)
(0,0,0)
(0,0,0)
(0,0,0)
(0,0,0)
(0,0,0)
(0,0,0)
(0,0,0)
(0,0,0)
(0,0,0)
(0,0,0)
(0,0,0)
(0,0,0)
(0,0,0)
(0,0,0)
(0,0,0)
(0,0,0)
(0,0,0)
(0,0,0)
(0,0,0)
(0,0,0)
(0,0,0)
(0,0,0)
(0,0,0)
(0,0,0)
(0,0,0)
(0,0,0)
(0,0,0)
(0,0,0)
(0,0,0)
(0,0,0)
(0,0,0)
(0,0,0)
(0,0,0)
(0,0,0)
(0,0,0)
(0,0,0)
(0,0,0)
(0,0,0)
(0,0,0)
(0,0,0)
(0,0,0)
(0,0,0)
(-269230.690207293,39331.6748592155,32855.2165459379)
(-280434.080921317,36976.0909209313,69130.983493532)
(-305693.170437244,31769.6327255396,112575.73259006)
(-351575.308739929,22821.6785585212,167443.667056758)
(-430002.391728297,9223.19578170183,237169.050837861)
(-560738.365143076,-8367.45082009694,318049.734884891)
(-774622.406577748,-24536.0910425917,377242.431260957)
(-1113239.13282663,-27927.796364416,280798.000145948)
(-1598819.10840685,-19190.7294398423,-461686.287780697)
(-1959923.75248506,-8792.02039741414,-3902903.15292454)
(0,0,0)
(0,0,0)
(0,0,0)
(0,0,0)
(0,0,0)
(0,0,0)
(-281065.796637474,82488.3808519031,30486.8754539872)
(-292032.207347402,78025.9226750055,63927.564120065)
(-317031.273604232,68027.7871720884,103683.206966555)
(-362942.660074491,50258.587172008,153964.192143488)
(-442531.116650364,21563.6485413484,219661.142042309)
(-576828.799229923,-19298.3488429323,301892.790725634)
(-795742.368785592,-61890.8103754817,373856.124662328)
(-1131102.86253004,-69147.9513137504,289472.741035873)
(-1607772.7109645,-42959.5938811896,-451326.513321599)
(-1963106.05461765,-17986.9590558752,-3894148.27865158)
(0,0,0)
(0,0,0)
(0,0,0)
(0,0,0)
(0,0,0)
(0,0,0)
(-307417.091374417,133032.475722504,26054.4562271687)
(-318013.798352754,127145.661594449,53968.1520278023)
(-342537.062061356,113698.534139544,85955.1169644538)
(-388865.403269987,88718.7094328948,125366.695171071)
(-472559.110680737,44871.3640892455,178875.700541534)
(-620727.932659366,-27403.7262993883,259350.112836587)
(-866472.183531615,-121356.981966258,366656.612448199)
(-1193024.55988794,-134570.400812743,315626.646450322)
(-1634951.37801684,-68978.6686256067,-426433.879230529)
(-1971836.62497626,-24173.9701867614,-3876280.34806702)
(0,0,0)
(0,0,0)
(0,0,0)
(0,0,0)
(0,0,0)
(0,0,0)
(-354479.201020742,193592.647528126,20154.9012761642)
(-364523.973309341,187407.8850741,40517.1065868418)
(-388319.638707852,173195.518713002,60984.1235868111)
(-435574.222422386,146227.558319078,81564.0802699495)
(-528583.293474734,96000.5033523503,106661.874586631)
(-717415.25661665,89.175677139221,165447.152021145)
(-1086182.35153284,-169564.980591303,353450.255817605)
(-1395629.18197473,-196211.346862086,381152.382835604)
(-1703022.36411395,-68097.863941428,-381748.359624488)
(-1990523.46367915,-14882.8830702751,-3852213.4333943)
(0,0,0)
(0,0,0)
(0,0,0)
(0,0,0)
(0,0,0)
(0,0,0)
(-433479.286223063,263834.472463806,13925.1339551127)
(-442670.978534318,258536.81147587,26288.9858395817)
(-465109.622367443,246791.114835171,34069.5653939269)
(-512364.789729136,225877.428437638,31371.8593208249)
(-616419.233392785,191138.094613551,10783.1547646073)
(-882877.801291638,138017.610236425,-4161.77874729956)
(-1753967.76564268,77419.1243797098,326837.361658311)
(-2080673.780272,49901.7593208052,509229.315762238)
(-1836500.47104347,44014.0854839744,-328605.002708981)
(-2021150.13436056,27948.6323982937,-3837391.07138805)
(0,0,0)
(0,0,0)
(0,0,0)
(0,0,0)
(0,0,0)
(0,0,0)
(-563605.095152813,335191.794417069,8595.83404280159)
(-571638.138853954,331442.359885051,14511.7278860049)
(-591711.702062594,323654.133302537,13175.7511108322)
(-635650.941076777,311120.822659229,-3336.29115211499)
(-736875.101691942,292319.666200086,-42285.455654982)
(-1002760.19085426,264254.271737558,-64710.561260032)
(-1831606.08476076,224508.361337195,299481.66572375)
(-2131362.88215068,201834.323410847,503373.105869484)
(-1898715.40140513,145791.096097547,-344660.623721389)
(-2051741.92823742,72653.7190853007,-3865306.60790152)
(0,0,0)
(0,0,0)
(0,0,0)
(0,0,0)
(0,0,0)
(0,0,0)
(-776335.689291006,373830.861946361,4861.40980627081)
(-782932.650719877,371702.24953949,6733.68683008587)
(-799771.004770501,368051.989106851,645.041568814776)
(-838035.072606595,364458.243414887,-22133.287142041)
(-931008.720778907,363622.089988648,-70354.5105495995)
(-1191417.82785915,367340.45133936,-104457.449093067)
(-2055901.70890453,368142.653837868,276717.320877058)
(-2332619.36732658,421997.498125504,447287.019164702)
(-1992479.90655726,235917.869766427,-417759.339361046)
(-2102112.86088903,97968.8758860382,-3937822.64929441)
(0,0,0)
(0,0,0)
(0,0,0)
(0,0,0)
(0,0,0)
(0,0,0)
(-1115888.01978939,256060.82531795,2790.35410137848)
(-1120846.23068833,255024.679707084,3164.75735296029)
(-1133691.00077522,254236.046195103,-2916.43892486409)
(-1163676.28677752,257436.09367455,-22947.5088820893)
(-1240610.6322879,274391.237963955,-66597.2288493837)
(-1479511.02897652,328478.042160918,-103656.592356723)
(-2423766.90004474,444675.521371974,330490.119469734)
(-1975587.13083106,285907.305696509,261172.380886711)
(-2067175.93668788,105473.831790667,-555613.599189108)
(-2180120.41497431,1007.89857631849,-4035608.69534387)
(0,0,0)
(0,0,0)
(0,0,0)
(0,0,0)
(0,0,0)
(0,0,0)
(-1602931.11842107,-499377.434765248,1825.2727457219)
(-1606182.04945406,-500216.072836968,2456.74376539336)
(-1614424.08413109,-501017.983683283,354.189675051755)
(-1632850.12294759,-499558.700594582,-5866.55800823033)
(-1675222.796279,-491715.806273342,-12402.6990560628)
(-1776518.03177927,-473138.740120349,12532.4800366236)
(-1997964.9567602,-459545.377691655,171634.28925454)
(-2070579.7762756,-562458.560523496,80688.434242388)
(-2261056.39341313,-655746.19562824,-660006.524649337)
(-2296784.74084969,-570230.048728377,-4036536.80522862)
(0,0,0)
(0,0,0)
(0,0,0)
(0,0,0)
(0,0,0)
(0,0,0)
(-1963031.9303438,-3945828.14626361,1024.76685989241)
(-1964619.37786875,-3946829.7091,1690.69993560289)
(-1968579.17742551,-3948515.62093558,1809.45513066629)
(-1977088.00551193,-3950298.47439308,2025.23976246216)
(-1995297.64312821,-3952331.40127553,6237.52257226303)
(-2033439.03856587,-3958605.30923063,26125.1973037211)
(-2103946.71820466,-3984770.74098184,68628.0110425962)
(-2182434.04677731,-4053320.15391821,-12642.6811328944)
(-2297494.78072975,-4040647.76601178,-574434.235612837)
(-2217166.94590232,-3466239.45663735,-3466244.82037881)
(0,0,0)
(0,0,0)
(0,0,0)
(0,0,0)
(0,0,0)
(0,0,0)
(0,0,0)
(0,0,0)
(0,0,0)
(0,0,0)
(0,0,0)
(0,0,0)
(0,0,0)
(0,0,0)
(0,0,0)
(0,0,0)
(0,0,0)
(0,0,0)
(0,0,0)
(0,0,0)
(0,0,0)
(0,0,0)
(0,0,0)
(0,0,0)
(0,0,0)
(0,0,0)
(0,0,0)
(0,0,0)
(0,0,0)
(0,0,0)
(0,0,0)
(0,0,0)
(0,0,0)
(0,0,0)
(0,0,0)
(0,0,0)
(0,0,0)
(0,0,0)
(0,0,0)
(0,0,0)
(0,0,0)
(0,0,0)
(0,0,0)
(0,0,0)
(0,0,0)
(0,0,0)
(0,0,0)
(0,0,0)
(0,0,0)
(0,0,0)
(0,0,0)
(0,0,0)
(0,0,0)
(0,0,0)
(0,0,0)
(0,0,0)
(0,0,0)
(0,0,0)
(0,0,0)
(0,0,0)
(0,0,0)
(0,0,0)
(0,0,0)
(0,0,0)
(0,0,0)
(0,0,0)
(0,0,0)
(0,0,0)
(0,0,0)
(0,0,0)
(0,0,0)
(0,0,0)
(0,0,0)
(0,0,0)
(0,0,0)
(0,0,0)
(0,0,0)
(0,0,0)
(0,0,0)
(0,0,0)
(0,0,0)
(0,0,0)
(0,0,0)
(0,0,0)
(0,0,0)
(0,0,0)
(0,0,0)
(0,0,0)
(0,0,0)
(0,0,0)
(0,0,0)
(0,0,0)
(0,0,0)
(0,0,0)
(0,0,0)
(0,0,0)
(0,0,0)
(0,0,0)
(0,0,0)
(0,0,0)
(0,0,0)
(0,0,0)
(-318507.360447283,27535.7783903037,21740.8918496875)
(-328045.852173639,25360.133730763,43992.5293712455)
(-348908.147995352,20430.4046938673,66777.1022354891)
(-385279.762475932,11435.8371415625,89045.7188299267)
(-443909.884153335,-3370.63738571803,106323.848640686)
(-533946.263534343,-24523.874954722,104055.621986676)
(-663457.143702078,-45695.1189680049,38585.4780790132)
(-824094.015406261,-45808.6462306549,-204750.993110695)
(-952607.375210364,-28170.449308985,-822792.276998187)
(-827791.75946965,-11953.9871087624,-1942970.28290485)
(0,0,0)
(0,0,0)
(0,0,0)
(0,0,0)
(0,0,0)
(0,0,0)
(-329254.351913717,56164.506089133,19559.8275774136)
(-338203.626931996,52041.6277652738,39049.753127493)
(-357920.028503128,42509.8337841032,57859.0789361538)
(-392352.470723312,24306.7794319521,74397.9472945843)
(-448279.037214917,-8506.40960565841,85281.6400790773)
(-535736.240976801,-63218.2290055673,82883.4358768082)
(-664424.555736063,-132599.703313164,38470.207172446)
(-820207.568622016,-131048.327600679,-187185.405365547)
(-946305.89345575,-70156.0051227889,-806666.667060494)
(-823927.281508374,-26712.2231660494,-1931087.20411251)
(0,0,0)
(0,0,0)
(0,0,0)
(0,0,0)
(0,0,0)
(0,0,0)
(-352747.281501782,85992.8526744444,15501.8435420575)
(-360654.796225665,80642.6462704011,29541.822909838)
(-378083.139522351,67914.0892575086,39683.6448974248)
(-408532.280445785,42000.9005410728,41656.4009641049)
(-458860.621162179,-11158.0701604312,30609.5720003165)
(-542767.267648406,-124068.629175831,13499.3071596108)
(-684608.216123213,-341015.676542004,40051.3129800555)
(-820572.499973341,-337139.187216003,-126309.887319219)
(-931036.886127663,-137067.942367891,-763312.441963296)
(-814464.681851586,-42889.8448128481,-1904506.76344119)
(0,0,0)
(0,0,0)
(0,0,0)
(0,0,0)
(0,0,0)
(0,0,0)
(-393217.534119463,114563.821455803,10167.3643173674)
(-399689.121230327,109189.521135636,16785.6373731218)
(-413722.948508286,96335.5291545437,13767.5072765233)
(-437722.796834342,69386.7821063604,-11469.7998768097)
(-477149.616196756,8174.59696708409,-82236.1442822978)
(-555058.201148184,-165295.794510373,-203366.034416229)
(-837255.723939579,-837267.006908505,43958.668357006)
(-881304.426263476,-881233.785010788,73728.5104405359)
(-895535.171859183,-201595.764900534,-669230.859281585)
(-795374.077090979,-45560.1572128296,-1861709.93346976)
(0,0,0)
(0,0,0)
(0,0,0)
(0,0,0)
(0,0,0)
(0,0,0)
(-457222.126852735,133549.915261727,4756.74682374797)
(-462000.181212775,129408.556564783,3866.91407305757)
(-471789.634100035,120044.643778487,-13162.1888182919)
(-485922.851734304,102466.416578992,-72683.7612857549)
(-495895.001432686,70647.0999479293,-255680.496226702)
(-446812.847177352,18213.9560529252,-875255.200904289)