/*--------------------------------*- C++ -*----------------------------------*\
| =========                 |                                                 |
| \\      /  F ield         | foam-extend: Open Source CFD                    |
|  \\    /   O peration     | Version:     4.0                                |
|   \\  /    A nd           | Web:         http://www.foam-extend.org         |
|    \\/     M anipulation  |                                                 |
\*---------------------------------------------------------------------------*/
FoamFile
{
    version 2.0;
    format ascii;
    class volVectorField;
    location "3529";
    object      E;
}
// * * * * * * * * * * * * * * * * * * * * * * * * * * * * * * * * * * * * * //

dimensions      [0 1 -1 0 0 0 0];

internalField   nonuniform List<vector>
4096
(
(0,0,0)
(0,0,0)
(0,0,0)
(0,0,0)
(0,0,0)
(0,0,0)
(0,0,0)
(0,0,0)
(0,0,0)
(0,0,0)
(0,0,0)
(0,0,0)
(0,0,0)
(0,0,0)
(0,0,0)
(0,0,0)
(0,0,0)
(0,0,0)
(0,0,0)
(0,0,0)
(0,0,0)
(0,0,0)
(0,0,0)
(0,0,0)
(0,0,0)
(0,0,0)
(0,0,0)
(0,0,0)
(0,0,0)
(0,0,0)
(0,0,0)
(0,0,0)
(0,0,0)
(0,0,0)
(0,0,0)
(0,0,0)
(0,0,0)
(0,0,0)
(0,0,0)
(0,0,0)
(0,0,0)
(0,0,0)
(0,0,0)
(0,0,0)
(0,0,0)
(0,0,0)
(0,0,0)
(0,0,0)
(0,0,0)
(0,0,0)
(0,0,0)
(0,0,0)
(0,0,0)
(0,0,0)
(0,0,0)
(0,0,0)
(0,0,0)
(0,0,0)
(0,0,0)
(0,0,0)
(0,0,0)
(0,0,0)
(0,0,0)
(0,0,0)
(0,0,0)
(0,0,0)
(0,0,0)
(0,0,0)
(0,0,0)
(0,0,0)
(0,0,0)
(0,0,0)
(0,0,0)
(0,0,0)
(0,0,0)
(0,0,0)
(0,0,0)
(0,0,0)
(0,0,0)
(0,0,0)
(0,0,0)
(0,0,0)
(0,0,0)
(0,0,0)
(0,0,0)
(0,0,0)
(0,0,0)
(0,0,0)
(0,0,0)
(0,0,0)
(0,0,0)
(0,0,0)
(0,0,0)
(0,0,0)
(0,0,0)
(0,0,0)
(0,0,0)
(0,0,0)
(0,0,0)
(0,0,0)
(0,0,0)
(0,0,0)
(0,0,0)
(0,0,0)
(0,0,0)
(0,0,0)
(0,0,0)
(0,0,0)
(0,0,0)
(0,0,0)
(0,0,0)
(0,0,0)
(0,0,0)
(0,0,0)
(0,0,0)
(0,0,0)
(0,0,0)
(0,0,0)
(0,0,0)
(0,0,0)
(0,0,0)
(0,0,0)
(0,0,0)
(0,0,0)
(0,0,0)
(0,0,0)
(0,0,0)
(0,0,0)
(0,0,0)
(0,0,0)
(0,0,0)
(0,0,0)
(0,0,0)
(0,0,0)
(0,0,0)
(0,0,0)
(0,0,0)
(0,0,0)
(0,0,0)
(0,0,0)
(0,0,0)
(0,0,0)
(0,0,0)
(0,0,0)
(0,0,0)
(0,0,0)
(0,0,0)
(0,0,0)
(0,0,0)
(0,0,0)
(0,0,0)
(0,0,0)
(0,0,0)
(0,0,0)
(0,0,0)
(0,0,0)
(0,0,0)
(0,0,0)
(0,0,0)
(0,0,0)
(0,0,0)
(0,0,0)
(0,0,0)
(0,0,0)
(0,0,0)
(0,0,0)
(0,0,0)
(0,0,0)
(0,0,0)
(0,0,0)
(0,0,0)
(0,0,0)
(0,0,0)
(0,0,0)
(0,0,0)
(0,0,0)
(0,0,0)
(0,0,0)
(0,0,0)
(0,0,0)
(0,0,0)
(0,0,0)
(0,0,0)
(0,0,0)
(0,0,0)
(0,0,0)
(0,0,0)
(0,0,0)
(0,0,0)
(0,0,0)
(0,0,0)
(0,0,0)
(0,0,0)
(0,0,0)
(0,0,0)
(0,0,0)
(0,0,0)
(0,0,0)
(0,0,0)
(0,0,0)
(0,0,0)
(0,0,0)
(0,0,0)
(0,0,0)
(0,0,0)
(0,0,0)
(0,0,0)
(0,0,0)
(0,0,0)
(0,0,0)
(0,0,0)
(0,0,0)
(0,0,0)
(0,0,0)
(0,0,0)
(0,0,0)
(0,0,0)
(0,0,0)
(0,0,0)
(0,0,0)
(0,0,0)
(0,0,0)
(0,0,0)
(0,0,0)
(0,0,0)
(0,0,0)
(0,0,0)
(0,0,0)
(0,0,0)
(0,0,0)
(0,0,0)
(0,0,0)
(0,0,0)
(0,0,0)
(0,0,0)
(0,0,0)
(0,0,0)
(0,0,0)
(0,0,0)
(0,0,0)
(0,0,0)
(0,0,0)
(0,0,0)
(0,0,0)
(0,0,0)
(0,0,0)
(0,0,0)
(0,0,0)
(0,0,0)
(0,0,0)
(0,0,0)
(0,0,0)
(0,0,0)
(0,0,0)
(0,0,0)
(0,0,0)
(0,0,0)
(0,0,0)
(0,0,0)
(0,0,0)
(0,0,0)
(0,0,0)
(0,0,0)
(0,0,0)
(0,0,0)
(0,0,0)
(0,0,0)
(0,0,0)
(0,0,0)
(0,0,0)
(0,0,0)
(0,0,0)
(0,0,0)
(0,0,0)
(0,0,0)
(0,0,0)
(0,0,0)
(0,0,0)
(0,0,0)
(0,0,0)
(0,0,0)
(0,0,0)
(0,0,0)
(0,0,0)
(0,0,0)
(0,0,0)
(0,0,0)
(0,0,0)
(0,0,0)
(0,0,0)
(0,0,0)
(0,0,0)
(0,0,0)
(0,0,0)
(0,0,0)
(0,0,0)
(0,0,0)
(0,0,0)
(0,0,0)
(0,0,0)
(0,0,0)
(0,0,0)
(0,0,0)
(0,0,0)
(0,0,0)
(0,0,0)
(0,0,0)
(0,0,0)
(0,0,0)
(0,0,0)
(0,0,0)
(0,0,0)
(0,0,0)
(0,0,0)
(0,0,0)
(0,0,0)
(0,0,0)
(0,0,0)
(0,0,0)
(0,0,0)
(0,0,0)
(0,0,0)
(0,0,0)
(0,0,0)
(0,0,0)
(0,0,0)
(0,0,0)
(0,0,0)
(0,0,0)
(0,0,0)
(0,0,0)
(0,0,0)
(0,0,0)
(0,0,0)
(0,0,0)
(0,0,0)
(0,0,0)
(0,0,0)
(0,0,0)
(0,0,0)
(0,0,0)
(0,0,0)
(0,0,0)
(0,0,0)
(0,0,0)
(0,0,0)
(0,0,0)
(0,0,0)
(0,0,0)
(0,0,0)
(0,0,0)
(0,0,0)
(0,0,0)
(0,0,0)
(0,0,0)
(0,0,0)
(0,0,0)
(0,0,0)
(0,0,0)
(0,0,0)
(0,0,0)
(0,0,0)
(0,0,0)
(0,0,0)
(0,0,0)
(0,0,0)
(0,0,0)
(0,0,0)
(0,0,0)
(0,0,0)
(0,0,0)
(0,0,0)
(0,0,0)
(0,0,0)
(0,0,0)
(0,0,0)
(0,0,0)
(0,0,0)
(0,0,0)
(0,0,0)
(0,0,0)
(0,0,0)
(0,0,0)
(0,0,0)
(0,0,0)
(0,0,0)
(0,0,0)
(0,0,0)
(0,0,0)
(0,0,0)
(0,0,0)
(0,0,0)
(0,0,0)
(0,0,0)
(0,0,0)
(0,0,0)
(0,0,0)
(0,0,0)
(0,0,0)
(0,0,0)
(0,0,0)
(0,0,0)
(0,0,0)
(0,0,0)
(0,0,0)
(0,0,0)
(0,0,0)
(0,0,0)
(0,0,0)
(0,0,0)
(0,0,0)
(0,0,0)
(0,0,0)
(0,0,0)
(0,0,0)
(0,0,0)
(0,0,0)
(0,0,0)
(0,0,0)
(0,0,0)
(0,0,0)
(0,0,0)
(0,0,0)
(0,0,0)
(0,0,0)
(0,0,0)
(0,0,0)
(0,0,0)
(0,0,0)
(0,0,0)
(0,0,0)
(0,0,0)
(0,0,0)
(0,0,0)
(0,0,0)
(0,0,0)
(0,0,0)
(0,0,0)
(0,0,0)
(0,0,0)
(0,0,0)
(0,0,0)
(0,0,0)
(0,0,0)
(0,0,0)
(0,0,0)
(0,0,0)
(0,0,0)
(0,0,0)
(0,0,0)
(0,0,0)
(0,0,0)
(0,0,0)
(0,0,0)
(0,0,0)
(0,0,0)
(0,0,0)
(0,0,0)
(0,0,0)
(0,0,0)
(0,0,0)
(0,0,0)
(0,0,0)
(0,0,0)
(0,0,0)
(0,0,0)
(0,0,0)
(0,0,0)
(0,0,0)
(0,0,0)
(0,0,0)
(0,0,0)
(0,0,0)
(0,0,0)
(0,0,0)
(0,0,0)
(0,0,0)
(0,0,0)
(0,0,0)
(0,0,0)
(0,0,0)
(0,0,0)
(0,0,0)
(0,0,0)
(0,0,0)
(0,0,0)
(0,0,0)
(0,0,0)
(0,0,0)
(0,0,0)
(0,0,0)
(0,0,0)
(0,0,0)
(0,0,0)
(0,0,0)
(0,0,0)
(0,0,0)
(0,0,0)
(0,0,0)
(0,0,0)
(0,0,0)
(0,0,0)
(0,0,0)
(0,0,0)
(0,0,0)
(0,0,0)
(0,0,0)
(0,0,0)
(0,0,0)
(0,0,0)
(0,0,0)
(0,0,0)
(0,0,0)
(0,0,0)
(0,0,0)
(0,0,0)
(0,0,0)
(0,0,0)
(0,0,0)
(0,0,0)
(0,0,0)
(0,0,0)
(0,0,0)
(0,0,0)
(0,0,0)
(0,0,0)
(0,0,0)
(0,0,0)
(0,0,0)
(0,0,0)
(0,0,0)
(0,0,0)
(0,0,0)
(0,0,0)
(0,0,0)
(0,0,0)
(0,0,0)
(0,0,0)
(0,0,0)
(0,0,0)
(0,0,0)
(0,0,0)
(0,0,0)
(0,0,0)
(0,0,0)
(0,0,0)
(0,0,0)
(0,0,0)
(0,0,0)
(0,0,0)
(0,0,0)
(0,0,0)
(0,0,0)
(0,0,0)
(0,0,0)
(0,0,0)
(0,0,0)
(0,0,0)
(0,0,0)
(0,0,0)
(0,0,0)
(0,0,0)
(0,0,0)
(0,0,0)
(0,0,0)
(0,0,0)
(0,0,0)
(0,0,0)
(0,0,0)
(0,0,0)
(0,0,0)
(0,0,0)
(0,0,0)
(0,0,0)
(0,0,0)
(0,0,0)
(0,0,0)
(0,0,0)
(0,0,0)
(0,0,0)
(0,0,0)
(0,0,0)
(0,0,0)
(0,0,0)
(0,0,0)
(0,0,0)
(0,0,0)
(0,0,0)
(0,0,0)
(0,0,0)
(0,0,0)
(0,0,0)
(0,0,0)
(0,0,0)
(0,0,0)
(0,0,0)
(0,0,0)
(0,0,0)
(0,0,0)
(0,0,0)
(0,0,0)
(0,0,0)
(0,0,0)
(0,0,0)
(0,0,0)
(0,0,0)
(0,0,0)
(0,0,0)
(0,0,0)
(0,0,0)
(0,0,0)
(0,0,0)
(0,0,0)
(0,0,0)
(0,0,0)
(0,0,0)
(0,0,0)
(0,0,0)
(0,0,0)
(0,0,0)
(0,0,0)
(0,0,0)
(0,0,0)
(0,0,0)
(0,0,0)
(0,0,0)
(0,0,0)
(0,0,0)
(0,0,0)
(0,0,0)
(0,0,0)
(0,0,0)
(0,0,0)
(0,0,0)
(0,0,0)
(0,0,0)
(0,0,0)
(0,0,0)
(0,0,0)
(0,0,0)
(0,0,0)
(0,0,0)
(0,0,0)
(0,0,0)
(0,0,0)
(0,0,0)
(0,0,0)
(0,0,0)
(0,0,0)
(0,0,0)
(0,0,0)
(0,0,0)
(0,0,0)
(0,0,0)
(0,0,0)
(0,0,0)
(0,0,0)
(0,0,0)
(0,0,0)
(0,0,0)
(0,0,0)
(0,0,0)
(0,0,0)
(0,0,0)
(0,0,0)
(0,0,0)
(0,0,0)
(0,0,0)
(0,0,0)
(0,0,0)
(0,0,0)
(0,0,0)
(0,0,0)
(0,0,0)
(0,0,0)
(0,0,0)
(0,0,0)
(0,0,0)
(0,0,0)
(0,0,0)
(0,0,0)
(0,0,0)
(0,0,0)
(0,0,0)
(0,0,0)
(0,0,0)
(0,0,0)
(0,0,0)
(0,0,0)
(0,0,0)
(0,0,0)
(0,0,0)
(0,0,0)
(0,0,0)
(0,0,0)
(0,0,0)
(0,0,0)
(0,0,0)
(0,0,0)
(0,0,0)
(0,0,0)
(0,0,0)
(0,0,0)
(0,0,0)
(0,0,0)
(0,0,0)
(0,0,0)
(0,0,0)
(0,0,0)
(0,0,0)
(0,0,0)
(0,0,0)
(0,0,0)
(0,0,0)
(0,0,0)
(0,0,0)
(0,0,0)
(0,0,0)
(0,0,0)
(0,0,0)
(0,0,0)
(0,0,0)
(0,0,0)
(0,0,0)
(0,0,0)
(0,0,0)
(0,0,0)
(0,0,0)
(0,0,0)
(0,0,0)
(0,0,0)
(0,0,0)
(0,0,0)
(0,0,0)
(0,0,0)
(0,0,0)
(0,0,0)
(0,0,0)
(0,0,0)
(0,0,0)
(0,0,0)
(0,0,0)
(0,0,0)
(0,0,0)
(0,0,0)
(0,0,0)
(0,0,0)
(0,0,0)
(0,0,0)
(0,0,0)
(0,0,0)
(0,0,0)
(0,0,0)
(0,0,0)
(0,0,0)
(0,0,0)
(0,0,0)
(0,0,0)
(0,0,0)
(0,0,0)
(0,0,0)
(0,0,0)
(0,0,0)
(0,0,0)
(0,0,0)
(0,0,0)
(0,0,0)
(0,0,0)
(0,0,0)
(0,0,0)
(0,0,0)
(0,0,0)
(0,0,0)
(0,0,0)
(0,0,0)
(0,0,0)
(0,0,0)
(0,0,0)
(0,0,0)
(0,0,0)
(0,0,0)
(0,0,0)
(0,0,0)
(0,0,0)
(0,0,0)
(0,0,0)
(0,0,0)
(0,0,0)
(0,0,0)
(0,0,0)
(0,0,0)
(0,0,0)
(0,0,0)
(0,0,0)
(0,0,0)
(0,0,0)
(0,0,0)
(0,0,0)
(0,0,0)
(0,0,0)
(0,0,0)
(0,0,0)
(0,0,0)
(0,0,0)
(0,0,0)
(0,0,0)
(0,0,0)
(0,0,0)
(0,0,0)
(0,0,0)
(0,0,0)
(0,0,0)
(0,0,0)
(0,0,0)
(0,0,0)
(0,0,0)
(0,0,0)
(0,0,0)
(0,0,0)
(-199451.031579131,106063.228672294,93387.8029068359)
(-210896.978970563,101673.492573702,202611.289303695)
(-237409.18849546,92539.4721795386,347481.005619613)
(-287535.052837447,78246.2851454504,556769.77331162)
(-377984.18157089,58932.9219804538,875821.032902055)
(-540432.424262756,36713.5062683321,1379539.95089649)
(-834575.899074786,16580.4547270628,2197535.39524422)
(-1366145.07900191,4272.60142870157,3559407.87281745)
(-2253113.81744921,141.996858400245,5812379.69340821)
(-3139193.08160476,-256.139355911342,8951828.91436897)
(0,0,0)
(0,0,0)
(0,0,0)
(0,0,0)
(0,0,0)
(0,0,0)
(-210940.621117341,227984.700101554,89019.1496880794)
(-222491.792016921,219694.638261247,193489.796017456)
(-249417.860449892,202299.156215769,333147.972431114)
(-300724.063466176,174675.652120719,537442.66892202)
(-393689.630124263,136496.163680589,853569.057346147)
(-560052.846717031,91090.3230033739,1359245.08732813)
(-857446.799283659,48201.8025058984,2185070.53883295)
(-1387000.42073055,21082.471136342,3555261.0898558)
(-2267007.36539504,10375.6054723535,5812034.84663695)
(-3145690.65245065,5296.21287298349,8952173.14685861)
(0,0,0)
(0,0,0)
(0,0,0)
(0,0,0)
(0,0,0)
(0,0,0)
(-237154.512640689,384362.936983242,80776.2757590017)
(-248928.154381484,373265.029950347,176134.03845139)
(-276726.305278587,349690.675662181,305468.824283571)
(-330610.953563459,311526.479505431,499228.950462317)
(-429535.491969398,257155.045379314,808105.560732977)
(-606222.618545282,189204.954087363,1316213.54819428)
(-913823.716943769,120455.88030122,2157783.18734274)
(-1438898.25965746,73279.723258794,3544484.19487769)
(-2300444.12901816,48335.9288208137,5806968.00054744)
(-3160858.07709436,26195.2809515767,8946927.00956325)
(0,0,0)
(0,0,0)
(0,0,0)
(0,0,0)
(0,0,0)
(0,0,0)
(-286083.211993233,600771.816515655,69674.3324608203)
(-298064.086648433,588398.543210447,152604.905849155)
(-326953.710181266,561958.656562708,267290.635129885)
(-384562.81936107,518589.518338537,444790.415657842)
(-493320.508651976,455180.273568451,740085.696120695)
(-689823.939907158,371773.826502996,1247340.76361221)
(-1021833.40928197,279193.877988865,2110436.17520652)
(-1539349.45066968,203635.055548817,3519430.29358616)
(-2361742.08165696,144727.0007734,5784781.30329047)
(-3187611.02420528,77874.2556597228,8920713.35278781)
(0,0,0)
(0,0,0)
(0,0,0)
(0,0,0)
(0,0,0)
(0,0,0)
(-373785.345688131,917249.575765327,57307.5864384525)
(-385728.952771658,905185.956418702,126249.126001853)
(-415210.47517963,879468.847361297,223949.410382893)
(-475951.397480183,837197.986615623,381292.339585991)
(-594851.108763614,774686.791013637,656636.930904416)
(-815901.743326537,689652.867687188,1154659.63304674)
(-1186362.23282516,585485.080774905,2034730.66308587)
(-1692339.59625619,470288.193275699,3460417.12161521)
(-2450824.75944728,338084.355668444,5717884.52616756)
(-3226260.21998969,179217.397870668,8842801.6039463)
(0,0,0)
(0,0,0)
(0,0,0)
(0,0,0)
(0,0,0)
(0,0,0)
(-532153.162032885,1404074.2937498,45328.4440484151)
(-543513.896731355,1393356.35294636,100671.944252108)
(-572049.479796645,1370450.03661406,181740.234795995)
(-632216.076067957,1332411.71623687,318742.581242701)
(-752392.135624217,1274234.8615892,571586.646291367)
(-977672.915366705,1188500.1840243,1050412.24532097)
(-1349304.72763606,1065735.04160776,1919467.01212417)
(-1832320.23809066,893942.475105524,3328132.96838503)
(-2547322.57533563,654572.170149735,5558967.72923941)
(-3274871.26699337,349459.765631423,8663596.62847199)
(0,0,0)
(0,0,0)
(0,0,0)
(0,0,0)
(0,0,0)
(0,0,0)
(-822980.750353476,2192377.49544997,34677.5486533037)
(-833022.420297275,2183145.95552821,77910.3663687362)
(-858640.967888565,2163213.18448268,143788.186388685)
(-913615.224011412,2129277.23030972,260537.896327241)
(-1025254.17438893,2074213.87629483,485813.056010532)
(-1236948.69248146,1983675.73920185,927586.193314453)
(-1585731.66328321,1831345.4880138,1747707.41019164)
(-2024950.21983026,1577797.12538528,3088802.97974214)
(-2691056.87298202,1180517.35731667,5253914.66555719)
(-3354142.99314659,643230.59299487,8314286.83134043)
(0,0,0)
(0,0,0)
(0,0,0)
(0,0,0)
(0,0,0)
(0,0,0)
(-1354842.24395098,3521728.7231544,25491.0162465474)
(-1362870.44880599,3513387.18558263,58120.2349981243)
(-1383516.97299268,3494922.72770135,109927.664772154)
(-1428231.18815723,3461979.82593502,205456.257304066)
(-1519997.1558394,3404389.72618812,395277.563250189)
(-1695988.34248225,3299628.78581606,775312.859118202)
(-1988089.6406637,3100382.03274012,1494365.95505554)
(-2343653.71268201,2724035.63153807,2691781.16158478)
(-2951964.31553392,2107383.17415659,4716879.66027877)
(-3505732.66302436,1194488.6568441,7671354.25945385)
(0,0,0)
(0,0,0)
(0,0,0)
(0,0,0)
(0,0,0)
(0,0,0)
(-2245442.0114313,5750022.05404409,17148.6805415987)
(-2250920.77891688,5741730.24567737,39726.3993637363)
(-2264937.38243863,5722606.84483988,76979.6646637813)
(-2295007.93732453,5686150.556873,147816.871050309)
(-2355631.41701099,5617293.12307206,290544.891177374)
(-2469505.09231105,5483416.85551107,576261.913793444)
(-2660720.44754341,5219042.64631349,1118321.74776349)
(-2944741.51542632,4711627.11814567,2075471.77658223)
(-3433167.43650738,3811635.21615856,3804387.17108753)
(-3770140.82877815,2291719.40510948,6477297.25160032)
(0,0,0)
(0,0,0)
(0,0,0)
(0,0,0)
(0,0,0)
(0,0,0)
(-3135684.99140899,8877006.96892808,8700.07652499002)
(-3138433.06820516,8868411.24250548,20452.1479020157)
(-3145390.60402513,8848074.93861988,40374.6581471652)
(-3160151.56816153,8807815.45412778,78861.3290539799)
(-3189495.36961942,8728996.20024324,156653.621502225)
(-3244324.72177428,8572285.00110639,312110.197681125)
(-3340023.63821997,8259902.38387995,611274.098334611)
(-3501227.383095,7648226.85933316,1175901.74024209)
(-3769262.11501755,6471874.21590729,2284924.85551084)
(-3795976.57809961,4186531.59044337,4186089.2482766)
(0,0,0)
(0,0,0)
(0,0,0)
(0,0,0)
(0,0,0)
(0,0,0)
(0,0,0)
(0,0,0)
(0,0,0)
(0,0,0)
(0,0,0)
(0,0,0)
(0,0,0)
(0,0,0)
(0,0,0)
(0,0,0)
(0,0,0)
(0,0,0)
(0,0,0)
(0,0,0)
(0,0,0)
(0,0,0)
(0,0,0)
(0,0,0)
(0,0,0)
(0,0,0)
(0,0,0)
(0,0,0)
(0,0,0)
(0,0,0)
(0,0,0)
(0,0,0)
(0,0,0)
(0,0,0)
(0,0,0)
(0,0,0)
(0,0,0)
(0,0,0)
(0,0,0)
(0,0,0)
(0,0,0)
(0,0,0)
(0,0,0)
(0,0,0)
(0,0,0)
(0,0,0)
(0,0,0)
(0,0,0)
(0,0,0)
(0,0,0)
(0,0,0)
(0,0,0)
(0,0,0)
(0,0,0)
(0,0,0)
(0,0,0)
(0,0,0)
(0,0,0)
(0,0,0)
(0,0,0)
(0,0,0)
(0,0,0)
(0,0,0)
(0,0,0)
(0,0,0)
(0,0,0)
(0,0,0)
(0,0,0)
(0,0,0)
(0,0,0)
(0,0,0)
(0,0,0)
(0,0,0)
(0,0,0)
(0,0,0)
(0,0,0)
(0,0,0)
(0,0,0)
(0,0,0)
(0,0,0)
(0,0,0)
(0,0,0)
(0,0,0)
(0,0,0)
(0,0,0)
(0,0,0)
(0,0,0)
(0,0,0)
(0,0,0)
(0,0,0)
(0,0,0)
(0,0,0)
(0,0,0)
(0,0,0)
(0,0,0)
(0,0,0)
(0,0,0)
(0,0,0)
(0,0,0)
(0,0,0)
(0,0,0)
(0,0,0)
(29439224.2808249,94491.759006081,81901.9063804093)
(29420049.6927776,90017.8520144037,176006.360408482)
(29375964.9557532,80474.615964336,297226.57798595)
(29293562.4917577,65024.117496904,466173.893684331)
(29146764.4834506,43211.6470175222,713282.559435732)
(28885532.3901449,17115.6573363199,1085271.06548214)
(28406238.4560812,-6267.72593620129,1665793.41405266)
(27459079.6546298,-16573.6221164833,2672211.2803279)
(25321926.889042,-13758.6504250281,4925998.20205223)
(19517952.7829068,-6735.60497524262,12090656.9203065)
(0,0,0)
(0,0,0)
(0,0,0)
(0,0,0)
(0,0,0)
(0,0,0)
(29419634.0172316,201583.607655254,77402.4907924176)
(29400442.5048012,193115.12750558,166439.89627363)
(29355971.4274406,174903.416214845,281690.785923175)
(29271995.6968305,144750.116071432,444314.004842458)
(29121154.4722776,100635.977946873,687114.549301813)
(28852571.0117987,44930.5553865682,1061744.77052631)
(28365932.2961102,-8198.26984389639,1655365.19683077)
(27422703.5825354,-30866.1938117441,2675022.74305054)
(25299334.7657814,-23072.730183074,4933063.66942248)
(19508060.0469281,-9827.36129917509,12097473.704158)
(0,0,0)
(0,0,0)
(0,0,0)
(0,0,0)
(0,0,0)
(0,0,0)
(29375303.9600762,335243.506023948,68950.6067048258)
(29356028.2802442,323952.443312076,148225.834063138)
(29310665.8025514,299354.291713608,251451.828524944)
(29222986.4164706,257513.594464735,400159.957888185)
(29061661.6551279,193335.46612869,631332.300399559)
(28771040.9548504,105583.990129425,1008484.27005157)
(28256553.1692154,12419.6030568001,1632558.4887822)
(27322318.2489409,-27202.7554946033,2682747.5196573)
(25240939.9216672,-12947.2818010916,4946306.99838024)
(19483820.9451385,-503.19684870358,12107372.7894874)
(0,0,0)
(0,0,0)
(0,0,0)
(0,0,0)
(0,0,0)
(0,0,0)
(29293751.7060498,512817.187646393,57660.3781249357)
(29274484.2866362,500489.996550331,123643.429392516)
(29227994.6176626,473542.861238078,209575.509814631)
(29134551.7380197,427117.137187422,335926.387501695)
(28953936.2341805,353565.148185905,543508.940402539)
(28613503.2621298,245631.369612579,915203.336672902)
(28013418.12927,114647.503186082,1592792.87578219)
(27093761.5040516,50650.7084553414,2696897.43490153)
(25122932.521213,55653.7720966582,4958690.75592416)
(19438494.4716669,39246.3006258135,12107904.7403682)
(0,0,0)
(0,0,0)
(0,0,0)
(0,0,0)
(0,0,0)
(0,0,0)
(29150104.2876492,758635.945331896,45360.586767633)
(29131275.6749325,747176.020015762,96738.9133885268)
(29084526.9126715,722484.37192835,163128.992637814)
(28986177.3680889,680871.186140878,262315.155905676)
(28783501.6654047,617075.148228292,435521.359485643)
(28368381.3446695,527832.094972939,784106.523919855)
(27576281.2472567,422516.481603554,1528663.04321103)
(26669939.240434,330288.229999902,2701815.66276689)
(24937943.8241859,241553.201003012,4942216.62801772)
(19371073.4134722,130577.39934427,12068620.8736277)
(0,0,0)
(0,0,0)
(0,0,0)
(0,0,0)
(0,0,0)
(0,0,0)
(28894459.8099079,1113095.31092093,33996.6402606098)
(28876900.5796449,1103676.35160152,72150.8100890699)
(28832357.4346523,1083745.1285606,121552.116798445)
(28735776.0382755,1050948.54665429,198551.619732229)
(28530720.2246065,1001278.47257976,346304.912940537)
(28103660.9091694,929119.56380349,678752.597364317)
(27301448.4510928,829192.165623386,1436392.71240621)
(26435174.3899205,701216.943649861,2613038.34853555)
(24780424.9290354,510733.802391054,4831179.22056703)
(19293814.8686385,270104.417218342,11938035.0448515)
(0,0,0)
(0,0,0)
(0,0,0)
(0,0,0)
(0,0,0)
(0,0,0)
(28420180.2767946,1660357.76303447,24645.4985288971)
(28404903.0315361,1653145.13349816,52320.2425893976)
(28365433.0598019,1638244.08683764,88816.2344124986)
(28277738.9811961,1614583.08312957,148896.470520143)
(28086510.0378541,1579349.24607062,274130.462576746)
(27678099.5134722,1524490.11486748,578780.683349555)
(26899973.3248564,1428861.40930344,1308475.42932029)
(26118170.731282,1259012.61882511,2422627.7808233)
(24547235.2185692,919526.75459217,4590611.71486129)
(19162033.4175819,491562.313981339,11668046.3851603)
(0,0,0)
(0,0,0)
(0,0,0)
(0,0,0)
(0,0,0)
(0,0,0)
(27472180.4624916,2630948.30976056,17455.7246218513)
(27460135.9392049,2625172.00610606,37491.4417934825)
(27428713.2008476,2613365.16918873,65209.1633926513)
(27357864.3994358,2595065.76091454,113699.875805117)
(27200270.8493037,2568550.20381572,219299.890707312)
(26853801.7870579,2525866.63015745,483202.223667844)
(26172664.4518505,2427562.86024065,1138815.65800697)
(25663052.1333001,2122805.87759925,2083385.53104105)
(24077055.4908386,1626063.43245416,4162898.02459698)
(18857054.1891121,930008.324621298,11176734.1396111)
(0,0,0)
(0,0,0)
(0,0,0)
(0,0,0)
(0,0,0)
(0,0,0)
(25329490.6339988,4859447.17147712,11637.4706438661)
(25321376.7856313,4853905.77828876,25675.1117034888)
(25300413.6197974,4841868.41671944,46889.8397272203)
(25254073.323333,4820727.65877288,87215.6590017664)
(25155442.5251593,4783083.41201033,176677.486427326)
(24954837.9212583,4708214.90736963,385055.173436405)
(24593266.1694469,4539392.10353974,834308.290937558)
(24085649.652196,4154837.15795742,1586954.82074764)
(22652418.3017641,3475301.1470312,3467200.34568966)
(17929291.7096916,2265748.30488211,10247096.8047496)
(0,0,0)
(0,0,0)
(0,0,0)
(0,0,0)
(0,0,0)
(0,0,0)
(19520691.408283,12012196.9952965,5942.75427913919)
(19516667.2553843,12006353.5087672,13463.6780015975)
(19506394.1032835,11993024.5905342,25591.7746686702)
(19484142.9006404,11967564.6459602,49529.2964700618)
(19438314.8314243,11918043.3694806,101828.115746631)
(19348195.0275374,11816153.868284,216438.383311082)
(19181323.7988219,11599481.2120626,450070.815536831)
(18861869.271903,11149061.3357211,907818.960565839)
(17930033.8252027,10240811.9665454,2258081.17862194)
(14578760.6298833,7982309.93333615,7981851.31997547)
(0,0,0)
(0,0,0)
(0,0,0)
(0,0,0)
(0,0,0)
(0,0,0)
(0,0,0)
(0,0,0)
(0,0,0)
(0,0,0)
(0,0,0)
(0,0,0)
(0,0,0)
(0,0,0)
(0,0,0)
(0,0,0)
(0,0,0)
(0,0,0)
(0,0,0)
(0,0,0)
(0,0,0)
(0,0,0)
(0,0,0)
(0,0,0)
(0,0,0)
(0,0,0)
(0,0,0)
(0,0,0)
(0,0,0)
(0,0,0)
(0,0,0)
(0,0,0)
(0,0,0)
(0,0,0)
(0,0,0)
(0,0,0)
(0,0,0)
(0,0,0)
(0,0,0)
(0,0,0)
(0,0,0)
(0,0,0)
(0,0,0)
(0,0,0)
(0,0,0)
(0,0,0)
(0,0,0)
(0,0,0)
(0,0,0)
(0,0,0)
(0,0,0)
(0,0,0)
(0,0,0)
(0,0,0)
(0,0,0)
(0,0,0)
(0,0,0)
(0,0,0)
(0,0,0)
(0,0,0)
(0,0,0)
(0,0,0)
(0,0,0)
(0,0,0)
(0,0,0)
(0,0,0)
(0,0,0)
(0,0,0)
(0,0,0)
(0,0,0)
(0,0,0)
(0,0,0)
(0,0,0)
(0,0,0)
(0,0,0)
(0,0,0)
(0,0,0)
(0,0,0)
(0,0,0)
(0,0,0)
(0,0,0)
(0,0,0)
(0,0,0)
(0,0,0)
(0,0,0)
(0,0,0)
(0,0,0)
(0,0,0)
(0,0,0)
(0,0,0)
(0,0,0)
(0,0,0)
(0,0,0)
(0,0,0)
(0,0,0)
(0,0,0)
(0,0,0)
(0,0,0)
(0,0,0)
(0,0,0)
(0,0,0)
(0,0,0)
(-513349.071635231,74872.1242555525,62632.2504140572)
(-534514.332214723,70355.1956468697,131772.101968868)
(-582370.908026137,60422.2571068853,214616.730850859)
(-669478.16855122,43433.3818631127,319155.031506229)
(-818643.731796358,17614.4012349948,451879.867727788)
(-1067623.70621889,-15808.6610075865,605775.647308765)
(-1474870.52239687,-46551.3223792507,718366.970375746)
(-2119370.17870568,-52946.8872455101,534694.713166266)
(-3043468.1659494,-36368.7020142711,-878610.507618562)
(-3730640.50695175,-16630.2786817732,-7428455.91686871)
(0,0,0)
(0,0,0)
(0,0,0)
(0,0,0)
(0,0,0)
(0,0,0)
(-535757.29365301,157091.554602495,58102.9027471332)
(-556540.789241909,148566.585303968,121805.829342633)
(-603908.715969889,129517.059546301,197522.19252316)
(-691109.456830467,95713.8129098692,293277.937346887)
(-842558.833459641,41148.2103196289,418388.456208942)
(-1098297.52952591,-36571.9191257872,574951.277861273)
(-1515086.74971774,-117576.594311328,711926.617830689)
(-2153387.25803698,-131284.986522095,551286.579889166)
(-3060518.04848691,-81474.793599412,-858823.492047698)
(-3736666.53694775,-34045.341160459,-7411750.82348354)
(0,0,0)
(0,0,0)
(0,0,0)
(0,0,0)
(0,0,0)
(0,0,0)
(-585739.724907507,253487.66024424,49578.6015515534)
(-605841.440678866,242228.600517836,102717.329470255)
(-652362.077271031,216571.310162521,163621.980885908)
(-740423.565050845,169010.14557866,238666.651947971)
(-899731.164703497,85564.1010490771,340574.603259422)
(-1181850.64039864,-51969.4954725889,493794.797064712)
(-1649654.74604084,-230725.435353079,698082.575572215)
(-2271182.38002595,-255789.702818493,601018.943044874)
(-3112213.8162874,-130978.799705185,-811392.290685041)
(-3753241.77664755,-45834.0391310941,-7377609.8487189)
(0,0,0)
(0,0,0)
(0,0,0)
(0,0,0)
(0,0,0)
(0,0,0)
(-675073.824734055,368917.210578014,38327.0026596616)
(-694123.501576976,357030.865608013,77063.5479921912)
(-739350.413536902,329885.678753829,116025.23280993)
(-829253.002124907,278595.659456445,155175.481286229)
(-1006349.74777749,182998.538880688,202958.047622086)
(-1365895.25191384,423.076633454869,314895.011769228)
(-2067847.61244251,-322511.141916927,672877.482255038)
(-2656788.37874502,-373173.842566261,725742.527008876)
(-3241736.16007746,-129351.286152083,-726285.283044122)
(-3788788.0560141,-28185.199790934,-7331720.57249394)
(0,0,0)
(0,0,0)
(0,0,0)
(0,0,0)
(0,0,0)
(0,0,0)
(-825250.886801068,502700.577620813,26502.8296170001)
(-842734.406218898,492520.359051145,49954.4395347825)
(-885472.118382546,470070.767930963,64699.4036209988)
(-975409.109311638,430284.034054198,59528.5286333834)
(-1173511.80707649,364160.456041377,20311.1061632192)
(-1680850.29654921,263044.686828664,-8147.84060387779)
(-3339279.90663933,147707.095444843,622126.098139831)
(-3961278.23909532,95569.263336844,969531.49397548)
(-3495838.83913827,84047.4269695093,-625153.533612332)
(-3847089.86599449,53295.7979408752,-7303540.22966785)
(0,0,0)
(0,0,0)
(0,0,0)
(0,0,0)
(0,0,0)
(0,0,0)
(-1072861.50245269,638513.94980931,16438.9623816656)
(-1088178.49402463,631362.0460215,27607.3712903736)
(-1126502.24531315,616529.568157599,24939.2732386064)
(-1210173.26965841,592674.007127107,-6570.36969104012)
(-1402837.87627351,556873.621738967,-80794.4122991098)
(-1909036.04375851,503403.998368475,-123525.748701438)
(-3487015.92632872,427643.130646724,569933.615727589)
(-4056596.06644019,384180.826376667,958023.531257921)
(-3614151.94144236,277500.336101829,-655921.485187268)
(-3905307.70115854,138259.327665969,-7356831.4229057)
(0,0,0)
(0,0,0)
(0,0,0)
(0,0,0)
(0,0,0)
(0,0,0)
(-1477774.07869429,712035.368967775,9363.95853989514)
(-1490370.34305562,708061.48575513,12868.9156074753)
(-1522606.00584143,701219.910066932,1148.66155085476)
(-1595582.24624188,694412.713315031,-42337.7949895167)
(-1772571.33598556,692822.672947878,-134274.450149245)
(-2268417.96309504,699929.160322602,-199351.113326583)
(-3914773.24698888,701363.95453854,526605.656836498)
(-4441391.64792286,803778.023342311,851501.861285244)
(-3793052.72319409,449257.205662877,-795036.044302814)
(-4001337.57390071,186504.261821996,-7494978.96476678)
(0,0,0)
(0,0,0)
(0,0,0)
(0,0,0)
(0,0,0)
(0,0,0)
(-2124106.45308074,487866.194109006,5387.11264059672)
(-2133592.66474079,486041.934443557,6066.29010743544)
(-2158180.65770253,484702.61874185,-5591.5378078975)
(-2215434.56866293,490900.724473053,-43849.558657666)
(-2361971.10387063,523299.222235532,-127153.132561382)
(-2817015.27183151,626472.892711884,-197948.783851881)
(-4615934.74356281,847799.003089666,629146.385219767)
(-3761385.04051143,545098.343958311,497194.260624869)
(-3935185.82572509,201170.128831369,-1057546.32377028)
(-4149868.45288014,2080.23736841518,-7681268.6351149)
(0,0,0)
(0,0,0)
(0,0,0)
(0,0,0)
(0,0,0)
(0,0,0)
(-3051216.95892568,-949986.624285604,3491.43352855863)
(-3057392.1055063,-951432.66095842,4665.94227765391)
(-3073116.10656239,-952765.074942704,594.384531539031)
(-3108320.84992485,-949826.444667516,-11353.2508604607)
(-3189051.24213467,-934722.987734086,-23906.2513873478)
(-3382040.71496671,-899121.31350827,23497.6132671832)
(-3803941.49253953,-873206.531737524,326641.832290304)
(-3941681.84701339,-1069546.36541454,153549.063081958)
(-4304017.5573647,-1247591.10033975,-1256322.82640862)
(-4371863.91933085,-1085108.24365109,-7683047.69415722)
(0,0,0)
(0,0,0)
(0,0,0)
(0,0,0)
(0,0,0)
(0,0,0)
(-3736600.97109215,-7509674.42533871,1911.202637738)
(-3739596.12039803,-7511487.81165986,3160.75133095048)
(-3747116.40039588,-7514525.73967498,3362.94195218484)
(-3763385.95583961,-7517722.12338255,3718.49935663122)
(-3798045.98679703,-7521417.22920999,11704.5812633889)
(-3870723.40832634,-7533152.81721345,49585.5430417367)
(-4005013.11603135,-7582924.57228906,130571.520656034)
(-4154252.31089873,-7713810.08187974,-24112.1578677513)
(-4373159.19068461,-7690140.59462238,-1093438.62548838)
(-4220187.29469021,-6597137.59344479,-6597530.32891174)
(0,0,0)
(0,0,0)
(0,0,0)
(0,0,0)
(0,0,0)
(0,0,0)
(0,0,0)
(0,0,0)
(0,0,0)
(0,0,0)
(0,0,0)
(0,0,0)
(0,0,0)
(0,0,0)
(0,0,0)
(0,0,0)
(0,0,0)
(0,0,0)
(0,0,0)
(0,0,0)
(0,0,0)
(0,0,0)
(0,0,0)
(0,0,0)
(0,0,0)
(0,0,0)
(0,0,0)
(0,0,0)
(0,0,0)
(0,0,0)
(0,0,0)
(0,0,0)
(0,0,0)
(0,0,0)
(0,0,0)
(0,0,0)
(0,0,0)
(0,0,0)
(0,0,0)
(0,0,0)
(0,0,0)
(0,0,0)
(0,0,0)
(0,0,0)
(0,0,0)
(0,0,0)
(0,0,0)
(0,0,0)
(0,0,0)
(0,0,0)
(0,0,0)
(0,0,0)
(0,0,0)
(0,0,0)
(0,0,0)
(0,0,0)
(0,0,0)
(0,0,0)
(0,0,0)
(0,0,0)
(0,0,0)
(0,0,0)
(0,0,0)
(0,0,0)
(0,0,0)
(0,0,0)
(0,0,0)
(0,0,0)
(0,0,0)
(0,0,0)
(0,0,0)
(0,0,0)
(0,0,0)
(0,0,0)
(0,0,0)
(0,0,0)
(0,0,0)
(0,0,0)
(0,0,0)
(0,0,0)
(0,0,0)
(0,0,0)
(0,0,0)
(0,0,0)
(0,0,0)
(0,0,0)
(0,0,0)
(0,0,0)
(0,0,0)
(0,0,0)
(0,0,0)
(0,0,0)
(0,0,0)
(0,0,0)
(0,0,0)
(0,0,0)
(0,0,0)
(0,0,0)
(0,0,0)
(0,0,0)
(0,0,0)
(0,0,0)
(-607217.368940571,52435.4220051575,41432.8753001833)
(-625172.161289284,48270.4885668219,83820.215807926)
(-664687.747461067,38830.3003303632,127306.754912494)
(-733727.318078082,21767.694128235,169788.210311119)
(-845264.322684207,-6302.74406323826,202711.545262207)
(-1016754.60556174,-46503.3754698311,198345.820074892)
(-1263314.78445908,-86810.989468482,73601.0716055877)
(-1569004.52123028,-86988.8707209591,-389775.715148858)
(-1813480.1230596,-53437.7778197752,-1566325.98021885)
(-1575764.98992477,-22664.6049241222,-3698536.89232169)
(0,0,0)
(0,0,0)
(0,0,0)
(0,0,0)
(0,0,0)
(0,0,0)
(-627551.450080995,106978.749738677,37250.8286944638)
(-644492.620295796,99148.9824422315,74324.1658729445)
(-681839.587946071,80970.3969160378,110114.941263456)
(-747196.78057487,46336.3090452941,141633.650090793)
(-853632.888203814,-16055.137522568,162460.098294291)
(-1020180.31412971,-120154.036681766,157993.544110025)
(-1265144.47176751,-252185.349807103,73425.6264984151)
(-1561596.94112349,-249138.994788467,-356214.56634757)
(-1801446.30290113,-133218.807945867,-1535505.28180724)
(-1568356.57386042,-50660.8432715505,-3675819.00654723)
(0,0,0)
(0,0,0)
(0,0,0)
(0,0,0)
(0,0,0)
(0,0,0)
(-672084.685105833,163911.752334842,29411.9576021638)
(-687096.978017214,153718.329965088,56098.1474176535)
(-720092.665743242,129403.69037751,75395.4424283898)
(-777922.349505428,80042.5004553409,79188.0354729238)
(-873726.033787734,-21166.3673599935,58294.134394585)
(-1033477.64027201,-236068.627260274,25835.7248464428)
(-1303427.3928883,-648946.575705935,76369.5975927255)
(-1562119.8078732,-641463.308363973,-240368.660984535)
(-1772285.4664467,-260574.972972519,-1452940.84579859)
(-1550309.82320463,-81442.5777854763,-3625091.0647276)
(0,0,0)
(0,0,0)
(0,0,0)
(0,0,0)
(0,0,0)
(0,0,0)
(-748886.76154388,218498.875001574,19225.8141431019)
(-761154.726483405,208190.04230468,31785.3267099454)
(-787757.525856879,183568.887983641,26027.241423795)
(-833384.929017779,132241.621325402,-22039.9525533932)
(-908492.819417254,15631.5342921142,-156694.782565738)
(-1056813.98577876,-314640.90833319,-387203.767627903)
(-1593791.73314767,-1593946.53458233,83740.3119536544)
(-1677265.40508493,-1677685.62907594,140439.659005524)
(-1704531.11660638,-383486.25219999,-1273854.10523809)
(-1513926.22796058,-86515.7714961679,-3543642.739581)
(0,0,0)
(0,0,0)
(0,0,0)
(0,0,0)
(0,0,0)
(0,0,0)
(-870503.632626253,254780.283280042,8971.33754671629)
(-879550.362218783,246792.387349219,7184.94850206358)
(-898172.064438151,228771.29329961,-25317.5107582913)
(-925054.263744997,195248.02578813,-138678.760787658)
(-944087.310421311,134611.903478367,-487083.626629091)
(-850678.774633203,34755.9192107773,-1666651.97608907)
(-5.22446950319699e-05,-1.41934344900833e-05,3.42651561403097e-05)