/*--------------------------------*- C++ -*----------------------------------*\
| =========                 |                                                 |
| \\      /  F ield         | foam-extend: Open Source CFD                    |
|  \\    /   O peration     | Version:     4.0                                |
|   \\  /    A nd           | Web:         http://www.foam-extend.org         |
|    \\/     M anipulation  |                                                 |
\*---------------------------------------------------------------------------*/
FoamFile
{
    version 2.0;
    format ascii;
    class volVectorField;
    location "1396";
    object      E;
}
// * * * * * * * * * * * * * * * * * * * * * * * * * * * * * * * * * * * * * //

dimensions      [0 1 -1 0 0 0 0];

internalField   nonuniform List<vector>
4096
(
(0,0,0)
(0,0,0)
(0,0,0)
(0,0,0)
(0,0,0)
(0,0,0)
(0,0,0)
(0,0,0)
(0,0,0)
(0,0,0)
(0,0,0)
(0,0,0)
(0,0,0)
(0,0,0)
(0,0,0)
(0,0,0)
(0,0,0)
(0,0,0)
(0,0,0)
(0,0,0)
(0,0,0)
(0,0,0)
(0,0,0)
(0,0,0)
(0,0,0)
(0,0,0)
(0,0,0)
(0,0,0)
(0,0,0)
(0,0,0)
(0,0,0)
(0,0,0)
(0,0,0)
(0,0,0)
(0,0,0)
(0,0,0)
(0,0,0)
(0,0,0)
(0,0,0)
(0,0,0)
(0,0,0)
(0,0,0)
(0,0,0)
(0,0,0)
(0,0,0)
(0,0,0)
(0,0,0)
(0,0,0)
(0,0,0)
(0,0,0)
(0,0,0)
(0,0,0)
(0,0,0)
(0,0,0)
(0,0,0)
(0,0,0)
(0,0,0)
(0,0,0)
(0,0,0)
(0,0,0)
(0,0,0)
(0,0,0)
(0,0,0)
(0,0,0)
(0,0,0)
(0,0,0)
(0,0,0)
(0,0,0)
(0,0,0)
(0,0,0)
(0,0,0)
(0,0,0)
(0,0,0)
(0,0,0)
(0,0,0)
(0,0,0)
(0,0,0)
(0,0,0)
(0,0,0)
(0,0,0)
(0,0,0)
(0,0,0)
(0,0,0)
(0,0,0)
(0,0,0)
(0,0,0)
(0,0,0)
(0,0,0)
(0,0,0)
(0,0,0)
(0,0,0)
(0,0,0)
(0,0,0)
(0,0,0)
(0,0,0)
(0,0,0)
(0,0,0)
(0,0,0)
(0,0,0)
(0,0,0)
(0,0,0)
(0,0,0)
(0,0,0)
(0,0,0)
(0,0,0)
(0,0,0)
(0,0,0)
(0,0,0)
(0,0,0)
(0,0,0)
(0,0,0)
(0,0,0)
(0,0,0)
(0,0,0)
(0,0,0)
(0,0,0)
(0,0,0)
(0,0,0)
(0,0,0)
(0,0,0)
(0,0,0)
(0,0,0)
(0,0,0)
(0,0,0)
(0,0,0)
(0,0,0)
(0,0,0)
(0,0,0)
(0,0,0)
(0,0,0)
(0,0,0)
(0,0,0)
(0,0,0)
(0,0,0)
(0,0,0)
(0,0,0)
(0,0,0)
(0,0,0)
(0,0,0)
(0,0,0)
(0,0,0)
(0,0,0)
(0,0,0)
(0,0,0)
(0,0,0)
(0,0,0)
(0,0,0)
(0,0,0)
(0,0,0)
(0,0,0)
(0,0,0)
(0,0,0)
(0,0,0)
(0,0,0)
(0,0,0)
(0,0,0)
(0,0,0)
(0,0,0)
(0,0,0)
(0,0,0)
(0,0,0)
(0,0,0)
(0,0,0)
(0,0,0)
(0,0,0)
(0,0,0)
(0,0,0)
(0,0,0)
(0,0,0)
(0,0,0)
(0,0,0)
(0,0,0)
(0,0,0)
(0,0,0)
(0,0,0)
(0,0,0)
(0,0,0)
(0,0,0)
(0,0,0)
(0,0,0)
(0,0,0)
(0,0,0)
(0,0,0)
(0,0,0)
(0,0,0)
(0,0,0)
(0,0,0)
(0,0,0)
(0,0,0)
(0,0,0)
(0,0,0)
(0,0,0)
(0,0,0)
(0,0,0)
(0,0,0)
(0,0,0)
(0,0,0)
(0,0,0)
(0,0,0)
(0,0,0)
(0,0,0)
(0,0,0)
(0,0,0)
(0,0,0)
(0,0,0)
(0,0,0)
(0,0,0)
(0,0,0)
(0,0,0)
(0,0,0)
(0,0,0)
(0,0,0)
(0,0,0)
(0,0,0)
(0,0,0)
(0,0,0)
(0,0,0)
(0,0,0)
(0,0,0)
(0,0,0)
(0,0,0)
(0,0,0)
(0,0,0)
(0,0,0)
(0,0,0)
(0,0,0)
(0,0,0)
(0,0,0)
(0,0,0)
(0,0,0)
(0,0,0)
(0,0,0)
(0,0,0)
(0,0,0)
(0,0,0)
(0,0,0)
(0,0,0)
(0,0,0)
(0,0,0)
(0,0,0)
(0,0,0)
(0,0,0)
(0,0,0)
(0,0,0)
(0,0,0)
(0,0,0)
(0,0,0)
(0,0,0)
(0,0,0)
(0,0,0)
(0,0,0)
(0,0,0)
(0,0,0)
(0,0,0)
(0,0,0)
(0,0,0)
(0,0,0)
(0,0,0)
(0,0,0)
(0,0,0)
(0,0,0)
(0,0,0)
(0,0,0)
(0,0,0)
(0,0,0)
(0,0,0)
(0,0,0)
(0,0,0)
(0,0,0)
(0,0,0)
(0,0,0)
(0,0,0)
(0,0,0)
(0,0,0)
(0,0,0)
(0,0,0)
(0,0,0)
(0,0,0)
(0,0,0)
(0,0,0)
(0,0,0)
(0,0,0)
(0,0,0)
(0,0,0)
(0,0,0)
(0,0,0)
(0,0,0)
(0,0,0)
(0,0,0)
(0,0,0)
(0,0,0)
(0,0,0)
(0,0,0)
(0,0,0)
(0,0,0)
(0,0,0)
(0,0,0)
(0,0,0)
(0,0,0)
(0,0,0)
(0,0,0)
(0,0,0)
(0,0,0)
(0,0,0)
(0,0,0)
(0,0,0)
(0,0,0)
(0,0,0)
(0,0,0)
(0,0,0)
(0,0,0)
(0,0,0)
(0,0,0)
(0,0,0)
(0,0,0)
(0,0,0)
(0,0,0)
(0,0,0)
(0,0,0)
(0,0,0)
(0,0,0)
(0,0,0)
(0,0,0)
(0,0,0)
(0,0,0)
(0,0,0)
(0,0,0)
(0,0,0)
(0,0,0)
(0,0,0)
(0,0,0)
(0,0,0)
(0,0,0)
(0,0,0)
(0,0,0)
(0,0,0)
(0,0,0)
(0,0,0)
(0,0,0)
(0,0,0)
(0,0,0)
(0,0,0)
(0,0,0)
(0,0,0)
(0,0,0)
(0,0,0)
(0,0,0)
(0,0,0)
(0,0,0)
(0,0,0)
(0,0,0)
(0,0,0)
(0,0,0)
(0,0,0)
(0,0,0)
(0,0,0)
(0,0,0)
(0,0,0)
(0,0,0)
(0,0,0)
(0,0,0)
(0,0,0)
(0,0,0)
(0,0,0)
(0,0,0)
(0,0,0)
(0,0,0)
(0,0,0)
(0,0,0)
(0,0,0)
(0,0,0)
(0,0,0)
(0,0,0)
(0,0,0)
(0,0,0)
(0,0,0)
(0,0,0)
(0,0,0)
(0,0,0)
(0,0,0)
(0,0,0)
(0,0,0)
(0,0,0)
(0,0,0)
(0,0,0)
(0,0,0)
(0,0,0)
(0,0,0)
(0,0,0)
(0,0,0)
(0,0,0)
(0,0,0)
(0,0,0)
(0,0,0)
(0,0,0)
(0,0,0)
(0,0,0)
(0,0,0)
(0,0,0)
(0,0,0)
(0,0,0)
(0,0,0)
(0,0,0)
(0,0,0)
(0,0,0)
(0,0,0)
(0,0,0)
(0,0,0)
(0,0,0)
(0,0,0)
(0,0,0)
(0,0,0)
(0,0,0)
(0,0,0)
(0,0,0)
(0,0,0)
(0,0,0)
(0,0,0)
(0,0,0)
(0,0,0)
(0,0,0)
(0,0,0)
(0,0,0)
(0,0,0)
(0,0,0)
(0,0,0)
(0,0,0)
(0,0,0)
(0,0,0)
(0,0,0)
(0,0,0)
(0,0,0)
(0,0,0)
(0,0,0)
(0,0,0)
(0,0,0)
(0,0,0)
(0,0,0)
(0,0,0)
(0,0,0)
(0,0,0)
(0,0,0)
(0,0,0)
(0,0,0)
(0,0,0)
(0,0,0)
(0,0,0)
(0,0,0)
(0,0,0)
(0,0,0)
(0,0,0)
(0,0,0)
(0,0,0)
(0,0,0)
(0,0,0)
(0,0,0)
(0,0,0)
(0,0,0)
(0,0,0)
(0,0,0)
(0,0,0)
(0,0,0)
(0,0,0)
(0,0,0)
(0,0,0)
(0,0,0)
(0,0,0)
(0,0,0)
(0,0,0)
(0,0,0)
(0,0,0)
(0,0,0)
(0,0,0)
(0,0,0)
(0,0,0)
(0,0,0)
(0,0,0)
(0,0,0)
(0,0,0)
(0,0,0)
(0,0,0)
(0,0,0)
(0,0,0)
(0,0,0)
(0,0,0)
(0,0,0)
(0,0,0)
(0,0,0)
(0,0,0)
(0,0,0)
(0,0,0)
(0,0,0)
(0,0,0)
(0,0,0)
(0,0,0)
(0,0,0)
(0,0,0)
(0,0,0)
(0,0,0)
(0,0,0)
(0,0,0)
(0,0,0)
(0,0,0)
(0,0,0)
(0,0,0)
(0,0,0)
(0,0,0)
(0,0,0)
(0,0,0)
(0,0,0)
(0,0,0)
(0,0,0)
(0,0,0)
(0,0,0)
(0,0,0)
(0,0,0)
(0,0,0)
(0,0,0)
(0,0,0)
(0,0,0)
(0,0,0)
(0,0,0)
(0,0,0)
(0,0,0)
(0,0,0)
(0,0,0)
(0,0,0)
(0,0,0)
(0,0,0)
(0,0,0)
(0,0,0)
(0,0,0)
(0,0,0)
(0,0,0)
(0,0,0)
(0,0,0)
(0,0,0)
(0,0,0)
(0,0,0)
(0,0,0)
(0,0,0)
(0,0,0)
(0,0,0)
(0,0,0)
(0,0,0)
(0,0,0)
(0,0,0)
(0,0,0)
(0,0,0)
(0,0,0)
(0,0,0)
(0,0,0)
(0,0,0)
(0,0,0)
(0,0,0)
(0,0,0)
(0,0,0)
(0,0,0)
(0,0,0)
(0,0,0)
(0,0,0)
(0,0,0)
(0,0,0)
(0,0,0)
(0,0,0)
(0,0,0)
(0,0,0)
(0,0,0)
(0,0,0)
(0,0,0)
(0,0,0)
(0,0,0)
(0,0,0)
(0,0,0)
(0,0,0)
(0,0,0)
(0,0,0)
(0,0,0)
(0,0,0)
(0,0,0)
(0,0,0)
(0,0,0)
(0,0,0)
(0,0,0)
(0,0,0)
(0,0,0)
(0,0,0)
(0,0,0)
(0,0,0)
(0,0,0)
(0,0,0)
(0,0,0)
(0,0,0)
(0,0,0)
(0,0,0)
(0,0,0)
(0,0,0)
(0,0,0)
(0,0,0)
(0,0,0)
(0,0,0)
(0,0,0)
(0,0,0)
(0,0,0)
(0,0,0)
(0,0,0)
(0,0,0)
(0,0,0)
(0,0,0)
(0,0,0)
(0,0,0)
(0,0,0)
(0,0,0)
(0,0,0)
(0,0,0)
(0,0,0)
(0,0,0)
(0,0,0)
(0,0,0)
(0,0,0)
(0,0,0)
(0,0,0)
(0,0,0)
(0,0,0)
(0,0,0)
(0,0,0)
(0,0,0)
(0,0,0)
(0,0,0)
(0,0,0)
(0,0,0)
(0,0,0)
(0,0,0)
(0,0,0)
(0,0,0)
(0,0,0)
(0,0,0)
(0,0,0)
(0,0,0)
(0,0,0)
(0,0,0)
(0,0,0)
(0,0,0)
(0,0,0)
(0,0,0)
(0,0,0)
(0,0,0)
(0,0,0)
(0,0,0)
(0,0,0)
(0,0,0)
(0,0,0)
(0,0,0)
(0,0,0)
(0,0,0)
(0,0,0)
(0,0,0)
(0,0,0)
(0,0,0)
(0,0,0)
(0,0,0)
(0,0,0)
(0,0,0)
(0,0,0)
(0,0,0)
(0,0,0)
(0,0,0)
(0,0,0)
(0,0,0)
(0,0,0)
(0,0,0)
(0,0,0)
(0,0,0)
(0,0,0)
(0,0,0)
(0,0,0)
(0,0,0)
(0,0,0)
(0,0,0)
(0,0,0)
(0,0,0)
(0,0,0)
(0,0,0)
(0,0,0)
(0,0,0)
(0,0,0)
(0,0,0)
(0,0,0)
(0,0,0)
(0,0,0)
(0,0,0)
(0,0,0)
(0,0,0)
(0,0,0)
(0,0,0)
(0,0,0)
(0,0,0)
(0,0,0)
(0,0,0)
(0,0,0)
(0,0,0)
(0,0,0)
(0,0,0)
(0,0,0)
(0,0,0)
(0,0,0)
(0,0,0)
(0,0,0)
(0,0,0)
(0,0,0)
(0,0,0)
(0,0,0)
(0,0,0)
(0,0,0)
(0,0,0)
(0,0,0)
(0,0,0)
(0,0,0)
(0,0,0)
(0,0,0)
(0,0,0)
(0,0,0)
(0,0,0)
(0,0,0)
(0,0,0)
(0,0,0)
(0,0,0)
(0,0,0)
(0,0,0)
(0,0,0)
(0,0,0)
(0,0,0)
(0,0,0)
(0,0,0)
(0,0,0)
(0,0,0)
(0,0,0)
(0,0,0)
(0,0,0)
(0,0,0)
(0,0,0)
(0,0,0)
(0,0,0)
(0,0,0)
(0,0,0)
(0,0,0)
(0,0,0)
(0,0,0)
(0,0,0)
(0,0,0)
(0,0,0)
(0,0,0)
(0,0,0)
(0,0,0)
(0,0,0)
(0,0,0)
(0,0,0)
(0,0,0)
(0,0,0)
(0,0,0)
(0,0,0)
(0,0,0)
(0,0,0)
(0,0,0)
(0,0,0)
(0,0,0)
(0,0,0)
(0,0,0)
(0,0,0)
(0,0,0)
(0,0,0)
(0,0,0)
(0,0,0)
(0,0,0)
(0,0,0)
(0,0,0)
(0,0,0)
(0,0,0)
(0,0,0)
(0,0,0)
(0,0,0)
(0,0,0)
(0,0,0)
(0,0,0)
(0,0,0)
(0,0,0)
(0,0,0)
(0,0,0)
(0,0,0)
(0,0,0)
(0,0,0)
(0,0,0)
(0,0,0)
(0,0,0)
(0,0,0)
(0,0,0)
(0,0,0)
(0,0,0)
(0,0,0)
(0,0,0)
(0,0,0)
(0,0,0)
(0,0,0)
(0,0,0)
(0,0,0)
(0,0,0)
(0,0,0)
(0,0,0)
(0,0,0)
(0,0,0)
(0,0,0)
(0,0,0)
(0,0,0)
(0,0,0)
(0,0,0)
(0,0,0)
(0,0,0)
(0,0,0)
(0,0,0)
(-172184.417727857,91696.774982024,80487.6427458329)
(-182096.181828121,87923.6736937928,174660.150880162)
(-205092.641605731,80018.6003421934,299734.1921437)
(-248500.027779455,67598.7037294306,480635.516193726)
(-326804.580582491,50883.5998008787,756556.496975345)
(-467383.00173687,31701.5614214581,1192237.93729074)
(-721862.585874377,14304.2576914177,1899796.26547374)
(-1181756.22247706,3603.86225462326,3077948.62569617)
(-1949137.03209522,70.5784714301651,5027015.07932)
(-2715798.32715869,-254.359372206494,7743067.7658509)
(0,0,0)
(0,0,0)
(0,0,0)
(0,0,0)
(0,0,0)
(0,0,0)
(-182119.231235832,197102.517635619,76713.4885822373)
(-192147.579752309,189980.425775308,166804.316253035)
(-215494.726886837,174921.268386447,287396.375095615)
(-259917.910574014,150958.371413472,463954.617985592)
(-340389.34701072,117922.862642438,737304.702154749)
(-484368.847188675,78696.6664209133,1174678.44434398)
(-741683.05509232,41646.7466916679,1889019.01043601)
(-1199821.059131,18132.779042449,3074311.15277916)
(-1961166.62511558,8894.19221687493,5026654.16414935)
(-2721389.96393524,4534.78846863451,7743254.98024368)
(0,0,0)
(0,0,0)
(0,0,0)
(0,0,0)
(0,0,0)
(0,0,0)
(-204854.329489063,332337.604142814,69619.2429818682)
(-215054.433120363,322777.50161134,151876.600266199)
(-239139.372590316,302402.083569836,263535.157673131)
(-285777.454771738,269332.032285054,430938.951573288)
(-371369.257265222,222259.385165259,697971.686315688)
(-524268.809863502,163517.721736202,1137419.4408639)
(-790441.498488709,104119.788307534,1865387.89773675)
(-1244727.11758693,63304.3919206662,3064943.40244543)
(-1990105.73351505,41744.0859346005,5022199.24224284)
(-2734498.22285448,22629.69800473,7738602.55556118)
(0,0,0)
(0,0,0)
(0,0,0)
(0,0,0)
(0,0,0)
(0,0,0)
(-247223.809166394,519535.481251237,60025.9320579713)
(-257593.104581976,508833.111856819,131563.42639447)
(-282589.087348829,485981.721520363,230572.875792767)
(-332432.489903148,448421.383284141,383916.014696824)
(-426508.886267761,393492.330182731,639191.955947117)
(-596539.285883815,321366.046600978,1077882.91696615)
(-883822.856679452,241357.370164173,1824468.19178897)
(-1331559.94799479,176034.04470772,3043298.48699668)
(-2043070.82708543,125085.682311797,5003027.71770487)
(-2757605.66510281,67315.3002079694,7715947.78060454)
(0,0,0)
(0,0,0)
(0,0,0)
(0,0,0)
(0,0,0)
(0,0,0)
(-323167.27103235,793304.336593454,49398.4156901311)
(-333496.929548567,782851.089884719,108877.367210797)
(-358964.156118421,760590.54217105,193232.70267853)
(-411499.829527227,723974.603681834,329179.311808068)
(-514345.529769928,669792.307108837,567224.864651894)
(-705579.285592141,596237.395259846,997932.801585153)
(-1026075.86948635,506178.093914551,1759187.94732112)
(-1463804.1534492,406609.601572771,2992416.54390529)
(-2120050.523026,292283.096395499,4945269.65284764)
(-2791001.61958935,154936.602805792,7648649.96983916)
(0,0,0)
(0,0,0)
(0,0,0)
(0,0,0)
(0,0,0)
(0,0,0)
(-460222.524349157,1214414.9803573,39111.8805853088)
(-470040.099692299,1205114.73855142,86888.331610902)
(-494669.586960305,1185257.89119742,156890.569544835)
(-546686.31398657,1152271.43963154,275280.047581699)
(-650628.111913309,1101805.67241839,493894.794185459)
(-845483.731208864,1027609.27943121,908006.641222968)
(-1166944.93680435,921446.180746051,1659683.49119584)
(-1584821.56752974,772960.542153528,2878154.11814482)
(-2203477.97820177,565978.202024531,4807936.9907176)
(-2833047.58873654,302152.889939584,7493768.29232025)
(0,0,0)
(0,0,0)
(0,0,0)
(0,0,0)
(0,0,0)
(0,0,0)
(-711830.940471062,1896315.92940708,29929.9914212916)
(-720511.819452046,1888280.31139142,67276.2380333425)
(-742607.792983894,1870957.08436468,124184.837849981)
(-790136.73097248,1841460.407512,225132.600942002)
(-886690.788830318,1793677.0454959,419952.016694809)
(-1069792.8866549,1715321.53238041,802032.650400501)
(-1371479.02776875,1583600.34169708,1511357.51721823)
(-1751449.31780489,1364412.88358949,2671354.49358716)
(-2327820.3530694,1020872.90603833,4544280.1426427)
(-2901635.07294706,556246.512982967,7191821.59254644)
(0,0,0)
(0,0,0)
(0,0,0)
(0,0,0)
(0,0,0)
(0,0,0)
(-1171984.08042117,3046300.52200915,21999.4878190846)
(-1178913.54240177,3038976.89893313,50216.4426791512)
(-1196711.80825994,3022886.70549827,94998.6298055025)
(-1235374.0903879,2994202.59089068,177630.536814716)
(-1314736.19479747,2944238.9422696,341804.834838486)
(-1466952.44809705,2853584.42604559,670494.389270355)
(-1719602.45120575,2681313.86957921,1292383.31259397)
(-2027200.31848036,2355916.207503,2328080.30716084)
(-2553560.54871446,1822624.87231424,4079888.8895994)
(-3032778.38780025,1033081.54100161,6635832.24938094)
(0,0,0)
(0,0,0)
(0,0,0)
(0,0,0)
(0,0,0)
(0,0,0)
(-1942443.31134688,4973991.95334016,14751.8800158625)
(-1947174.81632518,4966641.36296679,34262.2323073926)
(-1959293.54027378,4949948.15923725,66494.3188421753)
(-1985298.21465039,4918203.76401539,127791.360367848)
(-2037711.51891862,4858481.54665464,251260.274901449)
(-2136202.61176453,4742657.31577365,498389.996937902)
(-2301590.4320164,4514078.11904938,967216.179484127)
(-2547296.11113029,4075309.7519801,1795118.74613731)
(-2969910.51143395,3296925.52900377,3290728.60088169)
(-3261540.22127436,1982250.00542841,5603100.35772927)
(0,0,0)
(0,0,0)
(0,0,0)
(0,0,0)
(0,0,0)
(0,0,0)
(-2712702.69615815,7679189.1084816,7505.54101669427)
(-2715074.57613498,7671554.18768289,17667.2924355896)
(-2721103.03396976,7653805.92132292,34912.5643196924)
(-2733873.17770846,7618765.80170955,68223.7043340158)
(-2759235.95504197,7550420.38041091,135520.825619723)
(-2806662.61789814,7414877.1000699,269963.659221617)
(-2889434.96940686,7144769.41810713,528707.329570716)
(-3028900.04649998,6615814.20018486,1017102.9278659)
(-3260795.93509655,5598372.34468248,1976452.04728372)
(-3283945.21103245,3621513.62235641,3621133.64138818)
(0,0,0)
(0,0,0)
(0,0,0)
(0,0,0)
(0,0,0)
(0,0,0)
(0,0,0)
(0,0,0)
(0,0,0)
(0,0,0)
(0,0,0)
(0,0,0)
(0,0,0)
(0,0,0)
(0,0,0)
(0,0,0)
(0,0,0)
(0,0,0)
(0,0,0)
(0,0,0)
(0,0,0)
(0,0,0)
(0,0,0)
(0,0,0)
(0,0,0)
(0,0,0)
(0,0,0)
(0,0,0)
(0,0,0)
(0,0,0)
(0,0,0)
(0,0,0)
(0,0,0)
(0,0,0)
(0,0,0)
(0,0,0)
(0,0,0)
(0,0,0)
(0,0,0)
(0,0,0)
(0,0,0)
(0,0,0)
(0,0,0)
(0,0,0)
(0,0,0)
(0,0,0)
(0,0,0)
(0,0,0)
(0,0,0)
(0,0,0)
(0,0,0)
(0,0,0)
(0,0,0)
(0,0,0)
(0,0,0)
(0,0,0)
(0,0,0)
(0,0,0)
(0,0,0)
(0,0,0)
(0,0,0)
(0,0,0)
(0,0,0)
(0,0,0)
(0,0,0)
(0,0,0)
(0,0,0)
(0,0,0)
(0,0,0)
(0,0,0)
(0,0,0)
(0,0,0)
(0,0,0)
(0,0,0)
(0,0,0)
(0,0,0)
(0,0,0)
(0,0,0)
(0,0,0)
(0,0,0)
(0,0,0)
(0,0,0)
(0,0,0)
(0,0,0)
(0,0,0)
(0,0,0)
(0,0,0)
(0,0,0)
(0,0,0)
(0,0,0)
(0,0,0)
(0,0,0)
(0,0,0)
(0,0,0)
(0,0,0)
(0,0,0)
(0,0,0)
(0,0,0)
(0,0,0)
(0,0,0)
(0,0,0)
(0,0,0)
(25469650.7189965,81703.0993590508,70538.9836329876)
(25453026.0887275,77840.0205562054,151653.912237453)
(25414753.5771969,69581.5431709225,256303.369980191)
(25343381.9607635,56165.5625957334,402333.03855772)
(25216319.6030006,37288.8306689244,615997.244022001)
(24990210.4845846,14755.5165528504,937725.46086388)
(24575516.405633,-5451.82344990916,1439875.51252264)
(23756085.6455931,-14409.3567699529,2310520.22093867)
(21907109.7030997,-11944.6274558771,4260295.3329159)
(16885776.0327236,-5857.10540467092,10458655.2981546)
(0,0,0)
(0,0,0)
(0,0,0)
(0,0,0)
(0,0,0)
(0,0,0)
(25452684.9034986,174293.08130426,66683.1030366961)
(25436018.7718334,166997.758184475,143436.233539045)
(25397429.4561765,151229.312064676,242941.50129826)
(25324710.617194,125083.330998468,383472.42484377)
(25194166.9264741,86901.2922024868,593380.90954169)
(24961697.7140743,38759.2348639828,917387.849683896)
(24540614.8666291,-7147.6056477177,1430862.92987669)
(23724598.3533665,-26779.6145781846,2312890.99490378)
(21887550.2136511,-20022.1689262882,4266328.9173237)
(16877249.1825322,-8537.36116058358,10464447.2463284)
(0,0,0)
(0,0,0)
(0,0,0)
(0,0,0)
(0,0,0)
(0,0,0)
(25414217.5782676,289883.739142773,59414.654121095)
(25397514.1226573,280151.632322367,127769.443921913)
(25358194.4162578,258873.599083332,216868.587771476)
(25282307.1951746,222616.222274782,345328.266265198)
(25142733.9201472,167045.952257131,545157.648514363)
(24891226.3481869,91172.5772826569,871326.367761665)
(24446022.7328485,10663.7448148379,1411128.0056783)
(23637768.2262964,-23591.4580564331,2319521.72498963)
(21837035.1159124,-11260.8744775079,4277696.8008296)
(16856302.7211468,-468.137142061359,10472903.8525262)
(0,0,0)
(0,0,0)
(0,0,0)
(0,0,0)
(0,0,0)
(0,0,0)
(25343559.346269,443503.045905413,49674.7575182972)
(25326891.8228416,432867.053008525,106551.629124919)
(25286668.8482599,409540.007756594,180704.504559306)
(25205835.3457165,369296.886386283,289833.224544464)
(25049591.6250817,305595.228372314,469260.656796097)
(24755018.5398679,212258.791640813,790693.836402545)
(24235800.1822321,99042.6985235652,1376769.06349863)
(23440177.5123914,43742.8506703212,2331774.51410197)
(21735036.2447828,48072.9176714104,4288410.86980108)
(16817134.8968443,33914.3671915262,10473365.0232368)
(0,0,0)
(0,0,0)
(0,0,0)
(0,0,0)
(0,0,0)
(0,0,0)
(25219174.6247717,656158.232584537,39080.1372331498)
(25202904.158159,646260.234610166,83363.0876402466)
(25162510.7883736,624842.21282132,140663.157799908)
(25077449.3315794,588746.104758629,226341.998037233)
(24902123.0188404,533477.943599073,376067.95391647)
(24542999.2318965,456304.118289211,677521.329495748)
(23857789.3102018,365278.212618335,1321497.85542911)
(23073776.0308751,285578.612637498,2336159.128854)
(21575153.7164254,208856.120591204,4274248.90619904)
(16758871.8330146,112897.174548019,10439469.865955)
(0,0,0)
(0,0,0)
(0,0,0)
(0,0,0)
(0,0,0)
(0,0,0)
(24997947.946582,962766.836406013,29298.1449637102)
(24982785.9078217,954603.374221293,62206.2175549123)
(24944320.5677326,937280.470537329,104855.024862338)
(24860813.1401172,908801.288720391,171377.606513235)
(24683457.60177,865737.159966783,299109.896178545)
(24314070.2630122,803322.692524802,586614.54743825)
(23620228.7323121,716932.65530774,1241863.65534875)
(22870853.5259939,606317.678662068,2259526.71551679)
(21439000.7685492,441615.245433078,4178366.06364019)
(16692064.9766363,233543.67622809,10326684.2163037)
(0,0,0)
(0,0,0)
(0,0,0)
(0,0,0)
(0,0,0)
(0,0,0)
(24587628.2927233,1436152.29269434,21232.5302335914)
(24574426.3334879,1429851.03441101,45123.9368201966)
(24540356.1368436,1416851.53710135,76666.1601450502)
(24464546.1097745,1396231.66888308,128630.158951646)
(24299180.6663969,1365638.98066835,236934.102739212)
(23945953.9852983,1318176.22766717,500410.915359986)
(23273016.0467042,1235496.07474629,1131429.64116478)
(22596718.4912773,1088633.9954707,2095022.73499031)
(21237314.1023302,795088.152947942,3970492.59179209)
(16578055.3447074,425050.805137137,10093372.264945)
(0,0,0)
(0,0,0)
(0,0,0)
(0,0,0)
(0,0,0)
(0,0,0)
(23767452.001364,2275769.35187471,15024.078750817)
(23757048.9501757,2270651.77446666,32338.0658340479)
(23729922.7765225,2260296.77934828,56335.4585209513)
(23668684.0726887,2244257.37050488,98328.8135389353)
(23532429.4706999,2221202.40131213,189676.947114009)
(23232798.6278199,2184263.60800712,417915.710573464)
(22643787.5424615,2099272.31836401,984826.693004787)
(22202804.0820577,1835765.59544011,1801767.91221352)
(20830469.445379,1406219.39061813,3600683.90016613)
(16314197.4946438,804287.120843083,9668548.92173239)
(0,0,0)
(0,0,0)
(0,0,0)
(0,0,0)
(0,0,0)
(0,0,0)
(21913722.5348795,4203685.68321267,9995.04215198978)
(21906727.4012162,4198709.45422586,22112.3645677617)
(21888595.3987291,4188105.57700252,40491.8476268802)
(21848539.834369,4169567.06640816,75421.3224204019)
(21763278.4310009,4136880.68143516,152830.312094097)
(21589784.9791107,4072110.64860953,333072.900332734)
(21277108.6274949,3926159.47110441,721563.907797434)
(20837909.6485025,3593649.09710324,1372551.8662179)
(19597835.6221912,3005996.34988901,2999105.99303819)
(15511511.752953,1959823.57897448,8864594.7803957)
(0,0,0)
(0,0,0)
(0,0,0)
(0,0,0)
(0,0,0)
(0,0,0)
(16888199.0692067,10391748.9052049,5112.23235918227)
(16884731.058202,10386476.6642374,11616.6077268758)
(16875843.3253033,10374725.2986734,22127.7464992064)
(16856610.5913979,10352436.2894415,42851.9740759265)
(16816991.5690583,10309482.6063442,88099.7447829026)
(16739039.1343277,10221355.6369787,187230.223904232)
(16594726.0196257,10034028.2296886,389277.696003759)
(16318330.3746547,9644560.56341951,785213.028249183)
(15512128.8985892,8859067.25154758,1953294.51262114)
(12612756.747628,6905422.77246696,6905070.58018448)
(0,0,0)
(0,0,0)
(0,0,0)
(0,0,0)
(0,0,0)
(0,0,0)
(0,0,0)
(0,0,0)
(0,0,0)
(0,0,0)
(0,0,0)
(0,0,0)
(0,0,0)
(0,0,0)
(0,0,0)
(0,0,0)
(0,0,0)
(0,0,0)
(0,0,0)
(0,0,0)
(0,0,0)
(0,0,0)
(0,0,0)
(0,0,0)
(0,0,0)
(0,0,0)
(0,0,0)
(0,0,0)
(0,0,0)
(0,0,0)
(0,0,0)
(0,0,0)
(0,0,0)
(0,0,0)
(0,0,0)
(0,0,0)
(0,0,0)
(0,0,0)
(0,0,0)
(0,0,0)
(0,0,0)
(0,0,0)
(0,0,0)
(0,0,0)
(0,0,0)
(0,0,0)
(0,0,0)
(0,0,0)
(0,0,0)
(0,0,0)
(0,0,0)
(0,0,0)
(0,0,0)
(0,0,0)
(0,0,0)
(0,0,0)
(0,0,0)
(0,0,0)
(0,0,0)
(0,0,0)
(0,0,0)
(0,0,0)
(0,0,0)
(0,0,0)
(0,0,0)
(0,0,0)
(0,0,0)
(0,0,0)
(0,0,0)
(0,0,0)
(0,0,0)
(0,0,0)
(0,0,0)
(0,0,0)
(0,0,0)
(0,0,0)
(0,0,0)
(0,0,0)
(0,0,0)
(0,0,0)
(0,0,0)
(0,0,0)
(0,0,0)
(0,0,0)
(0,0,0)
(0,0,0)
(0,0,0)
(0,0,0)
(0,0,0)
(0,0,0)
(0,0,0)
(0,0,0)
(0,0,0)
(0,0,0)
(0,0,0)
(0,0,0)
(0,0,0)
(0,0,0)
(0,0,0)
(0,0,0)
(0,0,0)
(0,0,0)
(-443032.69855588,64696.1190499285,53910.0787860572)
(-461407.017997004,60790.1797976195,113475.785996647)
(-503001.86193443,52183.8897407349,184970.115670949)
(-578463.432443394,37433.4160278272,275304.873133801)
(-707574.442854206,15085.7018752448,390035.997397068)
(-923150.7458107,-13783.8662515005,523103.874327658)
(-1275562.73282285,-40326.6965826074,620432.489649866)
(-1833190.75384145,-45853.3594071815,461485.028775365)
(-2632726.79306426,-31494.9424908189,-761260.752286192)
(-3227352.31976481,-14412.0811592957,-6427797.53835471)
(0,0,0)
(0,0,0)
(0,0,0)
(0,0,0)
(0,0,0)
(0,0,0)
(-462493.748350947,135770.381459139,50027.1697239982)
(-480551.589672622,128405.854217522,104904.637093789)
(-521687.136177669,111895.630511649,170232.268960737)
(-597229.732439106,82588.2041190606,252940.610786351)
(-728316.772915781,35373.5406131638,361059.251722021)
(-949724.867911225,-31801.1879001031,496421.935639827)
(-1310406.91055436,-101797.205559554,614837.002083843)
(-1862634.14403946,-113612.448817381,475751.36918364)
(-2647504.84063497,-70523.5416747835,-744242.197062517)
(-3232568.81275367,-29479.2313702023,-6413434.27128204)
(0,0,0)
(0,0,0)
(0,0,0)
(0,0,0)
(0,0,0)
(0,0,0)
(-505921.502592966,219143.697757845,42688.5448455862)
(-523344.772126458,209410.376139864,88465.6979906293)
(-563678.818454392,187190.39838329,140966.945114842)
(-639930.77023386,145987.359110178,205728.535815808)
(-777795.919302334,73780.9286034735,293773.767558793)
(-1022004.02377495,-45131.8464784083,426257.578382562)
(-1426834.53316236,-199662.856610402,602903.27572788)
(-1964523.80239355,-221236.829902169,518742.465786204)
(-2692235.01238934,-113301.472118529,-703286.695184491)
(-3246903.09666283,-39663.4048025126,-6383973.92365888)
(0,0,0)
(0,0,0)
(0,0,0)
(0,0,0)
(0,0,0)
(0,0,0)
(-583388.339628539,319022.334316725,32991.8296223303)
(-599872.671737145,308772.048817816,66317.4318067701)
(-638996.671137669,285251.535749609,99844.5941216418)
(-716782.722807537,240795.101059485,133577.700980061)
(-870017.256914039,158059.975324487,174830.316538508)
(-1181165.46897615,188.037031554975,271617.222156286)
(-1788495.04636759,-279034.94533833,581207.319767555)
(-2297869.63465003,-322683.769244846,626624.186435384)
(-2804162.15966952,-111838.134458497,-629717.966488606)
(-3277604.86255734,-24373.351916211,-6344345.47968965)
(0,0,0)
(0,0,0)
(0,0,0)
(0,0,0)
(0,0,0)
(0,0,0)
(-713459.760425761,434775.98170718,22803.5180906779)
(-728551.013084679,426003.963831626,42949.554604238)
(-765468.216909857,406521.221983594,55581.6539372985)
(-843259.883329637,371995.4438018,51013.3063877263)
(-1014674.24651059,314752.001355213,17041.3259916714)
(-1453589.49463454,227337.975274433,-7597.10543647954)
(-2888076.98367681,127650.633818863,537506.389568648)
(-3425592.76049124,82624.2407268622,837489.95124692)
(-3023705.27298718,72678.6721825811,-542245.085697836)
(-3327963.53631191,46079.6164734555,-6319939.90447726)
(0,0,0)
(0,0,0)
(0,0,0)
(0,0,0)
(0,0,0)
(0,0,0)
(-927760.21233763,552288.598838147,14118.3220723237)
(-940967.284081411,546095.473851807,23702.7842389248)
(-974041.9818109,533178.1771274,21331.158922281)
(-1046393.44768513,512429.418584084,-5973.4477741022)
(-1213059.40293719,481404.228612348,-70185.8900403783)
(-1650884.89352023,435183.854344061,-107153.832293929)
(-3015535.39329746,369692.006999015,492491.700419101)
(-3507877.12918879,332134.891690266,827634.484922138)
(-3125933.28690752,239881.900101232,-568711.907256086)
(-3378296.93041513,119514.062989943,-6365861.66643746)
(0,0,0)
(0,0,0)
(0,0,0)
(0,0,0)
(0,0,0)
(0,0,0)
(-1278043.04820904,615882.602305884,8000.11774831117)
(-1288947.08926405,612390.978974137,11000.8156616679)
(-1316758.53808376,606356.364034334,860.083965724393)
(-1379834.27961021,600314.577943334,-36721.9057250828)
(-1532872.73923301,598848.060210643,-116189.551409818)
(-1961664.26616634,604981.259353573,-172445.924671019)
(-3385199.53446453,606229.762882466,455154.680897975)
(-3840328.29376419,694645.133461911,735614.004451474)
(-3280618.47995864,388187.031127079,-688835.764001782)
(-3461378.78889979,161138.569859323,-6485103.3569804)
(0,0,0)
(0,0,0)
(0,0,0)
(0,0,0)
(0,0,0)
(0,0,0)
(-1837211.52866057,421897.156153331,4571.75646077722)
(-1845433.89004082,420220.937128024,5147.41880706693)
(-1866658.07447117,418917.350393586,-4909.93627478749)
(-1916130.95904609,424064.561193769,-37922.1075068194)
(-2042801.33073923,451967.120173895,-109887.585747181)
(-2436256.78304986,541120.570473049,-171048.705713229)
(-3991426.32939328,732461.674777776,543856.034529957)
(-3252965.21426609,470748.368383082,429444.87621634)
(-3403803.07002374,173493.413675428,-915666.210645518)
(-3589896.20772766,1539.83028599356,-6646050.98841694)
(0,0,0)
(0,0,0)
(0,0,0)
(0,0,0)
(0,0,0)
(0,0,0)
(-2639344.76973445,-822061.501856806,2948.74290774709)
(-2644668.89488984,-823451.886847194,3940.64327262731)
(-2658272.40175605,-824780.932876849,429.507311955158)
(-2688705.31414698,-822487.686603819,-9850.31609068502)
(-2758483.75053332,-809563.69600143,-20634.5380973855)
(-2925353.02062807,-778862.138402552,20408.9508006845)
(-3290014.60848241,-756439.609028772,282356.250868149)
(-3409416.20721626,-926110.076960528,132463.33221413)
(-3723096.00477224,-1079861.45022212,-1087327.39664123)
(-3782011.45641055,-939032.735196621,-6647308.84151135)
(0,0,0)
(0,0,0)
(0,0,0)
(0,0,0)
(0,0,0)
(0,0,0)
(-3232461.70564371,-6497098.36331335,1620.41659060642)
(-3235042.56503766,-6498848.30599585,2713.23926262014)
(-3241534.93297325,-6501659.25977637,2892.60472246761)
(-3255599.97271254,-6504671.70946423,3209.97197695601)
(-3285576.89620527,-6508009.53896348,10147.060486298)
(-3348434.93190652,-6518241.99809443,42923.7666960845)
(-3464532.88054446,-6561215.17279791,112881.010919109)
(-3593705.78233529,-6674251.98586756,-21018.1429002605)
(-3783162.16839163,-6653497.93575568,-946167.81010212)
(-3650902.05723497,-5707647.00100374,-5707971.95914829)
(0,0,0)
(0,0,0)
(0,0,0)
(0,0,0)
(0,0,0)
(0,0,0)
(0,0,0)
(0,0,0)
(0,0,0)
(0,0,0)
(0,0,0)
(0,0,0)
(0,0,0)
(0,0,0)
(0,0,0)
(0,0,0)
(0,0,0)
(0,0,0)
(0,0,0)
(0,0,0)
(0,0,0)
(0,0,0)
(0,0,0)
(0,0,0)
(0,0,0)
(0,0,0)
(0,0,0)
(0,0,0)
(0,0,0)
(0,0,0)
(0,0,0)
(0,0,0)
(0,0,0)
(0,0,0)
(0,0,0)
(0,0,0)
(0,0,0)
(0,0,0)
(0,0,0)
(0,0,0)
(0,0,0)
(0,0,0)
(0,0,0)
(0,0,0)
(0,0,0)
(0,0,0)
(0,0,0)
(0,0,0)
(0,0,0)
(0,0,0)
(0,0,0)
(0,0,0)
(0,0,0)
(0,0,0)
(0,0,0)
(0,0,0)
(0,0,0)
(0,0,0)
(0,0,0)
(0,0,0)
(0,0,0)
(0,0,0)
(0,0,0)
(0,0,0)
(0,0,0)
(0,0,0)
(0,0,0)
(0,0,0)
(0,0,0)
(0,0,0)
(0,0,0)
(0,0,0)
(0,0,0)
(0,0,0)
(0,0,0)
(0,0,0)
(0,0,0)
(0,0,0)
(0,0,0)
(0,0,0)
(0,0,0)
(0,0,0)
(0,0,0)
(0,0,0)
(0,0,0)
(0,0,0)
(0,0,0)
(0,0,0)
(0,0,0)
(0,0,0)
(0,0,0)
(0,0,0)
(0,0,0)
(0,0,0)
(0,0,0)
(0,0,0)
(0,0,0)
(0,0,0)
(0,0,0)
(0,0,0)
(0,0,0)
(0,0,0)
(-523970.860068234,45296.4054024958,35641.7561098596)
(-539573.747494708,41684.5395984542,72123.9460091089)
(-573985.924895202,33482.04037671,109625.968593173)
(-633826.875517652,18695.5154097454,146293.896257683)
(-730395.906203541,-5592.12922765147,174707.488834673)
(-878980.536570037,-40324.8125406707,170862.092134682)
(-1092401.74904672,-75136.3707311703,62837.4790897221)
(-1356963.92004902,-75254.7977198866,-338134.556982812)
(-1568555.66224081,-46234.4011406514,-1356071.2866656)
(-1363057.75171732,-19612.3744526777,-3200753.48026043)
(0,0,0)
(0,0,0)
(0,0,0)
(0,0,0)
(0,0,0)
(0,0,0)
(-541710.875708771,92456.4904008651,32057.0423594548)
(-556439.068846565,85669.7694700463,63959.2916618024)
(-588917.121534544,69889.2676071207,94782.0497882671)
(-645580.40516385,39889.6131473664,121938.624775389)
(-737750.65740029,-14084.9687918016,139865.348824046)
(-882036.814113354,-104058.211188041,135910.693673552)
(-1094090.10201689,-218173.214273238,62630.7286781607)
(-1350608.15560656,-215447.548484933,-309202.508989679)
(-1558220.05033993,-115216.305165361,-1329505.39526001)
(-1356692.3926533,-43813.9608262183,-3181180.22898687)
(0,0,0)
(0,0,0)
(0,0,0)
(0,0,0)
(0,0,0)
(0,0,0)
(-580496.88545863,141720.006552929,25311.8667136039)
(-593502.000269643,132881.407482625,48257.4568442049)
(-622132.821697923,111803.168784625,64797.5589102303)
(-672245.526756301,69063.859331934,67938.0692481073)
(-755207.209823898,-18491.7417083281,49756.1326861961)
(-893594.924998876,-204320.231276914,21609.0539989862)
(-1127304.95683882,-561352.958293652,65259.2216958644)
(-1351103.96798199,-554610.571465821,-208997.589734814)
(-1533057.9762869,-225270.199551882,-1258120.73145075)
(-1341121.86402517,-70406.350972661,-3137309.57394198)
(0,0,0)
(0,0,0)
(0,0,0)
(0,0,0)
(0,0,0)
(0,0,0)
(-647176.641478716,188994.045187883,16514.2632152282)
(-657789.10202451,180083.317128239,27228.7838569822)
(-680805.344191445,158731.814374463,22108.8113209216)
(-720293.525830285,114264.042971684,-19580.5692960808)
(-785332.001005666,13386.5933167701,-136144.160229546)
(-913829.038947952,-272243.780465125,-335557.041069538)
(-1378620.76532679,-1378664.48440208,71880.2039980824)
(-1450503.57600764,-1450439.17157573,120342.745465605)
(-1474384.02376914,-331415.400001161,-1103290.1899855)
(-1309642.74370522,-74730.7444448801,-3066927.9153654)
(0,0,0)
(0,0,0)
(0,0,0)
(0,0,0)
(0,0,0)
(0,0,0)
(-752554.369634762,220419.123245607,7669.53115127682)
(-760341.188551166,213520.45937055,6022.56437545187)
(-776412.595912855,197882.823139376,-22184.0653864631)
(-799668.718099066,168809.030903402,-120320.218548752)
(-816214.824334079,116338.619359987,-421731.666768486)
(-735576.796062952,29986.0172190367,-1441974.16302424)
(-7.28154917299341e-05,-2.03629599132231e-05,4.83579203944658e-05)