/*--------------------------------*- C++ -*----------------------------------*\
| =========                 |                                                 |
| \\      /  F ield         | foam-extend: Open Source CFD                    |
|  \\    /   O peration     | Version:     4.0                                |
|   \\  /    A nd           | Web:         http://www.foam-extend.org         |
|    \\/     M anipulation  |                                                 |
\*---------------------------------------------------------------------------*/
FoamFile
{
    version 2.0;
    format ascii;
    class volVectorField;
    location "3307";
    object      H;
}
// * * * * * * * * * * * * * * * * * * * * * * * * * * * * * * * * * * * * * //

dimensions      [0 1 -1 0 0 0 0];

internalField   nonuniform List<vector>
4096
(
(0,0,0)
(0,0,0)
(0,0,0)
(0,0,0)
(0,0,0)
(0,0,0)
(0,0,0)
(0,0,0)
(0,0,0)
(0,0,0)
(0,0,0)
(0,0,0)
(0,0,0)
(0,0,0)
(0,0,0)
(0,0,0)
(0,0,0)
(0,0,0)
(0,0,0)
(0,0,0)
(0,0,0)
(0,0,0)
(0,0,0)
(0,0,0)
(0,0,0)
(0,0,0)
(0,0,0)
(0,0,0)
(0,0,0)
(0,0,0)
(0,0,0)
(0,0,0)
(0,0,0)
(0,0,0)
(0,0,0)
(0,0,0)
(0,0,0)
(0,0,0)
(0,0,0)
(0,0,0)
(0,0,0)
(0,0,0)
(0,0,0)
(0,0,0)
(0,0,0)
(0,0,0)
(0,0,0)
(0,0,0)
(0,0,0)
(0,0,0)
(0,0,0)
(0,0,0)
(0,0,0)
(0,0,0)
(0,0,0)
(0,0,0)
(0,0,0)
(0,0,0)
(0,0,0)
(0,0,0)
(0,0,0)
(0,0,0)
(0,0,0)
(0,0,0)
(0,0,0)
(0,0,0)
(0,0,0)
(0,0,0)
(0,0,0)
(0,0,0)
(0,0,0)
(0,0,0)
(0,0,0)
(0,0,0)
(0,0,0)
(0,0,0)
(0,0,0)
(0,0,0)
(0,0,0)
(0,0,0)
(0,0,0)
(0,0,0)
(0,0,0)
(0,0,0)
(0,0,0)
(0,0,0)
(0,0,0)
(0,0,0)
(0,0,0)
(0,0,0)
(0,0,0)
(0,0,0)
(0,0,0)
(0,0,0)
(0,0,0)
(0,0,0)
(0,0,0)
(0,0,0)
(0,0,0)
(0,0,0)
(0,0,0)
(0,0,0)
(0,0,0)
(0,0,0)
(0,0,0)
(0,0,0)
(0,0,0)
(0,0,0)
(0,0,0)
(0,0,0)
(0,0,0)
(0,0,0)
(0,0,0)
(0,0,0)
(0,0,0)
(0,0,0)
(0,0,0)
(0,0,0)
(0,0,0)
(0,0,0)
(0,0,0)
(0,0,0)
(0,0,0)
(0,0,0)
(0,0,0)
(0,0,0)
(0,0,0)
(0,0,0)
(0,0,0)
(0,0,0)
(0,0,0)
(0,0,0)
(0,0,0)
(0,0,0)
(0,0,0)
(0,0,0)
(0,0,0)
(0,0,0)
(0,0,0)
(0,0,0)
(0,0,0)
(0,0,0)
(0,0,0)
(0,0,0)
(0,0,0)
(0,0,0)
(0,0,0)
(0,0,0)
(0,0,0)
(0,0,0)
(0,0,0)
(0,0,0)
(0,0,0)
(0,0,0)
(0,0,0)
(0,0,0)
(0,0,0)
(0,0,0)
(0,0,0)
(0,0,0)
(0,0,0)
(0,0,0)
(0,0,0)
(0,0,0)
(0,0,0)
(0,0,0)
(0,0,0)
(0,0,0)
(0,0,0)
(0,0,0)
(0,0,0)
(0,0,0)
(0,0,0)
(0,0,0)
(0,0,0)
(0,0,0)
(0,0,0)
(0,0,0)
(0,0,0)
(0,0,0)
(0,0,0)
(0,0,0)
(0,0,0)
(0,0,0)
(0,0,0)
(0,0,0)
(0,0,0)
(0,0,0)
(0,0,0)
(0,0,0)
(0,0,0)
(0,0,0)
(0,0,0)
(0,0,0)
(0,0,0)
(0,0,0)
(0,0,0)
(0,0,0)
(0,0,0)
(0,0,0)
(0,0,0)
(0,0,0)
(0,0,0)
(0,0,0)
(0,0,0)
(0,0,0)
(0,0,0)
(0,0,0)
(0,0,0)
(0,0,0)
(0,0,0)
(0,0,0)
(0,0,0)
(0,0,0)
(0,0,0)
(0,0,0)
(0,0,0)
(0,0,0)
(0,0,0)
(0,0,0)
(0,0,0)
(0,0,0)
(0,0,0)
(0,0,0)
(0,0,0)
(0,0,0)
(0,0,0)
(0,0,0)
(0,0,0)
(0,0,0)
(0,0,0)
(0,0,0)
(0,0,0)
(0,0,0)
(0,0,0)
(0,0,0)
(0,0,0)
(0,0,0)
(0,0,0)
(0,0,0)
(0,0,0)
(0,0,0)
(0,0,0)
(0,0,0)
(0,0,0)
(0,0,0)
(0,0,0)
(0,0,0)
(0,0,0)
(0,0,0)
(0,0,0)
(0,0,0)
(0,0,0)
(0,0,0)
(0,0,0)
(0,0,0)
(0,0,0)
(0,0,0)
(0,0,0)
(0,0,0)
(0,0,0)
(0,0,0)
(0,0,0)
(0,0,0)
(0,0,0)
(0,0,0)
(0,0,0)
(0,0,0)
(0,0,0)
(0,0,0)
(0,0,0)
(0,0,0)
(0,0,0)
(0,0,0)
(0,0,0)
(0,0,0)
(0,0,0)
(0,0,0)
(0,0,0)
(0,0,0)
(0,0,0)
(0,0,0)
(0,0,0)
(0,0,0)
(0,0,0)
(0,0,0)
(0,0,0)
(0,0,0)
(0,0,0)
(0,0,0)
(0,0,0)
(0,0,0)
(0,0,0)
(0,0,0)
(0,0,0)
(0,0,0)
(0,0,0)
(0,0,0)
(0,0,0)
(0,0,0)
(0,0,0)
(0,0,0)
(0,0,0)
(0,0,0)
(0,0,0)
(0,0,0)
(0,0,0)
(0,0,0)
(0,0,0)
(0,0,0)
(0,0,0)
(0,0,0)
(0,0,0)
(0,0,0)
(0,0,0)
(0,0,0)
(0,0,0)
(0,0,0)
(0,0,0)
(0,0,0)
(0,0,0)
(0,0,0)
(0,0,0)
(0,0,0)
(0,0,0)
(0,0,0)
(0,0,0)
(0,0,0)
(0,0,0)
(0,0,0)
(0,0,0)
(0,0,0)
(0,0,0)
(0,0,0)
(0,0,0)
(0,0,0)
(0,0,0)
(0,0,0)
(0,0,0)
(0,0,0)
(0,0,0)
(0,0,0)
(0,0,0)
(0,0,0)
(0,0,0)
(0,0,0)
(0,0,0)
(0,0,0)
(0,0,0)
(0,0,0)
(0,0,0)
(0,0,0)
(0,0,0)
(0,0,0)
(0,0,0)
(0,0,0)
(0,0,0)
(0,0,0)
(0,0,0)
(0,0,0)
(0,0,0)
(0,0,0)
(0,0,0)
(0,0,0)
(0,0,0)
(0,0,0)
(0,0,0)
(0,0,0)
(0,0,0)
(0,0,0)
(0,0,0)
(0,0,0)
(0,0,0)
(0,0,0)
(0,0,0)
(0,0,0)
(0,0,0)
(0,0,0)
(0,0,0)
(0,0,0)
(0,0,0)
(0,0,0)
(0,0,0)
(0,0,0)
(0,0,0)
(0,0,0)
(0,0,0)
(0,0,0)
(0,0,0)
(0,0,0)
(0,0,0)
(0,0,0)
(0,0,0)
(0,0,0)
(0,0,0)
(0,0,0)
(0,0,0)
(0,0,0)
(0,0,0)
(0,0,0)
(0,0,0)
(0,0,0)
(0,0,0)
(0,0,0)
(0,0,0)
(0,0,0)
(0,0,0)
(0,0,0)
(0,0,0)
(0,0,0)
(0,0,0)
(0,0,0)
(0,0,0)
(0,0,0)
(0,0,0)
(0,0,0)
(0,0,0)
(0,0,0)
(0,0,0)
(0,0,0)
(0,0,0)
(0,0,0)
(0,0,0)
(0,0,0)
(0,0,0)
(0,0,0)
(0,0,0)
(0,0,0)
(0,0,0)
(0,0,0)
(0,0,0)
(0,0,0)
(0,0,0)
(0,0,0)
(0,0,0)
(0,0,0)
(0,0,0)
(0,0,0)
(0,0,0)
(0,0,0)
(0,0,0)
(0,0,0)
(0,0,0)
(0,0,0)
(0,0,0)
(0,0,0)
(0,0,0)
(0,0,0)
(0,0,0)
(0,0,0)
(0,0,0)
(0,0,0)
(0,0,0)
(0,0,0)
(0,0,0)
(0,0,0)
(0,0,0)
(0,0,0)
(0,0,0)
(0,0,0)
(0,0,0)
(0,0,0)
(0,0,0)
(0,0,0)
(0,0,0)
(0,0,0)
(0,0,0)
(0,0,0)
(0,0,0)
(0,0,0)
(0,0,0)
(0,0,0)
(0,0,0)
(0,0,0)
(0,0,0)
(0,0,0)
(0,0,0)
(0,0,0)
(0,0,0)
(0,0,0)
(0,0,0)
(0,0,0)
(0,0,0)
(0,0,0)
(0,0,0)
(0,0,0)
(0,0,0)
(0,0,0)
(0,0,0)
(0,0,0)
(0,0,0)
(0,0,0)
(0,0,0)
(0,0,0)
(0,0,0)
(0,0,0)
(0,0,0)
(0,0,0)
(0,0,0)
(0,0,0)
(0,0,0)
(0,0,0)
(0,0,0)
(0,0,0)
(0,0,0)
(0,0,0)
(0,0,0)
(0,0,0)
(0,0,0)
(0,0,0)
(0,0,0)
(0,0,0)
(0,0,0)
(0,0,0)
(0,0,0)
(0,0,0)
(0,0,0)
(0,0,0)
(0,0,0)
(0,0,0)
(0,0,0)
(0,0,0)
(0,0,0)
(0,0,0)
(0,0,0)
(0,0,0)
(0,0,0)
(0,0,0)
(0,0,0)
(0,0,0)
(0,0,0)
(0,0,0)
(0,0,0)
(0,0,0)
(0,0,0)
(0,0,0)
(0,0,0)
(0,0,0)
(0,0,0)
(0,0,0)
(0,0,0)
(0,0,0)
(0,0,0)
(0,0,0)
(0,0,0)
(0,0,0)
(0,0,0)
(0,0,0)
(0,0,0)
(0,0,0)
(0,0,0)
(0,0,0)
(0,0,0)
(0,0,0)
(0,0,0)
(0,0,0)
(0,0,0)
(0,0,0)
(0,0,0)
(0,0,0)
(0,0,0)
(0,0,0)
(0,0,0)
(0,0,0)
(0,0,0)
(0,0,0)
(0,0,0)
(0,0,0)
(0,0,0)
(0,0,0)
(0,0,0)
(0,0,0)
(0,0,0)
(0,0,0)
(0,0,0)
(0,0,0)
(0,0,0)
(0,0,0)
(0,0,0)
(0,0,0)
(0,0,0)
(0,0,0)
(0,0,0)
(0,0,0)
(0,0,0)
(0,0,0)
(0,0,0)
(0,0,0)
(0,0,0)
(0,0,0)
(0,0,0)
(0,0,0)
(0,0,0)
(0,0,0)
(0,0,0)
(0,0,0)
(0,0,0)
(0,0,0)
(0,0,0)
(0,0,0)
(0,0,0)
(0,0,0)
(0,0,0)
(0,0,0)
(0,0,0)
(0,0,0)
(0,0,0)
(0,0,0)
(0,0,0)
(0,0,0)
(0,0,0)
(0,0,0)
(0,0,0)
(0,0,0)
(0,0,0)
(0,0,0)
(0,0,0)
(0,0,0)
(0,0,0)
(0,0,0)
(0,0,0)
(0,0,0)
(0,0,0)
(0,0,0)
(0,0,0)
(0,0,0)
(0,0,0)
(0,0,0)
(0,0,0)
(0,0,0)
(0,0,0)
(0,0,0)
(0,0,0)
(0,0,0)
(0,0,0)
(0,0,0)
(0,0,0)
(0,0,0)
(0,0,0)
(0,0,0)
(0,0,0)
(0,0,0)
(0,0,0)
(0,0,0)
(0,0,0)
(0,0,0)
(0,0,0)
(0,0,0)
(0,0,0)
(0,0,0)
(0,0,0)
(0,0,0)
(0,0,0)
(0,0,0)
(0,0,0)
(0,0,0)
(0,0,0)
(0,0,0)
(0,0,0)
(0,0,0)
(0,0,0)
(0,0,0)
(0,0,0)
(0,0,0)
(0,0,0)
(0,0,0)
(0,0,0)
(0,0,0)
(0,0,0)
(0,0,0)
(0,0,0)
(0,0,0)
(0,0,0)
(0,0,0)
(0,0,0)
(0,0,0)
(0,0,0)
(0,0,0)
(0,0,0)
(0,0,0)
(0,0,0)
(0,0,0)
(0,0,0)
(0,0,0)
(0,0,0)
(0,0,0)
(0,0,0)
(0,0,0)
(0,0,0)
(0,0,0)
(0,0,0)
(0,0,0)
(0,0,0)
(0,0,0)
(0,0,0)
(0,0,0)
(0,0,0)
(0,0,0)
(0,0,0)
(0,0,0)
(0,0,0)
(0,0,0)
(0,0,0)
(0,0,0)
(0,0,0)
(0,0,0)
(0,0,0)
(0,0,0)
(0,0,0)
(0,0,0)
(0,0,0)
(0,0,0)
(0,0,0)
(0,0,0)
(0,0,0)
(0,0,0)
(0,0,0)
(0,0,0)
(0,0,0)
(0,0,0)
(0,0,0)
(0,0,0)
(0,0,0)
(0,0,0)
(0,0,0)
(0,0,0)
(0,0,0)
(0,0,0)
(0,0,0)
(0,0,0)
(0,0,0)
(0,0,0)
(0,0,0)
(0,0,0)
(0,0,0)
(0,0,0)
(0,0,0)
(0,0,0)
(0,0,0)
(0,0,0)
(0,0,0)
(0,0,0)
(0,0,0)
(0,0,0)
(0,0,0)
(0,0,0)
(0,0,0)
(0,0,0)
(0,0,0)
(0,0,0)
(0,0,0)
(0,0,0)
(0,0,0)
(0,0,0)
(0,0,0)
(0,0,0)
(0,0,0)
(0,0,0)
(0,0,0)
(0,0,0)
(0,0,0)
(0,0,0)
(0,0,0)
(0,0,0)
(0,0,0)
(0,0,0)
(0,0,0)
(0,0,0)
(0,0,0)
(0,0,0)
(0,0,0)
(0,0,0)
(0,0,0)
(0,0,0)
(0,0,0)
(0,0,0)
(0,0,0)
(0,0,0)
(0,0,0)
(0,0,0)
(0,0,0)
(0,0,0)
(0,0,0)
(0,0,0)
(0,0,0)
(0,0,0)
(0,0,0)
(0,0,0)
(0,0,0)
(0,0,0)
(0,0,0)
(0,0,0)
(0,0,0)
(0,0,0)
(0,0,0)
(0,0,0)
(0,0,0)
(0,0,0)
(0,0,0)
(0,0,0)
(0,0,0)
(0,0,0)
(0,0,0)
(0,0,0)
(0,0,0)
(0,0,0)
(0,0,0)
(0,0,0)
(0,0,0)
(0,0,0)
(0,0,0)
(0,0,0)
(0,0,0)
(0,0,0)
(0,0,0)
(0,0,0)
(0,0,0)
(0,0,0)
(0,0,0)
(-1.77379998990422e-13,1.38608618007232e-11,-1.54404712902022e-11)
(-3.69288532959062e-13,2.8365831825113e-11,-1.47260996818773e-11)
(-4.53426016248504e-13,4.61246304633666e-11,-1.35391885957191e-11)
(3.34953773631815e-13,7.22243102118808e-11,-1.18828799013337e-11)
(1.80373496125751e-12,1.11971929556104e-10,-9.28746191028186e-12)
(2.06783293781174e-12,1.74589453898366e-10,-6.23321989719863e-12)
(1.84184374793916e-12,2.75606830279055e-10,-3.79972682022624e-12)
(1.2495347311127e-13,4.4394782974503e-10,-1.96479934578542e-12)
(-1.2560709926288e-12,7.24378621710055e-10,-9.24223537710525e-13)
(-2.53449805622876e-12,1.11680514920118e-09,-5.40005625586055e-13)
(0,0,0)
(0,0,0)
(0,0,0)
(0,0,0)
(0,0,0)
(0,0,0)
(1.90160976191661e-13,1.30657547878879e-11,-3.08330990047143e-11)
(6.32990497737754e-13,2.69900374233011e-11,-2.99533369418662e-11)
(7.59014605252541e-13,4.43753623743287e-11,-2.79503127470649e-11)
(1.40011006625913e-12,6.98865723192063e-11,-2.44454049194679e-11)
(2.89023273857699e-12,1.09105331868205e-10,-1.92334314565817e-11)
(3.56412303712747e-12,1.7204258582184e-10,-1.31961974594657e-11)
(2.40534834525491e-12,2.74111138428584e-10,-7.95949293564249e-12)
(-4.36146081007741e-13,4.43369800459247e-10,-4.60817482734338e-12)
(-3.02725899529181e-12,7.24338062324092e-10,-2.71336275290256e-12)
(-5.00186724469954e-12,1.11656680655628e-09,-1.49382737335983e-12)
(0,0,0)
(0,0,0)
(0,0,0)
(0,0,0)
(0,0,0)
(0,0,0)
(1.01734831307196e-12,1.20548598890328e-11,-5.05554675725625e-11)
(2.11019626132881e-12,2.47401950417094e-11,-4.93391071860012e-11)
(1.97265125607899e-12,4.08680030868217e-11,-4.61996660849403e-11)
(2.48852815730422e-12,6.49095723671007e-11,-4.11869652414387e-11)
(3.76876454122532e-12,1.02996757669049e-10,-3.41455774742072e-11)
(4.27410606787167e-12,1.66548504550348e-10,-2.57206030272838e-11)
(2.24030654168945e-12,2.70703236806661e-10,-1.73000057376531e-11)
(-1.85651552589728e-12,4.41618565051686e-10,-1.14195521184798e-11)
(-6.00003650282381e-12,7.2337709977712e-10,-7.53624705692252e-12)
(-8.17470231602413e-12,1.11552062758891e-09,-3.97934236140763e-12)
(0,0,0)
(0,0,0)
(0,0,0)
(0,0,0)
(0,0,0)
(0,0,0)
(2.82281027319988e-13,1.1076510023914e-11,-7.58036607620749e-11)
(1.03529287500939e-12,2.18786838038283e-11,-7.46104058801084e-11)
(9.01487159039412e-13,3.59568290042299e-11,-7.13097496071038e-11)
(2.33235725868434e-12,5.79139408015415e-11,-6.61362071471507e-11)
(4.07745038852835e-12,9.43408423672187e-11,-5.82190408574089e-11)
(3.65519826576069e-12,1.57760508557963e-10,-4.81374365584971e-11)
(6.1583444585824e-14,2.64303363572697e-10,-3.71555851048871e-11)
(-5.99365837843114e-12,4.38067481638314e-10,-2.76188269613542e-11)
(-1.09649944096226e-11,7.20241691791174e-10,-1.9240830123706e-11)
(-1.29650080702151e-11,1.11196804359926e-09,-1.02064997208832e-11)
(0,0,0)
(0,0,0)
(0,0,0)
(0,0,0)
(0,0,0)
(0,0,0)
(-1.26209805309181e-12,9.68470044620495e-12,-1.1292062443555e-10)
(-1.75722956846103e-12,1.84149703900034e-11,-1.11685975061399e-10)
(-1.74091391248022e-12,3.02221870107275e-11,-1.08857719899634e-10)
(5.56270456790516e-13,4.94148597738767e-11,-1.04551662083958e-10)
(2.28480169787757e-12,8.321741710139e-11,-9.71877982317258e-11)
(5.1688908170828e-13,1.44911668346173e-10,-8.71775021394916e-11)
(-4.502724007773e-12,2.53025729098549e-10,-7.54901833512093e-11)
(-1.12357817331908e-11,4.30273422350989e-10,-5.99163740692789e-11)
(-1.57158828836411e-11,7.1205389611629e-10,-4.24204549727878e-11)
(-1.78837654060972e-11,1.10266353266192e-09,-2.22744844569434e-11)
(0,0,0)
(0,0,0)
(0,0,0)
(0,0,0)
(0,0,0)
(0,0,0)
(-2.88538240134748e-12,7.80780844889167e-12,-1.72044612419964e-10)
(-5.02450437963954e-12,1.47620392438847e-11,-1.71154836805182e-10)
(-4.86462401193215e-12,2.45840572471706e-11,-1.69198807875231e-10)
(-2.51224608150029e-12,4.08141599646904e-11,-1.65909161886165e-10)
(-1.16878969565598e-12,7.12871987713644e-11,-1.59740047998459e-10)
(-3.77169809013337e-12,1.30468116017857e-10,-1.49876450342128e-10)
(-9.07931274673723e-12,2.38981983202552e-10,-1.35280432937733e-10)
(-1.59612146387743e-11,4.15122329191171e-10,-1.12852804373762e-10)
(-1.9826132269725e-11,6.93898200097346e-10,-8.23605696245068e-11)
(-2.18419430948019e-11,1.08215559084054e-09,-4.38124498671617e-11)
(0,0,0)
(0,0,0)
(0,0,0)
(0,0,0)
(0,0,0)
(0,0,0)
(-3.72779420301101e-12,5.96332159462151e-12,-2.69234347482534e-10)
(-6.49859682843247e-12,1.13635499556056e-11,-2.68869007627467e-10)
(-7.0207196739305e-12,1.93954134094282e-11,-2.673978220632e-10)
(-6.00063563691562e-12,3.29763240417732e-11,-2.64747521223226e-10)
(-5.96353632347237e-12,5.95388492247253e-11,-2.59473917731562e-10)
(-9.06883074037345e-12,1.13810146021573e-10,-2.49401495645999e-10)
(-1.29002160544028e-11,2.17504161986626e-10,-2.29617876129551e-10)
(-1.83360303979932e-11,3.8630477035016e-10,-1.98044496699152e-10)
(-2.20437754229925e-11,6.57222307344783e-10,-1.48284396505593e-10)
(-2.36893915845326e-11,1.04010217483458e-09,-8.07169411899032e-11)
(0,0,0)
(0,0,0)
(0,0,0)
(0,0,0)
(0,0,0)
(0,0,0)
(-4.85950411331548e-12,4.82748639703521e-12,-4.34934479508093e-10)
(-8.03515771159977e-12,8.75969925361523e-12,-4.34424657117491e-10)
(-8.9464200518046e-12,1.50862177537521e-11,-4.33166779011689e-10)
(-8.28532461407087e-12,2.64445142965334e-11,-4.30980490640494e-10)
(-9.16835647312303e-12,4.94887676474671e-11,-4.25439884603877e-10)
(-1.13942142845269e-11,9.70208076386486e-11,-4.1368742783387e-10)
(-1.45926733288404e-11,1.86877413857654e-10,-3.887526500622e-10)
(-1.85010914272687e-11,3.37270508687316e-10,-3.42017668130146e-10)
(-2.11520079859703e-11,5.90649615517686e-10,-2.64956342222268e-10)
(-2.23460603277547e-11,9.60390782346885e-10,-1.50156737585468e-10)
(0,0,0)
(0,0,0)
(0,0,0)
(0,0,0)
(0,0,0)
(0,0,0)
(-5.92299041347377e-12,3.56202185771352e-12,-7.13112811873404e-10)
(-1.00744878747255e-11,6.51379235525907e-12,-7.12589198715052e-10)
(-1.12081463190294e-11,1.12007880770359e-11,-7.11180114017568e-10)
(-1.09397081618188e-11,1.9438192229798e-11,-7.08269943867417e-10)
(-1.22200298188354e-11,3.69846950969204e-11,-7.01362253587022e-10)
(-1.29509885065743e-11,7.30464558677884e-11,-6.86222260974579e-10)
(-1.46563990076156e-11,1.40515693509898e-10,-6.53618154866653e-10)
(-1.67711336087692e-11,2.60085424536132e-10,-5.90180224974248e-10)
(-1.82567178990108e-11,4.7587588227812e-10,-4.77528622112162e-10)
(-1.85158356430856e-11,8.10585387386545e-10,-2.87337439419873e-10)
(0,0,0)
(0,0,0)
(0,0,0)
(0,0,0)
(0,0,0)
(0,0,0)
(-6.02850671231338e-12,1.78300623790253e-12,-1.10444383149615e-09)
(-1.06841462565485e-11,3.42182324038391e-12,-1.10401784073727e-09)
(-1.16877016757239e-11,5.93129222737079e-12,-1.10244929165993e-09)
(-1.16695952837903e-11,1.0201606479127e-11,-1.09851596253043e-09)
(-1.23549472549662e-11,1.98283445934881e-11,-1.09009449697748e-09)
(-1.26774823976202e-11,3.96224153538889e-11,-1.07197056892631e-09)
(-1.41498757980542e-11,7.69869458984738e-11,-1.03357197976429e-09)
(-1.46575445353201e-11,1.47232198089956e-10,-9.56969803802706e-10)
(-1.59107048741245e-11,2.85466578862103e-10,-8.09517414559227e-10)
(-1.65404107427874e-11,5.23502322554728e-10,-5.23906906585904e-10)
(0,0,0)
(0,0,0)
(0,0,0)
(0,0,0)
(0,0,0)
(0,0,0)
(0,0,0)
(0,0,0)
(0,0,0)
(0,0,0)
(0,0,0)
(0,0,0)
(0,0,0)
(0,0,0)
(0,0,0)
(0,0,0)
(0,0,0)
(0,0,0)
(0,0,0)
(0,0,0)
(0,0,0)
(0,0,0)
(0,0,0)
(0,0,0)
(0,0,0)
(0,0,0)
(0,0,0)
(0,0,0)
(0,0,0)
(0,0,0)
(0,0,0)
(0,0,0)
(0,0,0)
(0,0,0)
(0,0,0)
(0,0,0)
(0,0,0)
(0,0,0)
(0,0,0)
(0,0,0)
(0,0,0)
(0,0,0)
(0,0,0)
(0,0,0)
(0,0,0)
(0,0,0)
(0,0,0)
(0,0,0)
(0,0,0)
(0,0,0)
(0,0,0)
(0,0,0)
(0,0,0)
(0,0,0)
(0,0,0)
(0,0,0)
(0,0,0)
(0,0,0)
(0,0,0)
(0,0,0)
(0,0,0)
(0,0,0)
(0,0,0)
(0,0,0)
(0,0,0)
(0,0,0)
(0,0,0)
(0,0,0)
(0,0,0)
(0,0,0)
(0,0,0)
(0,0,0)
(0,0,0)
(0,0,0)
(0,0,0)
(0,0,0)
(0,0,0)
(0,0,0)
(0,0,0)
(0,0,0)
(0,0,0)
(0,0,0)
(0,0,0)
(0,0,0)
(0,0,0)
(0,0,0)
(0,0,0)
(0,0,0)
(0,0,0)
(0,0,0)
(0,0,0)
(0,0,0)
(0,0,0)
(0,0,0)
(0,0,0)
(0,0,0)
(0,0,0)
(0,0,0)
(0,0,0)
(0,0,0)
(0,0,0)
(0,0,0)
(-9.66445944817595e-14,2.50033600466534e-11,-2.85661047391492e-11)
(-1.80405217308403e-13,5.18041379654352e-11,-2.75107742214738e-11)
(-3.60466621595177e-13,8.61805968883285e-11,-2.55461878971573e-11)
(7.727367524139e-14,1.3382104719177e-10,-2.22406874606385e-11)
(1.61609063602923e-12,2.03060159266682e-10,-1.70509970694399e-11)
(2.18120793741695e-12,3.10992680932225e-10,-1.05672037013162e-11)
(1.50260812407641e-12,4.84491657257226e-10,-4.60546777059761e-12)
(-3.37593049379966e-13,7.78297223907864e-10,-1.15099625115788e-12)
(-1.59972951919862e-12,1.3395543203545e-09,1.35880464338624e-13)
(-2.83616103736457e-12,2.62775049510635e-09,9.05465407174473e-14)
(0,0,0)
(0,0,0)
(0,0,0)
(0,0,0)
(0,0,0)
(0,0,0)
(3.21293812197579e-13,2.40786073003069e-11,-5.80770099729663e-11)
(8.79808684542066e-13,5.01188630333335e-11,-5.62052198420047e-11)
(7.61466065143542e-13,8.30532405236423e-11,-5.22849031765313e-11)
(1.16513655547406e-12,1.29316960889115e-10,-4.54301672814882e-11)
(2.96157294062767e-12,1.97778803522643e-10,-3.48658490297345e-11)
(3.82149978477342e-12,3.06355493568538e-10,-2.16702410063139e-11)
(2.4619318587315e-12,4.82196478218257e-10,-9.4276897012069e-12)
(-5.79722747507171e-13,7.77986552275227e-10,-3.19775752654901e-12)
(-3.28583182740206e-12,1.34036266382908e-09,-1.10744797238147e-12)
(-5.44951565059278e-12,2.62816758311702e-09,-6.75486096612151e-13)
(0,0,0)
(0,0,0)
(0,0,0)
(0,0,0)
(0,0,0)
(0,0,0)
(7.79337791630366e-13,2.21338145493671e-11,-9.43483038167002e-11)
(1.8322663981526e-12,4.63867120238395e-11,-9.17681032666655e-11)
(1.8711244951937e-12,7.65015729408595e-11,-8.58066367296969e-11)
(2.4427719556259e-12,1.19641891695933e-10,-7.57808670456743e-11)
(3.99970539607691e-12,1.86026212098283e-10,-6.06208579668681e-11)
(4.6415047706322e-12,2.95748925530699e-10,-4.12806670851295e-11)
(2.7597261564955e-12,4.76912873405049e-10,-2.19838901371935e-11)
(-2.18873717427549e-12,7.77102010362271e-10,-1.24703846358082e-11)
(-6.42153321250584e-12,1.3410375240602e-09,-8.49077171301189e-12)
(-8.60146068787732e-12,2.62828788159291e-09,-4.86055214324219e-12)
(0,0,0)
(0,0,0)
(0,0,0)
(0,0,0)
(0,0,0)
(0,0,0)
(4.80835723062496e-13,1.96479058627688e-11,-1.40943900843931e-10)
(1.19835001582816e-12,4.08335354518184e-11,-1.38036425287594e-10)
(1.46258669258073e-12,6.67687386149706e-11,-1.31465237063352e-10)
(2.91427199661207e-12,1.05002640406957e-10,-1.20591520581792e-10)
(5.11927135544219e-12,1.67267828694065e-10,-1.03242870322932e-10)
(5.52218702396603e-12,2.76386909532127e-10,-8.01332429613025e-11)
(1.80245977519881e-12,4.65517034340846e-10,-5.5230644016493e-11)
(-6.57759592872387e-12,7.74553344059281e-10,-4.03598592944185e-11)
(-1.18115291369971e-11,1.33909596957272e-09,-2.93020657164595e-11)
(-1.38669968529156e-11,2.62469448526051e-09,-1.60950263063469e-11)
(0,0,0)
(0,0,0)
(0,0,0)
(0,0,0)
(0,0,0)
(0,0,0)
(-6.19855429929835e-13,1.69393343082294e-11,-2.08048659216371e-10)
(-9.32553584108895e-13,3.41218269408563e-11,-2.04829645590244e-10)
(-4.08841964601221e-13,5.48952197580953e-11,-1.98531038961583e-10)
(1.79310641373433e-12,8.6425936724834e-11,-1.89177448269864e-10)
(4.20472393568958e-12,1.41766128555979e-10,-1.7429221216735e-10)
(3.27312262168683e-12,2.45652524593481e-10,-1.55253751657395e-10)
(-6.03278739365234e-12,4.40407395256173e-10,-1.37233631647049e-10)
(-1.35806076696979e-11,7.6518249777529e-10,-1.05525585075317e-10)
(-1.77061573808119e-11,1.32865082135903e-09,-7.39485841910282e-11)
(-1.96503080420881e-11,2.61058225888355e-09,-3.87022355687573e-11)
(0,0,0)
(0,0,0)
(0,0,0)
(0,0,0)
(0,0,0)
(0,0,0)
(-1.93067116185794e-12,1.36379328495233e-11,-3.10675849758147e-10)
(-3.58204402131566e-12,2.68634707310671e-11,-3.08408656109464e-10)
(-2.96562616326018e-12,4.32242226392874e-11,-3.0379530655329e-10)
(-8.43524046278738e-13,6.80833808788617e-11,-2.96688447011157e-10)
(7.15962194664854e-13,1.15800600887536e-10,-2.85238390234981e-10)
(-1.70974549828634e-12,2.15120810465615e-10,-2.68547047722978e-10)
(-1.00291200947436e-11,4.19123799108387e-10,-2.45822907751392e-10)
(-1.76358905471051e-11,7.42161185471968e-10,-2.04036044985701e-10)
(-2.16983592745722e-11,1.2982845077935e-09,-1.47229913166318e-10)
(-2.36009769553663e-11,2.57470194098626e-09,-7.74498266869089e-11)
(0,0,0)
(0,0,0)
(0,0,0)
(0,0,0)
(0,0,0)
(0,0,0)
(-2.95729886049257e-12,1.03852678778739e-11,-4.7494740827976e-10)
(-5.36593169070703e-12,2.00709252067134e-11,-4.74030299806607e-10)
(-5.36182485822435e-12,3.27059037072241e-11,-4.71350305820608e-10)
(-4.74242938334728e-12,5.20247555080383e-11,-4.66786593130557e-10)
(-5.98587683174807e-12,9.15637003383593e-11,-4.59536535154878e-10)
(-1.2063111873876e-11,1.80026921351524e-10,-4.45554948336798e-10)
(-1.38468473558361e-11,3.8132719162644e-10,-4.08468024843774e-10)
(-1.90618689288441e-11,6.9132786165354e-10,-3.57815180935185e-10)
(-2.30385389116021e-11,1.23265369492012e-09,-2.64970536436921e-10)
(-2.46949402864103e-11,2.49993653965783e-09,-1.42697984625473e-10)
(0,0,0)
(0,0,0)
(0,0,0)
(0,0,0)
(0,0,0)
(0,0,0)
(-4.10386196459509e-12,8.45258297838653e-12,-7.6100095290585e-10)
(-7.04712891904425e-12,1.53025059035673e-11,-7.60248910818726e-10)
(-7.24727874628043e-12,2.49287992526476e-11,-7.58518596009825e-10)
(-6.81960858395917e-12,4.15257831907608e-11,-7.55212080965573e-10)
(-8.41674069260611e-12,7.80880650134139e-11,-7.48426958511496e-10)
(-1.2354640285309e-11,1.60053055249868e-10,-7.32880641911667e-10)
(-1.49659349130934e-11,3.31049104195258e-10,-6.93208592725734e-10)
(-1.83773331840976e-11,5.99944318896829e-10,-6.08869947363614e-10)
(-2.11778793830541e-11,1.11217591905445e-09,-4.69240300789999e-10)
(-2.26974029532637e-11,2.35869263706395e-09,-2.66756180948549e-10)
(0,0,0)
(0,0,0)
(0,0,0)
(0,0,0)
(0,0,0)
(0,0,0)
(-4.66758795201446e-12,6.09507985423866e-12,-1.31833658381311e-09)
(-8.3916034573334e-12,1.10587963258797e-11,-1.31723340101707e-09)
(-8.84882061951215e-12,1.80683698614871e-11,-1.315166295403e-09)
(-8.61081269153437e-12,3.11433141550531e-11,-1.31058082519556e-09)
(-1.02036719278373e-11,6.03913383677024e-11,-1.30031532505122e-09)
(-1.21310541006154e-11,1.23390630837483e-10,-1.27677489491166e-09)
(-1.45655812885836e-11,2.46626687241058e-10,-1.22250989638973e-09)
(-1.65695100246904e-11,4.6026775503208e-10,-1.11103887687673e-09)
(-1.80385971752811e-11,9.10265356602238e-10,-9.13098650781486e-10)
(-1.87702102314007e-11,2.09268629271414e-09,-5.71217632350056e-10)
(0,0,0)
(0,0,0)
(0,0,0)
(0,0,0)
(0,0,0)
(0,0,0)
(-4.6714912332949e-12,3.02341985961693e-12,-2.60407520673926e-09)
(-8.83087209350077e-12,5.89579974083351e-12,-2.60282783867547e-09)
(-9.68973857785983e-12,9.70027515869447e-12,-2.60010359890944e-09)
(-9.88945435761671e-12,1.70326268605833e-11,-2.59398511091592e-09)
(-1.06505307126531e-11,3.31941550692301e-11,-2.58050601076246e-09)
(-1.1453656205764e-11,6.74728263920329e-11,-2.55051112081189e-09)
(-1.37651058611923e-11,1.34106251773185e-10,-2.48511197494369e-09)
(-1.48777356888064e-11,2.61665198422099e-10,-2.35222176627049e-09)
(-1.60546339853487e-11,5.68344485738787e-10,-2.09111659489619e-09)
(-1.69449947738581e-11,1.52219089492033e-09,-1.52282581623146e-09)
(0,0,0)
(0,0,0)
(0,0,0)
(0,0,0)
(0,0,0)
(0,0,0)
(0,0,0)
(0,0,0)
(0,0,0)
(0,0,0)
(0,0,0)
(0,0,0)
(0,0,0)
(0,0,0)
(0,0,0)
(0,0,0)
(0,0,0)
(0,0,0)
(0,0,0)
(0,0,0)
(0,0,0)
(0,0,0)
(0,0,0)
(0,0,0)
(0,0,0)
(0,0,0)
(0,0,0)
(0,0,0)
(0,0,0)
(0,0,0)
(0,0,0)
(0,0,0)
(0,0,0)
(0,0,0)
(0,0,0)
(0,0,0)
(0,0,0)
(0,0,0)
(0,0,0)
(0,0,0)
(0,0,0)
(0,0,0)
(0,0,0)
(0,0,0)
(0,0,0)
(0,0,0)
(0,0,0)
(0,0,0)
(0,0,0)
(0,0,0)
(0,0,0)
(0,0,0)
(0,0,0)
(0,0,0)
(0,0,0)
(0,0,0)
(0,0,0)
(0,0,0)
(0,0,0)
(0,0,0)
(0,0,0)
(0,0,0)
(0,0,0)
(0,0,0)
(0,0,0)
(0,0,0)
(0,0,0)
(0,0,0)
(0,0,0)
(0,0,0)
(0,0,0)
(0,0,0)
(0,0,0)
(0,0,0)
(0,0,0)
(0,0,0)
(0,0,0)
(0,0,0)
(0,0,0)
(0,0,0)
(0,0,0)
(0,0,0)
(0,0,0)
(0,0,0)
(0,0,0)
(0,0,0)
(0,0,0)
(0,0,0)
(0,0,0)
(0,0,0)
(0,0,0)
(0,0,0)
(0,0,0)
(0,0,0)
(0,0,0)
(0,0,0)
(0,0,0)
(0,0,0)
(0,0,0)
(0,0,0)
(0,0,0)
(0,0,0)
(-2.27222366226162e-13,3.39181081694368e-11,-3.74804696418127e-11)
(-4.59716609690782e-13,7.02007093925108e-11,-3.61142865826704e-11)
(-5.38610692478716e-13,1.16229405956064e-10,-3.33683596082737e-11)
(-6.08330413792992e-13,1.78220702270831e-10,-2.86015724416391e-11)
(4.13653012162173e-13,2.6375366462859e-10,-2.11304893774118e-11)
(8.56659370566086e-13,3.89545929206937e-10,-1.0835972321117e-11)
(3.43315642944174e-13,5.74927337064154e-10,-7.1298802659355e-13)
(-1.31379813249525e-12,8.44076280570794e-10,3.43838687048059e-12)
(-2.36273906959987e-12,1.22799317268361e-09,3.48196393288006e-12)
(-3.16270250823241e-12,1.69657227319154e-09,1.76542366357092e-12)
(0,0,0)
(0,0,0)
(0,0,0)
(0,0,0)
(0,0,0)
(0,0,0)
(3.94296432071206e-13,3.27715120272387e-11,-7.76809760337734e-11)
(6.91643028228989e-13,6.78274564400089e-11,-7.47717349755691e-11)
(4.58397751322714e-13,1.11615409214335e-10,-6.87579631588216e-11)
(2.75887497479825e-13,1.71165059438268e-10,-5.81964599761676e-11)
(1.51855634205659e-12,2.55081955190627e-10,-4.17032567528622e-11)
(2.18551651710235e-12,3.81979971027979e-10,-1.93088955054724e-11)
(1.51560449703222e-12,5.73038133615128e-10,2.59772940060351e-12)
(-1.78549038812563e-12,8.46159903113945e-10,8.91723558125902e-12)
(-4.39265393386945e-12,1.23114551984702e-09,7.03982419571003e-12)
(-6.24530022285902e-12,1.69889001265647e-09,3.28781142143125e-12)
(0,0,0)
(0,0,0)
(0,0,0)
(0,0,0)
(0,0,0)
(0,0,0)
(6.85045926553196e-13,2.99971261420569e-11,-1.25770075054322e-10)
(1.42397643408433e-12,6.25554550976098e-11,-1.21794405099974e-10)
(1.57818913750865e-12,1.01917140690639e-10,-1.12755569670753e-10)
(1.92201416533191e-12,1.5588929182405e-10,-9.67872066802214e-11)
(3.41789791825796e-12,2.35303041557318e-10,-7.12854778283152e-11)
(4.70674382142791e-12,3.6370935105543e-10,-3.49266944413248e-11)
(4.64205971924106e-12,5.69570322920954e-10,4.89729788353207e-12)
(-3.61968379415065e-12,8.52329491502691e-10,9.97828548077731e-12)
(-8.11019829378959e-12,1.23804389742042e-09,3.90853790489781e-12)
(-9.86861649938196e-12,1.70378448710013e-09,1.50871670655626e-13)
(0,0,0)
(0,0,0)
(0,0,0)
(0,0,0)
(0,0,0)
(0,0,0)
(2.81931720845636e-13,2.61004422264738e-11,-1.86333589026565e-10)
(1.33887030335897e-12,5.40277210160826e-11,-1.82047494293891e-10)
(2.46238906717784e-12,8.69373989945432e-11,-1.72196681235424e-10)
(4.14232541878167e-12,1.32015046817941e-10,-1.54202234203489e-10)
(7.51134413210614e-12,2.01664426377533e-10,-1.2406823069496e-10)
(1.13539730187994e-11,3.26148966953973e-10,-7.74849072618796e-11)
(1.20413141379964e-11,5.60177952787149e-10,-1.53915658406529e-11)
(-8.26454322300548e-12,8.65001251425628e-10,-1.43019389506189e-11)
(-1.45734203325026e-11,1.24745051431735e-09,-1.85511184205647e-11)
(-1.5849796783665e-11,1.70747499841889e-09,-1.28814528215658e-11)
(0,0,0)
(0,0,0)
(0,0,0)
(0,0,0)
(0,0,0)
(0,0,0)
(-5.37467598068324e-13,2.19691159951859e-11,-2.69923921494359e-10)
(2.71959979426264e-14,4.37219981707063e-11,-2.6521264037785e-10)
(1.9085644610827e-12,6.83398666283304e-11,-2.55714986965094e-10)
(5.25042615722766e-12,1.01391758472849e-10,-2.40239997296985e-10)
(1.11317910958468e-11,1.53844063775022e-10,-2.15878825677006e-10)
(1.57847167381007e-11,2.54292805539693e-10,-1.85342811589848e-10)
(-1.64572378186819e-11,4.93623881049149e-10,-1.89014034867206e-10)
(-2.21362962508912e-11,8.77507384055401e-10,-1.22708659508006e-10)
(-2.25861924358396e-11,1.24995780244758e-09,-8.3798903337178e-11)
(-2.24722257139316e-11,1.69902548116459e-09,-4.41215542676798e-11)
(0,0,0)
(0,0,0)
(0,0,0)
(0,0,0)
(0,0,0)
(0,0,0)
(-9.45199838631311e-13,1.72199813068816e-11,-3.89596110982388e-10)
(-1.40284805339022e-12,3.2802629293657e-11,-3.85899636528338e-10)
(4.45833226811709e-13,4.99862926427322e-11,-3.78800841057114e-10)
(3.76504454952934e-12,7.16730866967732e-11,-3.6791474013889e-10)
(8.26152023116771e-12,1.08852452530985e-10,-3.51790087250097e-10)
(1.06600036438581e-11,1.99906221986391e-10,-3.30269089600757e-10)
(-1.40193753774736e-11,4.96507723224016e-10,-3.23837817507704e-10)
(-2.36086985489591e-11,8.6458254316141e-10,-2.58848123172452e-10)
(-2.58476328799204e-11,1.22014464301925e-09,-1.81028237748294e-10)
(-2.6285402314409e-11,1.65863763320951e-09,-9.34123625190667e-11)
(0,0,0)
(0,0,0)
(0,0,0)
(0,0,0)
(0,0,0)
(0,0,0)
(-1.94172243247554e-12,1.27929551420498e-11,-5.63235949306244e-10)
(-3.27750637546762e-12,2.33634855376671e-11,-5.61261274179782e-10)
(-2.14843309356835e-12,3.46644744741522e-11,-5.57858696625787e-10)
(-1.49351504156769e-12,4.68803700741119e-11,-5.5395639440645e-10)
(-6.49182832482479e-12,6.63007224567366e-11,-5.52798338356302e-10)
(-2.91761692647616e-11,1.20786204082472e-10,-5.56600533883209e-10)
(-1.42216038335363e-11,4.50485874001904e-10,-4.81365960427097e-10)
(-2.0522970671379e-11,8.05403287801434e-10,-4.63887638870827e-10)
(-2.48333148567273e-11,1.13991641137453e-09,-3.22994888618998e-10)
(-2.61490223181555e-11,1.56765841686094e-09,-1.66253463599006e-10)
(0,0,0)
(0,0,0)
(0,0,0)
(0,0,0)
(0,0,0)
(0,0,0)
(-2.49840092661668e-12,9.81728480758644e-12,-8.2084485101835e-10)
(-4.53373415004782e-12,1.69732331358759e-11,-8.19439121911936e-10)
(-3.6933644002174e-12,2.51425728248001e-11,-8.18103894196809e-10)
(-3.22226200147736e-12,3.72398369783296e-11,-8.16912307421278e-10)
(-6.26633064735687e-12,6.66075891558982e-11,-8.17808218726287e-10)
(-1.53642650586453e-11,1.52737788703925e-10,-8.20420497831501e-10)
(-1.48821633214613e-11,4.12153017864011e-10,-7.98392267814398e-10)
(-1.83304158934436e-11,6.67059287869163e-10,-6.80024691881273e-10)
(-2.17514367724974e-11,9.8507350912756e-10,-4.95600662768614e-10)
(-2.34472395511883e-11,1.40192244849642e-09,-2.67222759408421e-10)
(0,0,0)
(0,0,0)
(0,0,0)
(0,0,0)
(0,0,0)
(0,0,0)
(-2.6991107540534e-12,6.83042749180096e-12,-1.19707575487734e-09)
(-5.2957124867204e-12,1.18886539562283e-11,-1.19577155950514e-09)
(-5.06619612292659e-12,1.80186190263245e-11,-1.19442258537594e-09)
(-4.76562554191778e-12,3.01015034623331e-11,-1.19154336668805e-09)
(-6.54691876840573e-12,6.00947289746047e-11,-1.1851647379691e-09)
(-1.04782481771356e-11,1.33268496179729e-10,-1.16796078195502e-09)
(-1.35161653332821e-11,2.90530791714695e-10,-1.11571981078115e-09)
(-1.59071795116187e-11,4.8251975238877e-10,-9.79975276377204e-10)
(-1.79987447419233e-11,7.56489538246082e-10,-7.58660325733533e-10)
(-1.94924447880795e-11,1.13454739461351e-09,-4.35932170399728e-10)
(0,0,0)
(0,0,0)
(0,0,0)
(0,0,0)
(0,0,0)
(0,0,0)
(-2.89543943872297e-12,3.51119758598046e-12,-1.66158694086505e-09)
(-5.65931211857381e-12,6.55176512583455e-12,-1.66041940100356e-09)
(-6.10795141253029e-12,9.96489487948439e-12,-1.65817669132648e-09)
(-6.33592765026607e-12,1.75763737563488e-11,-1.6530930483707e-09)
(-7.45126559388232e-12,3.55932161529982e-11,-1.64069788194126e-09)
(-9.37997568282197e-12,7.56145862621641e-11,-1.61040104073856e-09)