/*--------------------------------*- C++ -*----------------------------------*\
| =========                 |                                                 |
| \\      /  F ield         | foam-extend: Open Source CFD                    |
|  \\    /   O peration     | Version:     4.0                                |
|   \\  /    A nd           | Web:         http://www.foam-extend.org         |
|    \\/     M anipulation  |                                                 |
\*---------------------------------------------------------------------------*/
FoamFile
{
    version 2.0;
    format ascii;
    class volVectorField;
    location "1090";
    object      H;
}
// * * * * * * * * * * * * * * * * * * * * * * * * * * * * * * * * * * * * * //

dimensions      [0 1 -1 0 0 0 0];

internalField   nonuniform List<vector>
4096
(
(0,0,0)
(0,0,0)
(0,0,0)
(0,0,0)
(0,0,0)
(0,0,0)
(0,0,0)
(0,0,0)
(0,0,0)
(0,0,0)
(0,0,0)
(0,0,0)
(0,0,0)
(0,0,0)
(0,0,0)
(0,0,0)
(0,0,0)
(0,0,0)
(0,0,0)
(0,0,0)
(0,0,0)
(0,0,0)
(0,0,0)
(0,0,0)
(0,0,0)
(0,0,0)
(0,0,0)
(0,0,0)
(0,0,0)
(0,0,0)
(0,0,0)
(0,0,0)
(0,0,0)
(0,0,0)
(0,0,0)
(0,0,0)
(0,0,0)
(0,0,0)
(0,0,0)
(0,0,0)
(0,0,0)
(0,0,0)
(0,0,0)
(0,0,0)
(0,0,0)
(0,0,0)
(0,0,0)
(0,0,0)
(0,0,0)
(0,0,0)
(0,0,0)
(0,0,0)
(0,0,0)
(0,0,0)
(0,0,0)
(0,0,0)
(0,0,0)
(0,0,0)
(0,0,0)
(0,0,0)
(0,0,0)
(0,0,0)
(0,0,0)
(0,0,0)
(0,0,0)
(0,0,0)
(0,0,0)
(0,0,0)
(0,0,0)
(0,0,0)
(0,0,0)
(0,0,0)
(0,0,0)
(0,0,0)
(0,0,0)
(0,0,0)
(0,0,0)
(0,0,0)
(0,0,0)
(0,0,0)
(0,0,0)
(0,0,0)
(0,0,0)
(0,0,0)
(0,0,0)
(0,0,0)
(0,0,0)
(0,0,0)
(0,0,0)
(0,0,0)
(0,0,0)
(0,0,0)
(0,0,0)
(0,0,0)
(0,0,0)
(0,0,0)
(0,0,0)
(0,0,0)
(0,0,0)
(0,0,0)
(0,0,0)
(0,0,0)
(0,0,0)
(0,0,0)
(0,0,0)
(0,0,0)
(0,0,0)
(0,0,0)
(0,0,0)
(0,0,0)
(0,0,0)
(0,0,0)
(0,0,0)
(0,0,0)
(0,0,0)
(0,0,0)
(0,0,0)
(0,0,0)
(0,0,0)
(0,0,0)
(0,0,0)
(0,0,0)
(0,0,0)
(0,0,0)
(0,0,0)
(0,0,0)
(0,0,0)
(0,0,0)
(0,0,0)
(0,0,0)
(0,0,0)
(0,0,0)
(0,0,0)
(0,0,0)
(0,0,0)
(0,0,0)
(0,0,0)
(0,0,0)
(0,0,0)
(0,0,0)
(0,0,0)
(0,0,0)
(0,0,0)
(0,0,0)
(0,0,0)
(0,0,0)
(0,0,0)
(0,0,0)
(0,0,0)
(0,0,0)
(0,0,0)
(0,0,0)
(0,0,0)
(0,0,0)
(0,0,0)
(0,0,0)
(0,0,0)
(0,0,0)
(0,0,0)
(0,0,0)
(0,0,0)
(0,0,0)
(0,0,0)
(0,0,0)
(0,0,0)
(0,0,0)
(0,0,0)
(0,0,0)
(0,0,0)
(0,0,0)
(0,0,0)
(0,0,0)
(0,0,0)
(0,0,0)
(0,0,0)
(0,0,0)
(0,0,0)
(0,0,0)
(0,0,0)
(0,0,0)
(0,0,0)
(0,0,0)
(0,0,0)
(0,0,0)
(0,0,0)
(0,0,0)
(0,0,0)
(0,0,0)
(0,0,0)
(0,0,0)
(0,0,0)
(0,0,0)
(0,0,0)
(0,0,0)
(0,0,0)
(0,0,0)
(0,0,0)
(0,0,0)
(0,0,0)
(0,0,0)
(0,0,0)
(0,0,0)
(0,0,0)
(0,0,0)
(0,0,0)
(0,0,0)
(0,0,0)
(0,0,0)
(0,0,0)
(0,0,0)
(0,0,0)
(0,0,0)
(0,0,0)
(0,0,0)
(0,0,0)
(0,0,0)
(0,0,0)
(0,0,0)
(0,0,0)
(0,0,0)
(0,0,0)
(0,0,0)
(0,0,0)
(0,0,0)
(0,0,0)
(0,0,0)
(0,0,0)
(0,0,0)
(0,0,0)
(0,0,0)
(0,0,0)
(0,0,0)
(0,0,0)
(0,0,0)
(0,0,0)
(0,0,0)
(0,0,0)
(0,0,0)
(0,0,0)
(0,0,0)
(0,0,0)
(0,0,0)
(0,0,0)
(0,0,0)
(0,0,0)
(0,0,0)
(0,0,0)
(0,0,0)
(0,0,0)
(0,0,0)
(0,0,0)
(0,0,0)
(0,0,0)
(0,0,0)
(0,0,0)
(0,0,0)
(0,0,0)
(0,0,0)
(0,0,0)
(0,0,0)
(0,0,0)
(0,0,0)
(0,0,0)
(0,0,0)
(0,0,0)
(0,0,0)
(0,0,0)
(0,0,0)
(0,0,0)
(0,0,0)
(0,0,0)
(0,0,0)
(0,0,0)
(0,0,0)
(0,0,0)
(0,0,0)
(0,0,0)
(0,0,0)
(0,0,0)
(0,0,0)
(0,0,0)
(0,0,0)
(0,0,0)
(0,0,0)
(0,0,0)
(0,0,0)
(0,0,0)
(0,0,0)
(0,0,0)
(0,0,0)
(0,0,0)
(0,0,0)
(0,0,0)
(0,0,0)
(0,0,0)
(0,0,0)
(0,0,0)
(0,0,0)
(0,0,0)
(0,0,0)
(0,0,0)
(0,0,0)
(0,0,0)
(0,0,0)
(0,0,0)
(0,0,0)
(0,0,0)
(0,0,0)
(0,0,0)
(0,0,0)
(0,0,0)
(0,0,0)
(0,0,0)
(0,0,0)
(0,0,0)
(0,0,0)
(0,0,0)
(0,0,0)
(0,0,0)
(0,0,0)
(0,0,0)
(0,0,0)
(0,0,0)
(0,0,0)
(0,0,0)
(0,0,0)
(0,0,0)
(0,0,0)
(0,0,0)
(0,0,0)
(0,0,0)
(0,0,0)
(0,0,0)
(0,0,0)
(0,0,0)
(0,0,0)
(0,0,0)
(0,0,0)
(0,0,0)
(0,0,0)
(0,0,0)
(0,0,0)
(0,0,0)
(0,0,0)
(0,0,0)
(0,0,0)
(0,0,0)
(0,0,0)
(0,0,0)
(0,0,0)
(0,0,0)
(0,0,0)
(0,0,0)
(0,0,0)
(0,0,0)
(0,0,0)
(0,0,0)
(0,0,0)
(0,0,0)
(0,0,0)
(0,0,0)
(0,0,0)
(0,0,0)
(0,0,0)
(0,0,0)
(0,0,0)
(0,0,0)
(0,0,0)
(0,0,0)
(0,0,0)
(0,0,0)
(0,0,0)
(0,0,0)
(0,0,0)
(0,0,0)
(0,0,0)
(0,0,0)
(0,0,0)
(0,0,0)
(0,0,0)
(0,0,0)
(0,0,0)
(0,0,0)
(0,0,0)
(0,0,0)
(0,0,0)
(0,0,0)
(0,0,0)
(0,0,0)
(0,0,0)
(0,0,0)
(0,0,0)
(0,0,0)
(0,0,0)
(0,0,0)
(0,0,0)
(0,0,0)
(0,0,0)
(0,0,0)
(0,0,0)
(0,0,0)
(0,0,0)
(0,0,0)
(0,0,0)
(0,0,0)
(0,0,0)
(0,0,0)
(0,0,0)
(0,0,0)
(0,0,0)
(0,0,0)
(0,0,0)
(0,0,0)
(0,0,0)
(0,0,0)
(0,0,0)
(0,0,0)
(0,0,0)
(0,0,0)
(0,0,0)
(0,0,0)
(0,0,0)
(0,0,0)
(0,0,0)
(0,0,0)
(0,0,0)
(0,0,0)
(0,0,0)
(0,0,0)
(0,0,0)
(0,0,0)
(0,0,0)
(0,0,0)
(0,0,0)
(0,0,0)
(0,0,0)
(0,0,0)
(0,0,0)
(0,0,0)
(0,0,0)
(0,0,0)
(0,0,0)
(0,0,0)
(0,0,0)
(0,0,0)
(0,0,0)
(0,0,0)
(0,0,0)
(0,0,0)
(0,0,0)
(0,0,0)
(0,0,0)
(0,0,0)
(0,0,0)
(0,0,0)
(0,0,0)
(0,0,0)
(0,0,0)
(0,0,0)
(0,0,0)
(0,0,0)
(0,0,0)
(0,0,0)
(0,0,0)
(0,0,0)
(0,0,0)
(0,0,0)
(0,0,0)
(0,0,0)
(0,0,0)
(0,0,0)
(0,0,0)
(0,0,0)
(0,0,0)
(0,0,0)
(0,0,0)
(0,0,0)
(0,0,0)
(0,0,0)
(0,0,0)
(0,0,0)
(0,0,0)
(0,0,0)
(0,0,0)
(0,0,0)
(0,0,0)
(0,0,0)
(0,0,0)
(0,0,0)
(0,0,0)
(0,0,0)
(0,0,0)
(0,0,0)
(0,0,0)
(0,0,0)
(0,0,0)
(0,0,0)
(0,0,0)
(0,0,0)
(0,0,0)
(0,0,0)
(0,0,0)
(0,0,0)
(0,0,0)
(0,0,0)
(0,0,0)
(0,0,0)
(0,0,0)
(0,0,0)
(0,0,0)
(0,0,0)
(0,0,0)
(0,0,0)
(0,0,0)
(0,0,0)
(0,0,0)
(0,0,0)
(0,0,0)
(0,0,0)
(0,0,0)
(0,0,0)
(0,0,0)
(0,0,0)
(0,0,0)
(0,0,0)
(0,0,0)
(0,0,0)
(0,0,0)
(0,0,0)
(0,0,0)
(0,0,0)
(0,0,0)
(0,0,0)
(0,0,0)
(0,0,0)
(0,0,0)
(0,0,0)
(0,0,0)
(0,0,0)
(0,0,0)
(0,0,0)
(0,0,0)
(0,0,0)
(0,0,0)
(0,0,0)
(0,0,0)
(0,0,0)
(0,0,0)
(0,0,0)
(0,0,0)
(0,0,0)
(0,0,0)
(0,0,0)
(0,0,0)
(0,0,0)
(0,0,0)
(0,0,0)
(0,0,0)
(0,0,0)
(0,0,0)
(0,0,0)
(0,0,0)
(0,0,0)
(0,0,0)
(0,0,0)
(0,0,0)
(0,0,0)
(0,0,0)
(0,0,0)
(0,0,0)
(0,0,0)
(0,0,0)
(0,0,0)
(0,0,0)
(0,0,0)
(0,0,0)
(0,0,0)
(0,0,0)
(0,0,0)
(0,0,0)
(0,0,0)
(0,0,0)
(0,0,0)
(0,0,0)
(0,0,0)
(0,0,0)
(0,0,0)
(0,0,0)
(0,0,0)
(0,0,0)
(0,0,0)
(0,0,0)
(0,0,0)
(0,0,0)
(0,0,0)
(0,0,0)
(0,0,0)
(0,0,0)
(0,0,0)
(0,0,0)
(0,0,0)
(0,0,0)
(0,0,0)
(0,0,0)
(0,0,0)
(0,0,0)
(0,0,0)
(0,0,0)
(0,0,0)
(0,0,0)
(0,0,0)
(0,0,0)
(0,0,0)
(0,0,0)
(0,0,0)
(0,0,0)
(0,0,0)
(0,0,0)
(0,0,0)
(0,0,0)
(0,0,0)
(0,0,0)
(0,0,0)
(0,0,0)
(0,0,0)
(0,0,0)
(0,0,0)
(0,0,0)
(0,0,0)
(0,0,0)
(0,0,0)
(0,0,0)
(0,0,0)
(0,0,0)
(0,0,0)
(0,0,0)
(0,0,0)
(0,0,0)
(0,0,0)
(0,0,0)
(0,0,0)
(0,0,0)
(0,0,0)
(0,0,0)
(0,0,0)
(0,0,0)
(0,0,0)
(0,0,0)
(0,0,0)
(0,0,0)
(0,0,0)
(0,0,0)
(0,0,0)
(0,0,0)
(0,0,0)
(0,0,0)
(0,0,0)
(0,0,0)
(0,0,0)
(0,0,0)
(0,0,0)
(0,0,0)
(0,0,0)
(0,0,0)
(0,0,0)
(0,0,0)
(0,0,0)
(0,0,0)
(0,0,0)
(0,0,0)
(0,0,0)
(0,0,0)
(0,0,0)
(0,0,0)
(0,0,0)
(0,0,0)
(0,0,0)
(0,0,0)
(0,0,0)
(0,0,0)
(0,0,0)
(0,0,0)
(0,0,0)
(0,0,0)
(0,0,0)
(0,0,0)
(0,0,0)
(0,0,0)
(0,0,0)
(0,0,0)
(0,0,0)
(0,0,0)
(0,0,0)
(0,0,0)
(0,0,0)
(0,0,0)
(0,0,0)
(0,0,0)
(0,0,0)
(0,0,0)
(0,0,0)
(0,0,0)
(0,0,0)
(0,0,0)
(0,0,0)
(0,0,0)
(0,0,0)
(0,0,0)
(0,0,0)
(0,0,0)
(0,0,0)
(0,0,0)
(0,0,0)
(0,0,0)
(0,0,0)
(0,0,0)
(0,0,0)
(0,0,0)
(0,0,0)
(0,0,0)
(0,0,0)
(0,0,0)
(0,0,0)
(0,0,0)
(0,0,0)
(0,0,0)
(0,0,0)
(0,0,0)
(0,0,0)
(0,0,0)
(0,0,0)
(0,0,0)
(0,0,0)
(0,0,0)
(0,0,0)
(0,0,0)
(0,0,0)
(0,0,0)
(0,0,0)
(0,0,0)
(0,0,0)
(0,0,0)
(0,0,0)
(0,0,0)
(0,0,0)
(0,0,0)
(0,0,0)
(0,0,0)
(0,0,0)
(0,0,0)
(0,0,0)
(0,0,0)
(0,0,0)
(0,0,0)
(0,0,0)
(0,0,0)
(0,0,0)
(0,0,0)
(0,0,0)
(0,0,0)
(0,0,0)
(0,0,0)
(0,0,0)
(0,0,0)
(0,0,0)
(0,0,0)
(0,0,0)
(0,0,0)
(0,0,0)
(0,0,0)
(0,0,0)
(0,0,0)
(0,0,0)
(0,0,0)
(0,0,0)
(0,0,0)
(0,0,0)
(0,0,0)
(0,0,0)
(0,0,0)
(0,0,0)
(0,0,0)
(0,0,0)
(0,0,0)
(0,0,0)
(0,0,0)
(0,0,0)
(0,0,0)
(0,0,0)
(0,0,0)
(0,0,0)
(0,0,0)
(0,0,0)
(0,0,0)
(0,0,0)
(0,0,0)
(0,0,0)
(0,0,0)
(0,0,0)
(0,0,0)
(0,0,0)
(0,0,0)
(0,0,0)
(0,0,0)
(0,0,0)
(0,0,0)
(0,0,0)
(0,0,0)
(0,0,0)
(0,0,0)
(0,0,0)
(0,0,0)
(0,0,0)
(0,0,0)
(0,0,0)
(0,0,0)
(0,0,0)
(0,0,0)
(0,0,0)
(-6.0037718202026e-13,2.60105464969248e-12,-4.10072911640838e-12)
(-3.36192851765283e-13,6.78468024962472e-12,-3.99847143048523e-12)
(-1.59465190265517e-13,1.22648949829164e-11,-3.44710540717561e-12)
(-6.26796837163297e-13,2.07657382518293e-11,-2.95862125293513e-12)
(-4.03093263784676e-13,3.3916250352006e-11,-2.46948138772693e-12)
(1.25383702821346e-13,5.35054585891834e-11,-1.70890331900001e-12)
(2.4419186860193e-13,8.71950620974697e-11,-1.0806151983087e-12)
(-9.56307836805712e-13,1.45178192816175e-10,-4.63821462448089e-13)
(-2.09069955847209e-12,2.41175817284078e-10,-6.1764927246588e-14)
(-2.0300679339691e-12,3.73968976151194e-10,-1.36182271930566e-13)
(0,0,0)
(0,0,0)
(0,0,0)
(0,0,0)
(0,0,0)
(0,0,0)
(-7.44011017506513e-13,2.26218752413392e-12,-8.37354021263542e-12)
(-4.69976888184753e-13,5.78692919088453e-12,-8.35664335688659e-12)
(-5.60001203200252e-13,1.1476982897732e-11,-7.66945992343342e-12)
(-6.7025133397868e-13,2.02132677934136e-11,-6.58400382253541e-12)
(-1.46954559823336e-13,3.3602066173139e-11,-5.48692460048781e-12)
(4.04778462591712e-13,5.3813625708829e-11,-3.84313618074746e-12)
(-2.74149177983024e-13,8.75227762093005e-11,-2.70455954813491e-12)
(-2.42782438114377e-12,1.44964135163786e-10,-2.00432488568225e-12)
(-4.6972697812557e-12,2.41494808212551e-10,-1.39911029132146e-12)
(-5.8672306601711e-12,3.74209299691181e-10,-7.35346420760036e-13)
(0,0,0)
(0,0,0)
(0,0,0)
(0,0,0)
(0,0,0)
(0,0,0)
(-2.18568714076963e-12,2.02651731535517e-12,-1.30242823577245e-11)
(-3.13831765929656e-12,5.03012568038639e-12,-1.32766686527708e-11)
(-3.13242040727598e-12,1.07205035216458e-11,-1.31286514845516e-11)
(-2.02710796412877e-12,1.92506206279278e-11,-1.21100565549462e-11)
(-1.57484632769175e-12,3.22088988193048e-11,-1.05226936608658e-11)
(-1.52282107273718e-12,5.30404854432662e-11,-8.34260358169391e-12)
(-2.3237962546088e-12,8.7173131412248e-11,-6.26151653462181e-12)
(-5.0391108835859e-12,1.44852482640037e-10,-4.80754957527161e-12)
(-8.49406337938051e-12,2.4184470180349e-10,-3.64567727239699e-12)
(-1.01609388380743e-11,3.74582234774875e-10,-1.88556782392638e-12)
(0,0,0)
(0,0,0)
(0,0,0)
(0,0,0)
(0,0,0)
(0,0,0)
(-3.14261170340236e-12,1.86395598078163e-12,-2.15354381299647e-11)
(-5.5809732387202e-12,4.6324547742438e-12,-2.18935600975649e-11)
(-5.89347790271773e-12,9.9307510480394e-12,-2.20324542495486e-11)
(-4.71889987287459e-12,1.790178056005e-11,-2.11032300238604e-11)
(-5.11660399970134e-12,3.01118544452212e-11,-1.91497845131301e-11)
(-6.27995668634347e-12,5.07214447261988e-11,-1.64350172040532e-11)
(-7.60343764863923e-12,8.52607108485269e-11,-1.33986618440819e-11)
(-1.02205971132745e-11,1.44047707782632e-10,-1.09143363285363e-11)
(-1.35337750656266e-11,2.4108136613337e-10,-8.24686664850355e-12)
(-1.53391975169945e-11,3.73721512918945e-10,-4.34425448421482e-12)
(0,0,0)
(0,0,0)
(0,0,0)
(0,0,0)
(0,0,0)
(0,0,0)
(-3.67370245916102e-12,1.87470389471364e-12,-3.48208659953887e-11)
(-6.55396281826083e-12,4.35937878835362e-12,-3.46989808067973e-11)
(-7.77345083017663e-12,8.55693701312437e-12,-3.46171970667109e-11)
(-7.81679583593411e-12,1.5529581316577e-11,-3.39754947897534e-11)
(-9.14277249691093e-12,2.69646939601102e-11,-3.2356006950464e-11)
(-1.13227614671179e-11,4.65959473972337e-11,-3.00275938848067e-11)
(-1.41735833384755e-11,8.13976812838255e-11,-2.70978438430836e-11)
(-1.67416273367626e-11,1.41320126182825e-10,-2.25071316509717e-11)
(-1.85570607337096e-11,2.3775917121904e-10,-1.63953593022268e-11)
(-1.92966875908289e-11,3.69971475835055e-10,-8.82638026253644e-12)
(0,0,0)
(0,0,0)
(0,0,0)
(0,0,0)
(0,0,0)
(0,0,0)
(-4.59668569995979e-12,1.70857515972357e-12,-5.48765854368392e-11)
(-7.67260868171041e-12,3.83410074966009e-12,-5.46112969471933e-11)
(-9.1221812110758e-12,7.09151694508381e-12,-5.45379065648785e-11)
(-1.08705385824665e-11,1.28886777157024e-11,-5.3948990949791e-11)
(-1.32333278148193e-11,2.34924681397667e-11,-5.26766088159342e-11)
(-1.62613917955338e-11,4.2251362882553e-11,-5.03670468382011e-11)
(-2.00947337510698e-11,7.68432326252831e-11,-4.6788809084e-11)
(-2.23336278990163e-11,1.36047769295363e-10,-3.97180268429542e-11)
(-2.24943670222405e-11,2.31169378002713e-10,-2.92076620679133e-11)
(-2.24325487163092e-11,3.62139477436121e-10,-1.56701758960945e-11)
(0,0,0)
(0,0,0)
(0,0,0)
(0,0,0)
(0,0,0)
(0,0,0)
(-3.87466771067053e-12,1.21668362544083e-12,-8.70506518446056e-11)
(-6.46939744917127e-12,2.90098525134069e-12,-8.68342236336243e-11)
(-8.28845205156476e-12,5.83882915041884e-12,-8.6415110775675e-11)
(-1.11860057934474e-11,1.06198081941711e-11,-8.54630909786338e-11)
(-1.4682479002514e-11,1.9768796372989e-11,-8.43804554004683e-11)
(-1.88723014996327e-11,3.71707969718573e-11,-8.17603787069792e-11)
(-2.31764786387005e-11,7.03531541523484e-11,-7.62151892295443e-11)
(-2.60034761819582e-11,1.26493768181193e-10,-6.6320736497699e-11)
(-2.64311361375707e-11,2.1856876492571e-10,-5.00667928272091e-11)
(-2.64585040394662e-11,3.47639483228229e-10,-2.73497352902945e-11)
(0,0,0)
(0,0,0)
(0,0,0)
(0,0,0)
(0,0,0)
(0,0,0)
(-2.45362844977883e-12,1.06323556677347e-12,-1.4245009666256e-10)
(-5.24447624438722e-12,2.19411159706098e-12,-1.41753560285958e-10)
(-7.72581567396787e-12,4.98037612549618e-12,-1.40814064835349e-10)
(-1.06210686964079e-11,9.05616716085244e-12,-1.39580151977274e-10)
(-1.4487989203294e-11,1.63830116866289e-11,-1.38300245889071e-10)
(-1.95476032598776e-11,3.14358027271436e-11,-1.35049401408721e-10)
(-2.49089598661534e-11,6.05112349022465e-11,-1.27416418723104e-10)
(-2.91938057795843e-11,1.10659511140807e-10,-1.12870426616514e-10)
(-3.09377411714942e-11,1.96460272070515e-10,-8.82459910697069e-11)
(-3.16570373743786e-11,3.20870068309899e-10,-5.02548251318543e-11)
(0,0,0)
(0,0,0)
(0,0,0)
(0,0,0)
(0,0,0)
(0,0,0)
(-1.28471603410185e-12,9.0707299801335e-13,-2.36324703226839e-10)
(-3.83987344566108e-12,1.56776976959836e-12,-2.35458755766122e-10)
(-5.83609003865816e-12,3.77164628728822e-12,-2.3421193333168e-10)
(-7.98800875349361e-12,6.95047264581667e-12,-2.32655273329768e-10)
(-1.28792915757263e-11,1.20435221769481e-11,-2.30234163157157e-10)
(-1.88343141585909e-11,2.31936591990655e-11,-2.25525556357547e-10)
(-2.48956142314844e-11,4.54459960652921e-11,-2.15258988391594e-10)
(-3.04500176467545e-11,8.5770211166656e-11,-1.95147182064649e-10)
(-3.401237066583e-11,1.58720435105458e-10,-1.58643207526942e-10)
(-3.54644635456797e-11,2.70729780157503e-10,-9.56206657830776e-11)
(0,0,0)
(0,0,0)
(0,0,0)
(0,0,0)
(0,0,0)
(0,0,0)
(-9.37249076211718e-13,7.36619778354671e-13,-3.67154940761623e-10)
(-3.09413763627303e-12,9.90261335980976e-13,-3.66240700599507e-10)
(-4.1714141558725e-12,2.1668404638045e-12,-3.65129230970951e-10)
(-5.48357233414711e-12,3.78680329414972e-12,-3.63360242321847e-10)
(-1.16009018998832e-11,6.49441556458889e-12,-3.60095584312788e-10)
(-1.85200117289378e-11,1.2601533958039e-11,-3.54066811495141e-10)
(-2.57819203842572e-11,2.50181031608292e-11,-3.41768496361711e-10)
(-3.18300734636562e-11,4.88831576425476e-11,-3.17266662317926e-10)
(-3.58006499732796e-11,9.55922027520503e-11,-2.69018044750182e-10)
(-3.7359067533187e-11,1.75101402772842e-10,-1.74273654770778e-10)
(0,0,0)
(0,0,0)
(0,0,0)
(0,0,0)
(0,0,0)
(0,0,0)
(0,0,0)
(0,0,0)
(0,0,0)
(0,0,0)
(0,0,0)
(0,0,0)
(0,0,0)
(0,0,0)
(0,0,0)
(0,0,0)
(0,0,0)
(0,0,0)
(0,0,0)
(0,0,0)
(0,0,0)
(0,0,0)
(0,0,0)
(0,0,0)
(0,0,0)
(0,0,0)
(0,0,0)
(0,0,0)
(0,0,0)
(0,0,0)
(0,0,0)
(0,0,0)
(0,0,0)
(0,0,0)
(0,0,0)
(0,0,0)
(0,0,0)
(0,0,0)
(0,0,0)
(0,0,0)
(0,0,0)
(0,0,0)
(0,0,0)
(0,0,0)
(0,0,0)
(0,0,0)
(0,0,0)
(0,0,0)
(0,0,0)
(0,0,0)
(0,0,0)
(0,0,0)
(0,0,0)
(0,0,0)
(0,0,0)
(0,0,0)
(0,0,0)
(0,0,0)
(0,0,0)
(0,0,0)
(0,0,0)
(0,0,0)
(0,0,0)
(0,0,0)
(0,0,0)
(0,0,0)
(0,0,0)
(0,0,0)
(0,0,0)
(0,0,0)
(0,0,0)
(0,0,0)
(0,0,0)
(0,0,0)
(0,0,0)
(0,0,0)
(0,0,0)
(0,0,0)
(0,0,0)
(0,0,0)
(0,0,0)
(0,0,0)
(0,0,0)
(0,0,0)
(0,0,0)
(0,0,0)
(0,0,0)
(0,0,0)
(0,0,0)
(0,0,0)
(0,0,0)
(0,0,0)
(0,0,0)
(0,0,0)
(0,0,0)
(0,0,0)
(0,0,0)
(0,0,0)
(0,0,0)
(0,0,0)
(0,0,0)
(0,0,0)
(-3.63767742380901e-13,5.50356798923895e-12,-7.63021085899803e-12)
(1.10192183660784e-13,1.31121048586735e-11,-7.53272236444631e-12)
(1.39962740678676e-13,2.35530900600662e-11,-6.78555937011233e-12)
(-5.63466243968252e-13,3.90170686522618e-11,-5.83473707996727e-12)
(-8.49487153646938e-13,6.23880030050436e-11,-4.65472673475246e-12)
(-8.11071537449705e-13,9.78209760458318e-11,-3.26261197835581e-12)
(-7.00315978993879e-13,1.55294928852949e-10,-2.10558853114011e-12)
(-1.14430671984284e-12,2.55441045353547e-10,-1.35637248029714e-12)
(-2.33527314238208e-12,4.45598295309292e-10,-7.06335503703302e-13)
(-2.40657374643552e-12,8.76990800440612e-10,-2.81699261781009e-13)
(0,0,0)
(0,0,0)
(0,0,0)
(0,0,0)
(0,0,0)
(0,0,0)
(-5.25237664477066e-13,5.02702788160365e-12,-1.65633205587072e-11)
(-4.00356811134697e-13,1.1924574953898e-11,-1.62495913389174e-11)
(-8.88977928006466e-13,2.20000270520221e-11,-1.47001403674654e-11)
(-8.04683390545493e-13,3.74196946901624e-11,-1.26702764501204e-11)
(-3.97575625718867e-13,6.06584335090897e-11,-9.94769472111638e-12)
(3.93420955560955e-14,9.67020437908054e-11,-6.49824766836658e-12)
(-6.2473904339928e-13,1.54861992007534e-10,-3.49422432483843e-12)
(-2.9213864516621e-12,2.5497651417961e-10,-2.386730983668e-12)
(-5.7109272423327e-12,4.45847579755507e-10,-1.86518995752474e-12)
(-6.97551216443222e-12,8.78015345891794e-10,-9.71629291978391e-13)
(0,0,0)
(0,0,0)
(0,0,0)
(0,0,0)
(0,0,0)
(0,0,0)
(-1.77073951114875e-12,4.35273838356483e-12,-2.58335462391174e-11)
(-2.8886639213725e-12,1.04003392507446e-11,-2.56886102798306e-11)
(-3.36126286326667e-12,1.98610008504348e-11,-2.43104733569573e-11)
(-2.26563079033233e-12,3.47146245897466e-11,-2.19856102533528e-11)
(-1.65789203282926e-12,5.72907696141301e-11,-1.81624431568834e-11)
(-1.28486740279157e-12,9.41343288695693e-11,-1.31643793154614e-11)
(-1.86534265029081e-12,1.53982274745076e-10,-7.81502916239653e-12)
(-5.39620832906349e-12,2.55173507639257e-10,-5.50691615538926e-12)
(-9.49083715787576e-12,4.46468245326049e-10,-4.44618841576222e-12)
(-1.118578480621e-11,8.79109304713195e-10,-2.56796000865201e-12)
(0,0,0)
(0,0,0)
(0,0,0)
(0,0,0)
(0,0,0)
(0,0,0)
(-2.79523764973495e-12,3.49276072774296e-12,-3.9630911167454e-11)
(-5.16900310084615e-12,8.79005123402868e-12,-4.0066460181575e-11)
(-5.44888809349734e-12,1.74528773933148e-11,-3.92949754653738e-11)
(-4.30014614012945e-12,3.10894813552642e-11,-3.71147917677007e-11)
(-4.68421082367595e-12,5.22634413665128e-11,-3.26970166278079e-11)
(-5.19081471732431e-12,8.83296251564152e-11,-2.68385471892217e-11)
(-6.22473359953077e-12,1.50137463592167e-10,-2.00650124521692e-11)
(-1.0160485193549e-11,2.54442372143956e-10,-1.63048049350981e-11)
(-1.41141923153818e-11,4.46042499728646e-10,-1.25614753366528e-11)
(-1.59334149172381e-11,8.78225845393116e-10,-6.81017295509865e-12)
(0,0,0)
(0,0,0)
(0,0,0)
(0,0,0)
(0,0,0)
(0,0,0)
(-3.62945891276282e-12,3.17439884412492e-12,-6.2171782145139e-11)
(-6.11046851965645e-12,7.33270816396435e-12,-6.2304383732864e-11)
(-6.94973303909822e-12,1.44806050803515e-11,-6.15925007626732e-11)
(-6.79538007434287e-12,2.61649434863092e-11,-5.98543750026464e-11)
(-7.99895974220095e-12,4.51421728696945e-11,-5.59691708839104e-11)
(-9.90792699420658e-12,7.83388180317342e-11,-5.15053424539211e-11)
(-1.42098468719972e-11,1.40762426445426e-10,-4.77318324515304e-11)
(-1.75810427979867e-11,2.50171524609014e-10,-3.85179517114812e-11)
(-1.95362465570101e-11,4.41187205933086e-10,-2.74359225016902e-11)
(-2.02910694547396e-11,8.71939716788655e-10,-1.44769961509481e-11)
(0,0,0)
(0,0,0)
(0,0,0)
(0,0,0)
(0,0,0)
(0,0,0)
(-4.37008265532319e-12,2.72800186267873e-12,-9.68785380724948e-11)
(-6.81288356570485e-12,5.83862366993181e-12,-9.68059139634411e-11)
(-8.4584090314984e-12,1.16712504189718e-11,-9.62367750475437e-11)
(-9.87405119479568e-12,2.11532034674202e-11,-9.49115262050726e-11)
(-1.18192180257686e-11,3.78258227991159e-11,-9.21488301189043e-11)
(-1.47590636390334e-11,6.87351063756388e-11,-8.85430887521936e-11)
(-2.06754375191916e-11,1.32234827055275e-10,-8.45319096416466e-11)
(-2.32899915598861e-11,2.41168950261235e-10,-7.08451371358693e-11)
(-2.34312401170029e-11,4.29829500178648e-10,-5.08943138908429e-11)
(-2.36027304042286e-11,8.58259640294854e-10,-2.66735285490266e-11)
(0,0,0)
(0,0,0)
(0,0,0)
(0,0,0)
(0,0,0)
(0,0,0)
(-3.93764786298415e-12,2.13704186284881e-12,-1.52257913713656e-10)
(-6.18163665284233e-12,4.34726109483987e-12,-1.52104057762816e-10)
(-8.38201882368294e-12,9.1625049718459e-12,-1.51454339309769e-10)
(-1.07050003382949e-11,1.64525494229195e-11,-1.50307418873944e-10)
(-1.39167710096385e-11,3.0298847928384e-11,-1.48803470803604e-10)
(-1.86824967323339e-11,5.84712033412269e-11,-1.45592777369161e-10)
(-2.32290121204825e-11,1.21653179014922e-10,-1.35930632732009e-10)
(-2.64231628120176e-11,2.24508420876732e-10,-1.18870919407532e-10)
(-2.70397008196122e-11,4.07580466425506e-10,-8.77579323862471e-11)
(-2.70388244110597e-11,8.3284143962737e-10,-4.71275119764482e-11)
(0,0,0)
(0,0,0)
(0,0,0)
(0,0,0)
(0,0,0)
(0,0,0)
(-2.99400225762081e-12,1.820298584033e-12,-2.4819070499922e-10)
(-5.55762986753274e-12,3.26604039199518e-12,-2.4735729062703e-10)
(-7.75099869383378e-12,7.2691233667781e-12,-2.46196100931131e-10)
(-9.79528026957533e-12,1.33620235731687e-11,-2.44723727214775e-10)
(-1.33993441739813e-11,2.55050419590787e-11,-2.4278760595408e-10)
(-1.89384424174083e-11,5.16503644148636e-11,-2.38388875317785e-10)
(-2.43897131357901e-11,1.05336130823709e-10,-2.26494311309373e-10)
(-2.89289413523464e-11,1.94850980059454e-10,-1.99635083214978e-10)
(-3.11890701441556e-11,3.67958408634255e-10,-1.54468513357491e-10)
(-3.17715743542578e-11,7.86220190382855e-10,-8.80242493586575e-11)
(0,0,0)
(0,0,0)
(0,0,0)
(0,0,0)
(0,0,0)
(0,0,0)
(-1.98021027515963e-12,1.29118711977225e-12,-4.35423810126198e-10)
(-4.50918744648508e-12,2.18622054730735e-12,-4.34068311260693e-10)
(-5.78794421708469e-12,5.33097467780602e-12,-4.32339799853183e-10)
(-7.24544957443589e-12,1.01685479487361e-11,-4.3003546558323e-10)
(-1.20387917629669e-11,1.95245896097916e-11,-4.2579782548278e-10)
(-1.85087568835336e-11,3.95378001200966e-11,-4.18130792233969e-10)
(-2.45795276539626e-11,7.86826045183878e-11,-4.01214789135566e-10)
(-3.0066938660356e-11,1.50157761053462e-10,-3.65948228352921e-10)
(-3.39066800563485e-11,3.01820886317467e-10,-3.01859036364317e-10)
(-3.5456751943829e-11,6.980024977226e-10,-1.89374241068035e-10)
(0,0,0)
(0,0,0)
(0,0,0)
(0,0,0)
(0,0,0)
(0,0,0)
(-1.11486945997285e-12,5.73495351305342e-13,-8.66058521401727e-10)
(-3.21534592884832e-12,9.97002078320851e-13,-8.64677252068386e-10)
(-3.77356234117277e-12,3.02532932578869e-12,-8.62960397249429e-10)
(-4.96142704905571e-12,5.69577515298917e-12,-8.5978373104847e-10)
(-1.1135259152944e-11,1.10102381639655e-11,-8.53700137370602e-10)
(-1.82167929043331e-11,2.19243598175391e-11,-8.43367638824934e-10)
(-2.52656512672205e-11,4.3060237575423e-11,-8.22436541569075e-10)
(-3.11955333888439e-11,8.57943685655269e-11,-7.80493858573514e-10)
(-3.49528372006342e-11,1.88777579528906e-10,-6.95518171213529e-10)
(-3.65313195310787e-11,5.08020125777071e-10,-5.07602216859897e-10)
(0,0,0)
(0,0,0)
(0,0,0)
(0,0,0)
(0,0,0)
(0,0,0)
(0,0,0)
(0,0,0)
(0,0,0)
(0,0,0)
(0,0,0)
(0,0,0)
(0,0,0)
(0,0,0)
(0,0,0)
(0,0,0)
(0,0,0)
(0,0,0)
(0,0,0)
(0,0,0)
(0,0,0)
(0,0,0)
(0,0,0)
(0,0,0)
(0,0,0)
(0,0,0)
(0,0,0)
(0,0,0)
(0,0,0)
(0,0,0)
(0,0,0)
(0,0,0)
(0,0,0)
(0,0,0)
(0,0,0)
(0,0,0)
(0,0,0)
(0,0,0)
(0,0,0)
(0,0,0)
(0,0,0)
(0,0,0)
(0,0,0)
(0,0,0)
(0,0,0)
(0,0,0)
(0,0,0)
(0,0,0)
(0,0,0)
(0,0,0)
(0,0,0)
(0,0,0)
(0,0,0)
(0,0,0)
(0,0,0)
(0,0,0)
(0,0,0)
(0,0,0)
(0,0,0)
(0,0,0)
(0,0,0)
(0,0,0)
(0,0,0)
(0,0,0)
(0,0,0)
(0,0,0)
(0,0,0)
(0,0,0)
(0,0,0)
(0,0,0)
(0,0,0)
(0,0,0)
(0,0,0)
(0,0,0)
(0,0,0)
(0,0,0)
(0,0,0)
(0,0,0)
(0,0,0)
(0,0,0)
(0,0,0)
(0,0,0)
(0,0,0)
(0,0,0)
(0,0,0)
(0,0,0)
(0,0,0)
(0,0,0)
(0,0,0)
(0,0,0)
(0,0,0)
(0,0,0)
(0,0,0)
(0,0,0)
(0,0,0)
(0,0,0)
(0,0,0)
(0,0,0)
(0,0,0)
(0,0,0)
(0,0,0)
(0,0,0)
(1.52838708190779e-14,7.46836124009632e-12,-1.04585804250507e-11)
(5.505590935995e-13,1.73544678154167e-11,-9.85669964954225e-12)
(7.4220345901711e-13,3.19032577116443e-11,-8.67517471800526e-12)
(-1.46102626617292e-13,5.23835875852135e-11,-7.17424029567495e-12)
(-5.12032414571162e-13,8.17148467608087e-11,-5.43722261276673e-12)
(-8.49162729375436e-13,1.24754523043023e-10,-3.1134224526977e-12)
(-1.0165951848541e-12,1.86896883937324e-10,-8.49282136150541e-13)
(-1.32981252253082e-12,2.77104667841205e-10,-7.94663483522213e-14)
(-3.00919383062017e-12,4.06504623101095e-10,1.40875628290847e-13)
(-3.71281845914134e-12,5.63705208182837e-10,2.24424485501725e-13)
(0,0,0)
(0,0,0)
(0,0,0)
(0,0,0)
(0,0,0)
(0,0,0)
(-1.64677385899385e-13,6.93300320859158e-12,-2.18473809065942e-11)
(-4.25572080103051e-13,1.63738798360647e-11,-2.08733212293219e-11)
(-7.79815644156633e-13,3.03664626424443e-11,-1.87449877614177e-11)
(-8.22195018885786e-13,5.05564930454729e-11,-1.57726679184045e-11)
(-4.79358782938486e-13,7.91767503572618e-11,-1.13256309226245e-11)
(-3.96966326747588e-13,1.22323353325808e-10,-5.32786477645164e-12)
(-8.52515123458393e-13,1.86077518912285e-10,4.54154044000803e-13)
(-3.63992093573883e-12,2.77375411852118e-10,1.45765144346199e-12)
(-7.22515347898186e-12,4.07349618710129e-10,4.11219370267082e-13)
(-9.04110027751025e-12,5.65159625318235e-10,-1.54465505497676e-13)
(0,0,0)
(0,0,0)
(0,0,0)
(0,0,0)
(0,0,0)
(0,0,0)
(-1.05569781517732e-12,6.10368259521913e-12,-3.46621137252435e-11)
(-2.65651282688811e-12,1.47164768082658e-11,-3.38868297530489e-11)
(-3.27800250954896e-12,2.74595725274676e-11,-3.16186660919409e-11)
(-2.46365465246306e-12,4.62561230105124e-11,-2.75346130813659e-11)
(-1.62862762675702e-12,7.35445148218828e-11,-2.06064531310682e-11)
(-8.29513843150325e-13,1.17062642403291e-10,-1.05615674151137e-11)
(-3.28644503354175e-13,1.85026469566683e-10,9.78288903704749e-13)
(-5.72580057383738e-12,2.79137581204828e-10,1.7663294529629e-12)
(-1.0943319967315e-11,4.09146126459057e-10,-5.40180749008436e-13)
(-1.28702854952354e-11,5.66488327622888e-10,-1.31143519888542e-12)
(0,0,0)
(0,0,0)
(0,0,0)
(0,0,0)
(0,0,0)
(0,0,0)
(-2.0413267525367e-12,5.22632364659984e-12,-5.27152553057715e-11)
(-4.48314474629468e-12,1.24159939473997e-11,-5.2593473527717e-11)
(-4.65679947854905e-12,2.32213348354096e-11,-5.08911813801176e-11)
(-3.79338341134628e-12,3.93635676851276e-11,-4.65820003828882e-11)
(-3.42141176491519e-12,6.370703177547e-11,-3.82991702641786e-11)
(-1.97354232961797e-12,1.05349307693906e-10,-2.53819703421544e-11)
(-6.09903969983775e-13,1.81208506574556e-10,-7.07898432533675e-12)
(-9.63296725750353e-12,2.82013882322176e-10,-8.63572870807987e-12)
(-1.50102009009986e-11,4.11120179315164e-10,-9.73102858871564e-12)
(-1.64574592676981e-11,5.66211385668475e-10,-6.21346269081343e-12)
(0,0,0)
(0,0,0)
(0,0,0)
(0,0,0)
(0,0,0)
(0,0,0)
(-3.05046034309681e-12,4.96380522965167e-12,-8.06271800475837e-11)
(-5.32826699584274e-12,1.01150326822183e-11,-8.03262069202088e-11)
(-5.8785041380578e-12,1.838318396248e-11,-7.89082188096449e-11)
(-5.66884417459839e-12,3.07218439479043e-11,-7.52878115261397e-11)
(-5.14643810063793e-12,4.93793437302159e-11,-6.85210303115956e-11)
(-4.07772534105022e-12,8.18494203785592e-11,-6.07116236378477e-11)
(-1.48961282218815e-11,1.56460328783487e-10,-6.43371618891606e-11)
(-1.96604976605233e-11,2.82901941656198e-10,-4.53926255062706e-11)
(-2.11374671521743e-11,4.09329783674044e-10,-3.12325951879869e-11)
(-2.10879891124486e-11,5.6078759425856e-10,-1.62070432074904e-11)
(0,0,0)
(0,0,0)
(0,0,0)
(0,0,0)
(0,0,0)
(0,0,0)
(-3.85174676450241e-12,4.32678628017064e-12,-1.21725171564668e-10)
(-5.8906599064825e-12,7.87119923346688e-12,-1.21204167554041e-10)
(-7.27491242713351e-12,1.40887728093271e-11,-1.19771687979874e-10)
(-7.93609323562887e-12,2.26449350240336e-11,-1.16946464051069e-10)
(-7.89798452243805e-12,3.60050692095153e-11,-1.12858863088869e-10)
(-8.50633971503852e-12,6.38321394848416e-11,-1.0882214761627e-10)
(-2.37805619843899e-11,1.49515902882351e-10,-1.16574175425297e-10)
(-2.65802854210316e-11,2.75735588204953e-10,-9.11170631125758e-11)
(-2.54029917054013e-11,3.97334578472407e-10,-6.24165497908668e-11)
(-2.48580582859357e-11,5.45614954294242e-10,-3.16921084386617e-11)
(0,0,0)
(0,0,0)
(0,0,0)
(0,0,0)
(0,0,0)
(0,0,0)
(-3.77476053466186e-12,3.28118551785414e-12,-1.79727235890843e-10)
(-5.75013440275808e-12,5.77861445465419e-12,-1.79132722243501e-10)
(-7.63555765503046e-12,1.04180890435439e-11,-1.77848238419782e-10)
(-9.11842255842202e-12,1.57047285737941e-11,-1.76303491123014e-10)
(-1.23336584747928e-11,2.32053771536172e-11,-1.76711885169998e-10)
(-2.15238024432947e-11,4.1374014297703e-11,-1.80190799744118e-10)
(-2.39716772535218e-11,1.44133356822712e-10,-1.64362652241122e-10)
(-2.78787090162928e-11,2.57725665893685e-10,-1.53773918958716e-10)
(-2.80480634378976e-11,3.70675382085476e-10,-1.06137230435626e-10)
(-2.75450871429634e-11,5.15410670751037e-10,-5.44175626445567e-11)
(0,0,0)
(0,0,0)
(0,0,0)
(0,0,0)
(0,0,0)
(0,0,0)
(-3.29830516529506e-12,2.03540506882827e-12,-2.64605243437328e-10)
(-5.63899971898432e-12,3.97777358606626e-12,-2.63899552641695e-10)
(-7.28522372158544e-12,7.85903709985378e-12,-2.62616991832855e-10)
(-8.53792590512202e-12,1.30375494107029e-11,-2.61312414890767e-10)
(-1.18176224614006e-11,2.30673487347132e-11,-2.61482656505362e-10)
(-1.87204421311399e-11,5.05645965229368e-11,-2.63383091490069e-10)
(-2.4595414924209e-11,1.29748557663852e-10,-2.58463175764742e-10)
(-2.94022922049588e-11,2.13033166302844e-10,-2.2004732309347e-10)
(-3.1495811825999e-11,3.20795881620723e-10,-1.6103639109265e-10)
(-3.15781310523463e-11,4.61977975595572e-10,-8.72799707674362e-11)
(0,0,0)
(0,0,0)
(0,0,0)
(0,0,0)
(0,0,0)
(0,0,0)
(-2.61801737262526e-12,9.00049012325627e-13,-3.90689219178208e-10)
(-5.04848038516087e-12,2.35375830126841e-12,-3.89676941833114e-10)
(-5.78663313488368e-12,5.58029399021868e-12,-3.87939256040016e-10)
(-7.01031687925804e-12,1.05509092608556e-11,-3.85470190559232e-10)
(-1.11914735653364e-11,2.05207714935839e-11,-3.82071035039458e-10)
(-1.78113196793039e-11,4.38260107150553e-11,-3.76805833654497e-10)
(-2.4223721493887e-11,9.22188853533957e-11,-3.60656853414975e-10)
(-2.97927381613451e-11,1.55173557302862e-10,-3.17524641151091e-10)
(-3.33481685638154e-11,2.47612110812406e-10,-2.47058081177882e-10)
(-3.4848621066481e-11,3.75042786701629e-10,-1.42757183438799e-10)
(0,0,0)
(0,0,0)
(0,0,0)
(0,0,0)
(0,0,0)
(0,0,0)
(-1.92264344233949e-12,-5.33088680378056e-14,-5.45874864426786e-10)
(-3.93519866995456e-12,6.62056738850462e-13,-5.45177094165723e-10)
(-3.92489921590113e-12,2.91755633069173e-12,-5.43665664264045e-10)
(-5.34924557459741e-12,6.07449916197195e-12,-5.40049579031166e-10)
(-1.04575195340897e-11,1.2168208907292e-11,-5.33769483930601e-10)