/*--------------------------------*- C++ -*----------------------------------*\
| =========                 |                                                 |
| \\      /  F ield         | foam-extend: Open Source CFD                    |
|  \\    /   O peration     | Version:     4.0                                |
|   \\  /    A nd           | Web:         http://www.foam-extend.org         |
|    \\/     M anipulation  |                                                 |
\*---------------------------------------------------------------------------*/
FoamFile
{
    version 2.0;
    format ascii;
    class volVectorField;
    location "3754";
    object      H;
}
// * * * * * * * * * * * * * * * * * * * * * * * * * * * * * * * * * * * * * //

dimensions      [0 1 -1 0 0 0 0];

internalField   nonuniform List<vector>
4096
(
(0,0,0)
(0,0,0)
(0,0,0)
(0,0,0)
(0,0,0)
(0,0,0)
(0,0,0)
(0,0,0)
(0,0,0)
(0,0,0)
(0,0,0)
(0,0,0)
(0,0,0)
(0,0,0)
(0,0,0)
(0,0,0)
(0,0,0)
(0,0,0)
(0,0,0)
(0,0,0)
(0,0,0)
(0,0,0)
(0,0,0)
(0,0,0)
(0,0,0)
(0,0,0)
(0,0,0)
(0,0,0)
(0,0,0)
(0,0,0)
(0,0,0)
(0,0,0)
(0,0,0)
(0,0,0)
(0,0,0)
(0,0,0)
(0,0,0)
(0,0,0)
(0,0,0)
(0,0,0)
(0,0,0)
(0,0,0)
(0,0,0)
(0,0,0)
(0,0,0)
(0,0,0)
(0,0,0)
(0,0,0)
(0,0,0)
(0,0,0)
(0,0,0)
(0,0,0)
(0,0,0)
(0,0,0)
(0,0,0)
(0,0,0)
(0,0,0)
(0,0,0)
(0,0,0)
(0,0,0)
(0,0,0)
(0,0,0)
(0,0,0)
(0,0,0)
(0,0,0)
(0,0,0)
(0,0,0)
(0,0,0)
(0,0,0)
(0,0,0)
(0,0,0)
(0,0,0)
(0,0,0)
(0,0,0)
(0,0,0)
(0,0,0)
(0,0,0)
(0,0,0)
(0,0,0)
(0,0,0)
(0,0,0)
(0,0,0)
(0,0,0)
(0,0,0)
(0,0,0)
(0,0,0)
(0,0,0)
(0,0,0)
(0,0,0)
(0,0,0)
(0,0,0)
(0,0,0)
(0,0,0)
(0,0,0)
(0,0,0)
(0,0,0)
(0,0,0)
(0,0,0)
(0,0,0)
(0,0,0)
(0,0,0)
(0,0,0)
(0,0,0)
(0,0,0)
(0,0,0)
(0,0,0)
(0,0,0)
(0,0,0)
(0,0,0)
(0,0,0)
(0,0,0)
(0,0,0)
(0,0,0)
(0,0,0)
(0,0,0)
(0,0,0)
(0,0,0)
(0,0,0)
(0,0,0)
(0,0,0)
(0,0,0)
(0,0,0)
(0,0,0)
(0,0,0)
(0,0,0)
(0,0,0)
(0,0,0)
(0,0,0)
(0,0,0)
(0,0,0)
(0,0,0)
(0,0,0)
(0,0,0)
(0,0,0)
(0,0,0)
(0,0,0)
(0,0,0)
(0,0,0)
(0,0,0)
(0,0,0)
(0,0,0)
(0,0,0)
(0,0,0)
(0,0,0)
(0,0,0)
(0,0,0)
(0,0,0)
(0,0,0)
(0,0,0)
(0,0,0)
(0,0,0)
(0,0,0)
(0,0,0)
(0,0,0)
(0,0,0)
(0,0,0)
(0,0,0)
(0,0,0)
(0,0,0)
(0,0,0)
(0,0,0)
(0,0,0)
(0,0,0)
(0,0,0)
(0,0,0)
(0,0,0)
(0,0,0)
(0,0,0)
(0,0,0)
(0,0,0)
(0,0,0)
(0,0,0)
(0,0,0)
(0,0,0)
(0,0,0)
(0,0,0)
(0,0,0)
(0,0,0)
(0,0,0)
(0,0,0)
(0,0,0)
(0,0,0)
(0,0,0)
(0,0,0)
(0,0,0)
(0,0,0)
(0,0,0)
(0,0,0)
(0,0,0)
(0,0,0)
(0,0,0)
(0,0,0)
(0,0,0)
(0,0,0)
(0,0,0)
(0,0,0)
(0,0,0)
(0,0,0)
(0,0,0)
(0,0,0)
(0,0,0)
(0,0,0)
(0,0,0)
(0,0,0)
(0,0,0)
(0,0,0)
(0,0,0)
(0,0,0)
(0,0,0)
(0,0,0)
(0,0,0)
(0,0,0)
(0,0,0)
(0,0,0)
(0,0,0)
(0,0,0)
(0,0,0)
(0,0,0)
(0,0,0)
(0,0,0)
(0,0,0)
(0,0,0)
(0,0,0)
(0,0,0)
(0,0,0)
(0,0,0)
(0,0,0)
(0,0,0)
(0,0,0)
(0,0,0)
(0,0,0)
(0,0,0)
(0,0,0)
(0,0,0)
(0,0,0)
(0,0,0)
(0,0,0)
(0,0,0)
(0,0,0)
(0,0,0)
(0,0,0)
(0,0,0)
(0,0,0)
(0,0,0)
(0,0,0)
(0,0,0)
(0,0,0)
(0,0,0)
(0,0,0)
(0,0,0)
(0,0,0)
(0,0,0)
(0,0,0)
(0,0,0)
(0,0,0)
(0,0,0)
(0,0,0)
(0,0,0)
(0,0,0)
(0,0,0)
(0,0,0)
(0,0,0)
(0,0,0)
(0,0,0)
(0,0,0)
(0,0,0)
(0,0,0)
(0,0,0)
(0,0,0)
(0,0,0)
(0,0,0)
(0,0,0)
(0,0,0)
(0,0,0)
(0,0,0)
(0,0,0)
(0,0,0)
(0,0,0)
(0,0,0)
(0,0,0)
(0,0,0)
(0,0,0)
(0,0,0)
(0,0,0)
(0,0,0)
(0,0,0)
(0,0,0)
(0,0,0)
(0,0,0)
(0,0,0)
(0,0,0)
(0,0,0)
(0,0,0)
(0,0,0)
(0,0,0)
(0,0,0)
(0,0,0)
(0,0,0)
(0,0,0)
(0,0,0)
(0,0,0)
(0,0,0)
(0,0,0)
(0,0,0)
(0,0,0)
(0,0,0)
(0,0,0)
(0,0,0)
(0,0,0)
(0,0,0)
(0,0,0)
(0,0,0)
(0,0,0)
(0,0,0)
(0,0,0)
(0,0,0)
(0,0,0)
(0,0,0)
(0,0,0)
(0,0,0)
(0,0,0)
(0,0,0)
(0,0,0)
(0,0,0)
(0,0,0)
(0,0,0)
(0,0,0)
(0,0,0)
(0,0,0)
(0,0,0)
(0,0,0)
(0,0,0)
(0,0,0)
(0,0,0)
(0,0,0)
(0,0,0)
(0,0,0)
(0,0,0)
(0,0,0)
(0,0,0)
(0,0,0)
(0,0,0)
(0,0,0)
(0,0,0)
(0,0,0)
(0,0,0)
(0,0,0)
(0,0,0)
(0,0,0)
(0,0,0)
(0,0,0)
(0,0,0)
(0,0,0)
(0,0,0)
(0,0,0)
(0,0,0)
(0,0,0)
(0,0,0)
(0,0,0)
(0,0,0)
(0,0,0)
(0,0,0)
(0,0,0)
(0,0,0)
(0,0,0)
(0,0,0)
(0,0,0)
(0,0,0)
(0,0,0)
(0,0,0)
(0,0,0)
(0,0,0)
(0,0,0)
(0,0,0)
(0,0,0)
(0,0,0)
(0,0,0)
(0,0,0)
(0,0,0)
(0,0,0)
(0,0,0)
(0,0,0)
(0,0,0)
(0,0,0)
(0,0,0)
(0,0,0)
(0,0,0)
(0,0,0)
(0,0,0)
(0,0,0)
(0,0,0)
(0,0,0)
(0,0,0)
(0,0,0)
(0,0,0)
(0,0,0)
(0,0,0)
(0,0,0)
(0,0,0)
(0,0,0)
(0,0,0)
(0,0,0)
(0,0,0)
(0,0,0)
(0,0,0)
(0,0,0)
(0,0,0)
(0,0,0)
(0,0,0)
(0,0,0)
(0,0,0)
(0,0,0)
(0,0,0)
(0,0,0)
(0,0,0)
(0,0,0)
(0,0,0)
(0,0,0)
(0,0,0)
(0,0,0)
(0,0,0)
(0,0,0)
(0,0,0)
(0,0,0)
(0,0,0)
(0,0,0)
(0,0,0)
(0,0,0)
(0,0,0)
(0,0,0)
(0,0,0)
(0,0,0)
(0,0,0)
(0,0,0)
(0,0,0)
(0,0,0)
(0,0,0)
(0,0,0)
(0,0,0)
(0,0,0)
(0,0,0)
(0,0,0)
(0,0,0)
(0,0,0)
(0,0,0)
(0,0,0)
(0,0,0)
(0,0,0)
(0,0,0)
(0,0,0)
(0,0,0)
(0,0,0)
(0,0,0)
(0,0,0)
(0,0,0)
(0,0,0)
(0,0,0)
(0,0,0)
(0,0,0)
(0,0,0)
(0,0,0)
(0,0,0)
(0,0,0)
(0,0,0)
(0,0,0)
(0,0,0)
(0,0,0)
(0,0,0)
(0,0,0)
(0,0,0)
(0,0,0)
(0,0,0)
(0,0,0)
(0,0,0)
(0,0,0)
(0,0,0)
(0,0,0)
(0,0,0)
(0,0,0)
(0,0,0)
(0,0,0)
(0,0,0)
(0,0,0)
(0,0,0)
(0,0,0)
(0,0,0)
(0,0,0)
(0,0,0)
(0,0,0)
(0,0,0)
(0,0,0)
(0,0,0)
(0,0,0)
(0,0,0)
(0,0,0)
(0,0,0)
(0,0,0)
(0,0,0)
(0,0,0)
(0,0,0)
(0,0,0)
(0,0,0)
(0,0,0)
(0,0,0)
(0,0,0)
(0,0,0)
(0,0,0)
(0,0,0)
(0,0,0)
(0,0,0)
(0,0,0)
(0,0,0)
(0,0,0)
(0,0,0)
(0,0,0)
(0,0,0)
(0,0,0)
(0,0,0)
(0,0,0)
(0,0,0)
(0,0,0)
(0,0,0)
(0,0,0)
(0,0,0)
(0,0,0)
(0,0,0)
(0,0,0)
(0,0,0)
(0,0,0)
(0,0,0)
(0,0,0)
(0,0,0)
(0,0,0)
(0,0,0)
(0,0,0)
(0,0,0)
(0,0,0)
(0,0,0)
(0,0,0)
(0,0,0)
(0,0,0)
(0,0,0)
(0,0,0)
(0,0,0)
(0,0,0)
(0,0,0)
(0,0,0)
(0,0,0)
(0,0,0)
(0,0,0)
(0,0,0)
(0,0,0)
(0,0,0)
(0,0,0)
(0,0,0)
(0,0,0)
(0,0,0)
(0,0,0)
(0,0,0)
(0,0,0)
(0,0,0)
(0,0,0)
(0,0,0)
(0,0,0)
(0,0,0)
(0,0,0)
(0,0,0)
(0,0,0)
(0,0,0)
(0,0,0)
(0,0,0)
(0,0,0)
(0,0,0)
(0,0,0)
(0,0,0)
(0,0,0)
(0,0,0)
(0,0,0)
(0,0,0)
(0,0,0)
(0,0,0)
(0,0,0)
(0,0,0)
(0,0,0)
(0,0,0)
(0,0,0)
(0,0,0)
(0,0,0)
(0,0,0)
(0,0,0)
(0,0,0)
(0,0,0)
(0,0,0)
(0,0,0)
(0,0,0)
(0,0,0)
(0,0,0)
(0,0,0)
(0,0,0)
(0,0,0)
(0,0,0)
(0,0,0)
(0,0,0)
(0,0,0)
(0,0,0)
(0,0,0)
(0,0,0)
(0,0,0)
(0,0,0)
(0,0,0)
(0,0,0)
(0,0,0)
(0,0,0)
(0,0,0)
(0,0,0)
(0,0,0)
(0,0,0)
(0,0,0)
(0,0,0)
(0,0,0)
(0,0,0)
(0,0,0)
(0,0,0)
(0,0,0)
(0,0,0)
(0,0,0)
(0,0,0)
(0,0,0)
(0,0,0)
(0,0,0)
(0,0,0)
(0,0,0)
(0,0,0)
(0,0,0)
(0,0,0)
(0,0,0)
(0,0,0)
(0,0,0)
(0,0,0)
(0,0,0)
(0,0,0)
(0,0,0)
(0,0,0)
(0,0,0)
(0,0,0)
(0,0,0)
(0,0,0)
(0,0,0)
(0,0,0)
(0,0,0)
(0,0,0)
(0,0,0)
(0,0,0)
(0,0,0)
(0,0,0)
(0,0,0)
(0,0,0)
(0,0,0)
(0,0,0)
(0,0,0)
(0,0,0)
(0,0,0)
(0,0,0)
(0,0,0)
(0,0,0)
(0,0,0)
(0,0,0)
(0,0,0)
(0,0,0)
(0,0,0)
(0,0,0)
(0,0,0)
(0,0,0)
(0,0,0)
(0,0,0)
(0,0,0)
(0,0,0)
(0,0,0)
(0,0,0)
(0,0,0)
(0,0,0)
(0,0,0)
(0,0,0)
(0,0,0)
(0,0,0)
(0,0,0)
(0,0,0)
(0,0,0)
(0,0,0)
(0,0,0)
(0,0,0)
(0,0,0)
(0,0,0)
(0,0,0)
(0,0,0)
(0,0,0)
(0,0,0)
(0,0,0)
(0,0,0)
(0,0,0)
(0,0,0)
(0,0,0)
(0,0,0)
(0,0,0)
(0,0,0)
(0,0,0)
(0,0,0)
(0,0,0)
(0,0,0)
(0,0,0)
(0,0,0)
(0,0,0)
(0,0,0)
(0,0,0)
(0,0,0)
(0,0,0)
(0,0,0)
(0,0,0)
(0,0,0)
(0,0,0)
(0,0,0)
(0,0,0)
(0,0,0)
(0,0,0)
(0,0,0)
(0,0,0)
(0,0,0)
(0,0,0)
(0,0,0)
(0,0,0)
(0,0,0)
(0,0,0)
(0,0,0)
(0,0,0)
(0,0,0)
(0,0,0)
(0,0,0)
(0,0,0)
(0,0,0)
(0,0,0)
(0,0,0)
(0,0,0)
(0,0,0)
(0,0,0)
(0,0,0)
(0,0,0)
(0,0,0)
(0,0,0)
(0,0,0)
(0,0,0)
(0,0,0)
(0,0,0)
(0,0,0)
(0,0,0)
(0,0,0)
(0,0,0)
(0,0,0)
(0,0,0)
(0,0,0)
(0,0,0)
(0,0,0)
(0,0,0)
(0,0,0)
(0,0,0)
(0,0,0)
(0,0,0)
(0,0,0)
(0,0,0)
(0,0,0)
(0,0,0)
(0,0,0)
(0,0,0)
(0,0,0)
(0,0,0)
(0,0,0)
(0,0,0)
(0,0,0)
(0,0,0)
(0,0,0)
(0,0,0)
(0,0,0)
(0,0,0)
(0,0,0)
(0,0,0)
(0,0,0)
(0,0,0)
(0,0,0)
(0,0,0)
(0,0,0)
(0,0,0)
(0,0,0)
(0,0,0)
(0,0,0)
(0,0,0)
(0,0,0)
(0,0,0)
(0,0,0)
(0,0,0)
(0,0,0)
(0,0,0)
(0,0,0)
(0,0,0)
(0,0,0)
(0,0,0)
(0,0,0)
(0,0,0)
(0,0,0)
(0,0,0)
(0,0,0)
(0,0,0)
(0,0,0)
(0,0,0)
(0,0,0)
(0,0,0)
(0,0,0)
(0,0,0)
(0,0,0)
(0,0,0)
(0,0,0)
(-9.54321850994913e-13,-8.89928249066361e-12,9.71922683032898e-12)
(-1.47955620331061e-12,-1.97034856510523e-11,9.71308777904477e-12)
(-1.30457049607958e-12,-3.32337327158658e-11,9.24638062792369e-12)
(-1.54123608542548e-12,-5.27848548877714e-11,8.12133174649716e-12)
(-2.10816381701702e-12,-8.2476316478047e-11,6.61374966037481e-12)
(-1.18948163982816e-12,-1.27222631970551e-10,4.39013738978357e-12)
(-3.65056735463931e-13,-1.99926138712689e-10,2.42938533012515e-12)
(4.65249083942991e-13,-3.21708041578192e-10,1.26586331495005e-12)
(1.22580030624746e-12,-5.23774173771727e-10,3.36549226710923e-13)
(1.18957460381514e-12,-8.0567520588583e-10,-1.44025961405668e-13)
(0,0,0)
(0,0,0)
(0,0,0)
(0,0,0)
(0,0,0)
(0,0,0)
(-1.32518297901616e-12,-8.8449227593537e-12,2.28579627183358e-11)
(-2.22583180168636e-12,-1.90773881304165e-11,2.22673276017998e-11)
(-3.26532647649668e-12,-3.20262212594468e-11,2.05790610573579e-11)
(-3.74016697232039e-12,-5.10929312740518e-11,1.7603448943841e-11)
(-4.33764789896114e-12,-8.05692544519125e-11,1.42248172621309e-11)
(-3.16851192556822e-12,-1.26022673738794e-10,9.96983121693694e-12)
(-9.44043747464858e-13,-1.9927735605229e-10,5.5372459940358e-12)
(1.17328761168006e-12,-3.20995280556814e-10,2.81149306031604e-12)
(1.62715835711917e-12,-5.23393043126665e-10,1.39372828698172e-12)
(1.4372993068441e-12,-8.05876302186448e-10,4.58686148919346e-13)
(0,0,0)
(0,0,0)
(0,0,0)
(0,0,0)
(0,0,0)
(0,0,0)
(-1.9478555653239e-12,-8.24511245331565e-12,3.79576792573438e-11)
(-4.03719886336319e-12,-1.72876409949232e-11,3.68913421771582e-11)
(-6.0919847850936e-12,-2.93902907239797e-11,3.4295613525833e-11)
(-7.29695981145473e-12,-4.77143066660694e-11,3.00291771497082e-11)
(-7.50003036805718e-12,-7.68856358292124e-11,2.48523472704869e-11)
(-5.91350897578668e-12,-1.22888553326668e-10,1.86197389457791e-11)
(-2.16965658692788e-12,-1.97293392201733e-10,1.16579123443881e-11)
(1.3470116124366e-12,-3.20080642806282e-10,7.28511263160241e-12)
(3.49619759635985e-12,-5.2298423708732e-10,4.73976459730356e-12)
(4.38512309801839e-12,-8.05924212485599e-10,2.37521776855209e-12)
(0,0,0)
(0,0,0)
(0,0,0)
(0,0,0)
(0,0,0)
(0,0,0)
(-2.92424817005672e-12,-7.49017260501244e-12,5.74251705496496e-11)
(-6.26528754071356e-12,-1.52368968505573e-11,5.62997848082139e-11)
(-8.51997327956281e-12,-2.63396484298791e-11,5.33188283617952e-11)
(-9.20329839720777e-12,-4.31680262932188e-11,4.83384717413229e-11)
(-8.24733523978019e-12,-7.10861096067525e-11,4.21497979981755e-11)
(-6.885501530499e-12,-1.16811570670628e-10,3.47390018535517e-11)
(-3.2930375383896e-12,-1.93110641485305e-10,2.63072604825508e-11)
(1.03161560183287e-12,-3.18096255225993e-10,1.96414795876545e-11)
(5.43683773544057e-12,-5.21123909108162e-10,1.3855207066371e-11)
(7.17779921738048e-12,-8.04126830282216e-10,7.59400940205359e-12)
(0,0,0)
(0,0,0)
(0,0,0)
(0,0,0)
(0,0,0)
(0,0,0)
(-3.79215082065665e-12,-6.18982377651816e-12,8.50664977812825e-11)
(-7.95652394153749e-12,-1.25772254603076e-11,8.40903455624103e-11)
(-9.56645538265102e-12,-2.22679052545894e-11,8.12007153517204e-11)
(-1.01596629167821e-11,-3.68780093815027e-11,7.64819634173764e-11)
(-8.7797618906807e-12,-6.2657896626028e-11,7.07062255111888e-11)
(-6.43249289971064e-12,-1.07582717815686e-10,6.36778380821369e-11)
(-2.79323854190977e-12,-1.85588491121588e-10,5.51051847321473e-11)
(8.57716553204006e-13,-3.13016294338217e-10,4.38439170270881e-11)
(4.68191892797438e-12,-5.15397905863402e-10,3.10878373743869e-11)
(5.61349343149724e-12,-7.97260750241276e-10,1.67399090345042e-11)
(0,0,0)
(0,0,0)
(0,0,0)
(0,0,0)
(0,0,0)
(0,0,0)
(-3.20772880205636e-12,-5.15053182271508e-12,1.26389604312578e-10)
(-6.43798003946773e-12,-9.9353353865619e-12,1.25209991502804e-10)
(-7.22477509108876e-12,-1.76602494136586e-11,1.22966541277602e-10)
(-8.86334431624126e-12,-3.0172673729316e-11,1.19834331708066e-10)
(-8.05507304431609e-12,-5.35836421139945e-11,1.15478322522407e-10)
(-6.30725801191015e-12,-9.7018412157869e-11,1.08861224485429e-10)
(-3.86695441790222e-12,-1.75478201858214e-10,9.82541551245796e-11)
(-1.73236993373736e-12,-3.02145093178296e-10,8.18886014993802e-11)
(1.10522865174026e-12,-5.0231904476219e-10,5.94861980053462e-11)
(2.57090300560148e-12,-7.8208686631583e-10,3.18548652926436e-11)
(0,0,0)
(0,0,0)
(0,0,0)
(0,0,0)
(0,0,0)
(0,0,0)
(-1.92688589383532e-12,-4.17680072166246e-12,1.95336789271297e-10)
(-4.71949854664838e-12,-7.64114348185217e-12,1.94071430061251e-10)
(-5.8228257817977e-12,-1.35176792748537e-11,1.92604967499575e-10)
(-6.75968332369099e-12,-2.4073346712153e-11,1.90795056395977e-10)
(-6.07765617691837e-12,-4.47168672668387e-11,1.87694214255971e-10)
(-5.04282352296742e-12,-8.45284222871339e-11,1.80642939107758e-10)
(-4.40856678262331e-12,-1.59683478166525e-10,1.66254231573156e-10)
(-4.26649259416001e-12,-2.81305226177021e-10,1.43447270974748e-10)
(-3.07176982197778e-12,-4.76019811933886e-10,1.07371413314205e-10)
(-1.34221485848008e-12,-7.51772564792853e-10,5.85971215893528e-11)
(0,0,0)
(0,0,0)
(0,0,0)
(0,0,0)
(0,0,0)
(0,0,0)
(-8.18514336839453e-14,-2.86046888777706e-12,3.12193024896321e-10)
(-1.78443576916642e-12,-5.85156826965519e-12,3.11603748697133e-10)
(-2.86624159763381e-12,-1.05957481254029e-11,3.10893730498292e-10)
(-3.13260890298492e-12,-1.93375728113923e-11,3.09513187977576e-10)
(-4.28572866205943e-12,-3.69817475627298e-11,3.06700455710376e-10)
(-5.7462748827152e-12,-7.16389284839226e-11,2.98552205363188e-10)
(-6.42384982439744e-12,-1.36847355540506e-10,2.80637266209436e-10)
(-6.72637385140976e-12,-2.45383589536206e-10,2.47221764926315e-10)
(-6.79515058755961e-12,-4.27876016273828e-10,1.91653285737649e-10)
(-4.77364569161772e-12,-6.9416442602865e-10,1.08639827128186e-10)
(0,0,0)
(0,0,0)
(0,0,0)
(0,0,0)
(0,0,0)
(0,0,0)
(7.19646304064387e-13,-2.04502073946233e-12,5.11958691279258e-10)
(8.62081124363784e-13,-4.51557026700767e-12,5.11392764194653e-10)
(1.22590782223337e-12,-7.92749956113473e-12,5.10652202961189e-10)
(6.43117165070418e-13,-1.43869924047581e-11,5.09148713665707e-10)
(-1.84011326410478e-12,-2.76368027046581e-11,5.05486635011104e-10)
(-5.30237540360012e-12,-5.39269121246988e-11,4.95272603106185e-10)
(-7.88197307077635e-12,-1.02929079048271e-10,4.72026578792897e-10)
(-9.59503657662176e-12,-1.89339028847765e-10,4.267176760559e-10)
(-9.76791228896989e-12,-3.45086493543258e-10,3.45482775007321e-10)
(-7.73818433752127e-12,-5.8584183021272e-10,2.07694049995498e-10)
(0,0,0)
(0,0,0)
(0,0,0)
(0,0,0)
(0,0,0)
(0,0,0)
(1.53735006308831e-12,-1.09541793080089e-12,7.93683023943633e-10)
(2.38549051395308e-12,-2.55862244425151e-12,7.93188743663261e-10)
(3.46464583365174e-12,-4.37808103063763e-12,7.92019990218912e-10)
(2.70879991434673e-12,-7.95360761247238e-12,7.90315394206548e-10)
(-2.01624809783282e-13,-1.51282284017927e-11,7.85599520283454e-10)
(-4.5453360841172e-12,-2.94183234931646e-11,7.73610247880221e-10)
(-7.9443202423722e-12,-5.64238335054371e-11,7.46478461364304e-10)
(-1.05733876601969e-11,-1.07388505246849e-10,6.91911524037094e-10)
(-1.07315299764588e-11,-2.07199352365288e-10,5.85572081406458e-10)
(-9.20606326428087e-12,-3.78180260515822e-10,3.78507816669156e-10)
(0,0,0)
(0,0,0)
(0,0,0)
(0,0,0)
(0,0,0)
(0,0,0)
(0,0,0)
(0,0,0)
(0,0,0)
(0,0,0)
(0,0,0)
(0,0,0)
(0,0,0)
(0,0,0)
(0,0,0)
(0,0,0)
(0,0,0)
(0,0,0)
(0,0,0)
(0,0,0)
(0,0,0)
(0,0,0)
(0,0,0)
(0,0,0)
(0,0,0)
(0,0,0)
(0,0,0)
(0,0,0)
(0,0,0)
(0,0,0)
(0,0,0)
(0,0,0)
(0,0,0)
(0,0,0)
(0,0,0)
(0,0,0)
(0,0,0)
(0,0,0)
(0,0,0)
(0,0,0)
(0,0,0)
(0,0,0)
(0,0,0)
(0,0,0)
(0,0,0)
(0,0,0)
(0,0,0)
(0,0,0)
(0,0,0)
(0,0,0)
(0,0,0)
(0,0,0)
(0,0,0)
(0,0,0)
(0,0,0)
(0,0,0)
(0,0,0)
(0,0,0)
(0,0,0)
(0,0,0)
(0,0,0)
(0,0,0)
(0,0,0)
(0,0,0)
(0,0,0)
(0,0,0)
(0,0,0)
(0,0,0)
(0,0,0)
(0,0,0)
(0,0,0)
(0,0,0)
(0,0,0)
(0,0,0)
(0,0,0)
(0,0,0)
(0,0,0)
(0,0,0)
(0,0,0)
(0,0,0)
(0,0,0)
(0,0,0)
(0,0,0)
(0,0,0)
(0,0,0)
(0,0,0)
(0,0,0)
(0,0,0)
(0,0,0)
(0,0,0)
(0,0,0)
(0,0,0)
(0,0,0)
(0,0,0)
(0,0,0)
(0,0,0)
(0,0,0)
(0,0,0)
(0,0,0)
(0,0,0)
(0,0,0)
(0,0,0)
(-1.00254253102325e-12,-1.48362869497864e-11,1.81226480757625e-11)
(-1.63894657282718e-12,-3.42004575970056e-11,1.7730654443609e-11)
(-1.38703307109132e-12,-5.94441628916207e-11,1.64208861890632e-11)
(-1.72557761303184e-12,-9.51713348343278e-11,1.42808719222476e-11)
(-1.79161357261835e-12,-1.48311072362182e-10,1.08391505880732e-11)
(-4.28687811855555e-13,-2.2778478043009e-10,6.35965487511748e-12)
(1.49682619446703e-13,-3.52121825471645e-10,2.52396145188642e-12)
(6.81802150632261e-13,-5.624976969753e-10,3.98994823322868e-13)
(1.32524484882935e-12,-9.66898037146983e-10,-6.1351745995155e-13)
(1.24664494281161e-12,-1.89466621958296e-09,-8.20538395388149e-13)
(0,0,0)
(0,0,0)
(0,0,0)
(0,0,0)
(0,0,0)
(0,0,0)
(-1.33435816851905e-12,-1.51154774292164e-11,4.03466442616546e-11)
(-2.32731239272567e-12,-3.35944435320278e-11,3.91502311567367e-11)
(-2.9256448984629e-12,-5.77664620825497e-11,3.61097383088832e-11)
(-3.74015989857521e-12,-9.24177457291274e-11,3.12243562977372e-11)
(-3.76628047645561e-12,-1.44888225082253e-10,2.40946586187378e-11)
(-1.87004711481415e-12,-2.24962644790602e-10,1.49246516186302e-11)
(-2.02254664439702e-13,-3.51009074010563e-10,6.12092831856208e-12)
(1.67641463486543e-12,-5.62236396487441e-10,1.49660943039221e-12)
(2.15339445618258e-12,-9.66809673368008e-10,1.27732469889172e-13)
(1.94389575476971e-12,-1.89532229379339e-09,-3.44067232973587e-13)
(0,0,0)
(0,0,0)
(0,0,0)
(0,0,0)
(0,0,0)
(0,0,0)
(-1.63645833344028e-12,-1.46488627126172e-11,6.72381823795816e-11)
(-3.49221435640066e-12,-3.11619141797888e-11,6.53700100301226e-11)
(-4.87619070303573e-12,-5.35309216473818e-11,6.09028094621245e-11)
(-6.66641030509309e-12,-8.65208373287681e-11,5.37390943408409e-11)
(-7.06694826587422e-12,-1.37477032885242e-10,4.29087610573275e-11)
(-5.02866503043599e-12,-2.17889754275871e-10,2.88025322007953e-11)
(-1.97960759047369e-12,-3.47735046609559e-10,1.44946578367441e-11)
(1.90797206626397e-12,-5.62290519706963e-10,7.85132747759788e-12)
(4.00041644587462e-12,-9.67422309736104e-10,5.40947772049326e-12)
(4.96295866264605e-12,-1.89604673388579e-09,2.89967159218482e-12)
(0,0,0)
(0,0,0)
(0,0,0)
(0,0,0)
(0,0,0)
(0,0,0)
(-3.0992112571147e-12,-1.35956920472744e-11,1.03097286646338e-10)
(-5.94400248454559e-12,-2.75442163097322e-11,1.00746425790183e-10)
(-7.61135983439256e-12,-4.72858329952158e-11,9.52977818288776e-11)
(-9.30464156577844e-12,-7.70356080972217e-11,8.65966311269606e-11)
(-9.26475207588768e-12,-1.24607503673842e-10,7.35513780726914e-11)
(-7.68261301444265e-12,-2.04239461089986e-10,5.66277168380404e-11)
(-4.14940700726239e-12,-3.40532121201779e-10,3.86079978520731e-11)
(1.73792723543401e-12,-5.61793128834176e-10,2.84998759773126e-11)
(5.9720321557324e-12,-9.67075449743639e-10,2.07824071474827e-11)
(7.90572858005311e-12,-1.89436182273108e-09,1.14297870058473e-11)
(0,0,0)
(0,0,0)
(0,0,0)
(0,0,0)
(0,0,0)
(0,0,0)
(-3.85529055558867e-12,-1.17694805132427e-11,1.52911889318062e-10)
(-7.7087838045955e-12,-2.28005918581386e-11,1.50671303035828e-10)
(-9.45535928924351e-12,-3.88369779143201e-11,1.4538652598227e-10)
(-1.10892606627815e-11,-6.35623850016265e-11,1.37014314161145e-10)
(-1.08256289736519e-11,-1.05749393805586e-10,1.25423047484533e-10)
(-8.42414520760462e-12,-1.82128393817363e-10,1.11815368768241e-10)
(-1.64226010014232e-12,-3.23755143445047e-10,9.9378357176933e-11)
(2.74259504612176e-12,-5.56517456392259e-10,7.66895219167829e-11)
(5.95098616623945e-12,-9.60537104605003e-10,5.34260822360371e-11)
(7.17951854027364e-12,-1.88454255314614e-09,2.80059754449999e-11)
(0,0,0)
(0,0,0)
(0,0,0)
(0,0,0)
(0,0,0)
(0,0,0)
(-3.0018470933337e-12,-9.70664035788232e-12,2.25280774834814e-10)
(-6.48872171898057e-12,-1.76809430121444e-11,2.22983912713936e-10)
(-8.23513566036478e-12,-2.95773930628793e-11,2.19002156261478e-10)
(-1.06066621477409e-11,-4.95732101269972e-11,2.13643525866777e-10)
(-1.03047498544761e-11,-8.64654789790808e-11,2.05656700022538e-10)
(-8.19017852183229e-12,-1.59794125074867e-10,1.94240195737072e-10)
(-3.29612448443337e-12,-3.0803680406153e-10,1.78087662641649e-10)
(-1.69833441077814e-13,-5.40013184451997e-10,1.47805888428732e-10)
(2.43732853606389e-12,-9.39204296395477e-10,1.06050979966747e-10)
(4.11146677560107e-12,-1.85909184210745e-09,5.58599925854611e-11)
(0,0,0)
(0,0,0)
(0,0,0)
(0,0,0)
(0,0,0)
(0,0,0)
(-1.97785851767611e-12,-7.65473575426081e-12,3.42582239334248e-10)
(-5.04261119716542e-12,-1.33343334692088e-11,3.40430854521765e-10)
(-6.9348458276432e-12,-2.18742558444987e-11,3.38116399158761e-10)
(-8.39461508445718e-12,-3.76377246047995e-11,3.35619311274786e-10)
(-6.76150073278126e-12,-6.83748618083054e-11,3.31323085626028e-10)
(-3.54360979157402e-12,-1.33688200864743e-10,3.21921818023172e-10)
(-4.43772881019284e-12,-2.79776312512081e-10,2.95207311388089e-10)
(-4.11227157460022e-12,-5.02782865977932e-10,2.58464082607142e-10)
(-2.44127375682725e-12,-8.92188631903378e-10,1.90847460776581e-10)
(-3.5323203241953e-13,-1.80543815878666e-09,1.0269816035677e-10)
(0,0,0)
(0,0,0)
(0,0,0)
(0,0,0)
(0,0,0)
(0,0,0)
(-3.08023382810556e-13,-5.28007500876827e-12,5.45288018363363e-10)
(-2.41041557297044e-12,-9.9264750803951e-12,5.44129371885102e-10)
(-4.15394764118294e-12,-1.67440063296678e-11,5.43192021625055e-10)
(-5.2704570424212e-12,-2.99808020120005e-11,5.41945945030271e-10)
(-5.48242317296454e-12,-5.7942685136396e-11,5.38602170145903e-10)
(-5.5433520881226e-12,-1.18319088008114e-10,5.28443509513642e-10)
(-6.92662503343754e-12,-2.4210574528335e-10,5.00738468959265e-10)
(-7.20245535144408e-12,-4.35967595003374e-10,4.40405604126187e-10)
(-6.57121470857719e-12,-8.05680420802473e-10,3.39297425569426e-10)
(-4.45641438035895e-12,-1.70410088571224e-09,1.92546550753267e-10)
(0,0,0)
(0,0,0)
(0,0,0)
(0,0,0)
(0,0,0)
(0,0,0)
(3.35970580007842e-13,-3.46345450865546e-12,9.444447977348e-10)
(-3.54305464927993e-13,-7.04698994845626e-12,9.43766600438873e-10)
(-8.20021412776256e-13,-1.21517135415934e-11,9.43102393532474e-10)
(-2.12818897260436e-12,-2.22068831247262e-11,9.41611161038406e-10)
(-4.13465566204122e-12,-4.45176872020254e-11,9.36781291430726e-10)
(-6.56493972188447e-12,-9.10517819057363e-11,9.2145402545509e-10)
(-9.07831587658453e-12,-1.80206657534036e-10,8.83415150146262e-10)
(-1.03106591289423e-11,-3.34447965756924e-10,8.03546923681639e-10)
(-9.86632845516113e-12,-6.59663116542571e-10,6.60047772106023e-10)
(-7.70570403897282e-12,-1.51193624230501e-09,4.12254353343645e-10)
(0,0,0)
(0,0,0)
(0,0,0)
(0,0,0)
(0,0,0)
(0,0,0)
(9.36212412659317e-13,-1.74166513915307e-12,1.8706587343846e-09)
(9.95621514050663e-13,-3.8380018933212e-12,1.87031167175375e-09)
(7.91160815373597e-13,-6.56304468737668e-12,1.86917734694712e-09)
(-5.28933775031032e-13,-1.19901556153551e-11,1.86677933678508e-09)
(-3.34058080835268e-12,-2.4469438824073e-11,1.85997247514104e-09)
(-6.83187306137296e-12,-4.989890081397e-11,1.84034109392472e-09)
(-9.80121642063299e-12,-9.79798063430737e-11,1.79428538529468e-09)
(-1.16224502763785e-11,-1.90038406919388e-10,1.69887900079154e-09)
(-1.08666176044468e-11,-4.1150740527788e-10,1.50961768558963e-09)
(-8.87850711082135e-12,-1.09884516409646e-09,1.09822919830736e-09)
(0,0,0)
(0,0,0)
(0,0,0)
(0,0,0)
(0,0,0)
(0,0,0)
(0,0,0)
(0,0,0)
(0,0,0)
(0,0,0)
(0,0,0)
(0,0,0)
(0,0,0)
(0,0,0)
(0,0,0)
(0,0,0)
(0,0,0)
(0,0,0)
(0,0,0)
(0,0,0)
(0,0,0)
(0,0,0)
(0,0,0)
(0,0,0)
(0,0,0)
(0,0,0)
(0,0,0)
(0,0,0)
(0,0,0)
(0,0,0)
(0,0,0)
(0,0,0)
(0,0,0)
(0,0,0)
(0,0,0)
(0,0,0)
(0,0,0)
(0,0,0)
(0,0,0)
(0,0,0)
(0,0,0)
(0,0,0)
(0,0,0)
(0,0,0)
(0,0,0)
(0,0,0)
(0,0,0)
(0,0,0)
(0,0,0)
(0,0,0)
(0,0,0)
(0,0,0)
(0,0,0)
(0,0,0)
(0,0,0)
(0,0,0)
(0,0,0)
(0,0,0)
(0,0,0)
(0,0,0)
(0,0,0)
(0,0,0)
(0,0,0)
(0,0,0)
(0,0,0)
(0,0,0)
(0,0,0)
(0,0,0)
(0,0,0)
(0,0,0)
(0,0,0)
(0,0,0)
(0,0,0)
(0,0,0)
(0,0,0)
(0,0,0)
(0,0,0)
(0,0,0)
(0,0,0)
(0,0,0)
(0,0,0)
(0,0,0)
(0,0,0)
(0,0,0)
(0,0,0)
(0,0,0)
(0,0,0)
(0,0,0)
(0,0,0)
(0,0,0)
(0,0,0)
(0,0,0)
(0,0,0)
(0,0,0)
(0,0,0)
(0,0,0)
(0,0,0)
(0,0,0)
(0,0,0)
(0,0,0)
(0,0,0)
(0,0,0)
(-3.31358419666619e-13,-1.98403652946477e-11,2.4962796264405e-11)
(-9.35192382785763e-13,-4.57736440286314e-11,2.43170420588157e-11)
(-9.24719612768006e-13,-7.93964852114261e-11,2.21740425890736e-11)
(-1.03744538407721e-12,-1.23921662536713e-10,1.84777845865684e-11)
(-7.34965140182893e-13,-1.88580863572191e-10,1.2694372354842e-11)
(5.8486997245625e-13,-2.82317725127621e-10,5.62844198128325e-12)
(1.16189778635183e-12,-4.15912640017418e-10,-6.22839606479783e-13)
(1.43301394573594e-12,-6.08455153684898e-10,-2.99316457741431e-12)
(1.44390200594268e-12,-8.8460719313646e-10,-2.85220911069097e-12)
(1.0821807565256e-12,-1.22146817809004e-09,-1.76931537775272e-12)
(0,0,0)
(0,0,0)
(0,0,0)
(0,0,0)
(0,0,0)
(0,0,0)
(-6.04559780300807e-13,-1.9827881199452e-11,5.42404810838566e-11)
(-1.71934889773106e-12,-4.44189467071432e-11,5.26353597244754e-11)
(-2.27580332332795e-12,-7.63285736673214e-11,4.8035453781462e-11)
(-2.50737061955302e-12,-1.19353092081585e-10,4.01739828725645e-11)
(-2.00746567281097e-12,-1.83015516248469e-10,2.82488964249676e-11)
(-1.3921433019884e-13,-2.77414932424637e-10,1.26148221447673e-11)
(1.14803682209196e-12,-4.15091382547859e-10,-2.48033601954025e-12)
(3.09941481570317e-12,-6.10344286998612e-10,-6.98958012358714e-12)
(3.23783052743817e-12,-8.86560894147369e-10,-5.31732165997538e-12)
(2.32426861479097e-12,-1.22352791869936e-09,-2.60354992228987e-12)
(0,0,0)
(0,0,0)
(0,0,0)
(0,0,0)
(0,0,0)
(0,0,0)
(-8.21456651132309e-13,-1.88711481578536e-11,8.96717139153465e-11)
(-2.64271165744695e-12,-4.06301292757005e-11,8.70949366092608e-11)
(-3.95756423362577e-12,-6.93013938641313e-11,8.05125536492916e-11)
(-5.32130625325019e-12,-1.09202823321579e-10,6.90464467057423e-11)
(-5.83024862084304e-12,-1.69816051997186e-10,5.07404874264721e-11)
(-4.37108385241404e-12,-2.64770331771416e-10,2.41900634522595e-11)
(-2.53920263894643e-12,-4.13377635049029e-10,-4.68101806382457e-12)
(3.85243095037605e-12,-6.15865133782117e-10,-8.27351654908066e-12)
(6.16336258253499e-12,-8.91953364933881e-10,-3.75521524018879e-12)
(6.1777191000544e-12,-1.22774864096051e-09,-6.7780091954792e-13)
(0,0,0)
(0,0,0)
(0,0,0)
(0,0,0)
(0,0,0)
(0,0,0)
(-2.57456193633234e-12,-1.67417441654195e-11,1.35512070323206e-10)
(-5.23898297369146e-12,-3.47772917184622e-11,1.32006827528326e-10)
(-7.35906421346449e-12,-5.89392079900898e-11,1.2386327225129e-10)
(-9.73261160881067e-12,-9.29266871344559e-11,1.10091056244356e-10)
(-1.11992007098488e-11,-1.45997798536673e-10,8.80804722621772e-11)
(-1.17739612997229e-11,-2.38291579200988e-10,5.42134400679853e-11)
(-1.08182628886527e-11,-4.09110983206383e-10,9.50135890997328e-12)
(4.17972362303778e-12,-6.27028480026439e-10,8.96186722940559e-12)
(8.78630715947882e-12,-9.00072399993178e-10,1.20881679557636e-11)
(9.51624599923406e-12,-1.23147573170354e-09,8.55342134437794e-12)
(0,0,0)
(0,0,0)
(0,0,0)
(0,0,0)
(0,0,0)
(0,0,0)
(-3.67754442869331e-12,-1.39253517778965e-11,1.96719179788613e-10)
(-7.5436555965234e-12,-2.76117391190272e-11,1.93417350942034e-10)
(-1.03427323211819e-11,-4.59398438003225e-11,1.85718727045291e-10)
(-1.34871688606235e-11,-7.15901351106854e-11,1.72911272580403e-10)
(-1.65018650821181e-11,-1.11722094292002e-10,1.5420493234587e-10)
(-1.8321402359444e-11,-1.87064116869072e-10,1.32175157385867e-10)
(5.32823577486041e-12,-3.6461041296255e-10,1.35852319336788e-10)
(9.50176278603085e-12,-6.38610175991273e-10,8.77848701859354e-11)
(1.00382847497077e-11,-9.0373489345885e-10,5.96738759070689e-11)
(9.73478294625865e-12,-1.22712120367102e-09,3.13820267287133e-11)
(0,0,0)
(0,0,0)
(0,0,0)
(0,0,0)
(0,0,0)
(0,0,0)
(-2.7568895761732e-12,-1.10166958523282e-11,2.80286611788033e-10)
(-6.8535748096086e-12,-2.04869856159405e-11,2.77597805088378e-10)
(-1.05796424843617e-11,-3.26658021551244e-11,2.72318999293284e-10)
(-1.45553218253928e-11,-5.02155738202739e-11,2.6453808731931e-10)
(-1.69788627396606e-11,-7.93644678807712e-11,2.53129780733812e-10)
(-1.81435696370242e-11,-1.48190725311337e-10,2.37678027252194e-10)
(-1.27484181968599e-12,-3.6680323161964e-10,2.32806408526395e-10)
(4.35475654529247e-12,-6.30260251915469e-10,1.85479358685817e-10)
(5.61265142693507e-12,-8.83516354537801e-10,1.29602703775973e-10)
(6.31777603952207e-12,-1.19965345481448e-09,6.70818564427996e-11)
(0,0,0)
(0,0,0)
(0,0,0)
(0,0,0)
(0,0,0)
(0,0,0)
(-2.20113444914535e-12,-8.31086603102595e-12,4.02688412492064e-10)
(-6.13601422513201e-12,-1.47548024582131e-11,4.00898947433245e-10)
(-9.56800745806095e-12,-2.21386633391351e-11,3.98554461737708e-10)
(-1.17553120288744e-11,-3.25165340156531e-11,3.96830682283401e-10)
(-7.79240980113723e-12,-4.81605386179366e-11,3.97325878999861e-10)
(7.80178398714066e-12,-9.0336282726145e-11,4.01288530573398e-10)
(-5.36506725873676e-12,-3.32207322338916e-10,3.46060896225479e-10)
(-3.31092071909653e-12,-5.87343201668386e-10,3.32995397368342e-10)
(-8.00184437196951e-13,-8.26176740836109e-10,2.31450994264393e-10)
(1.00765524952634e-12,-1.13446314605663e-09,1.19076695770493e-10)
(0,0,0)
(0,0,0)
(0,0,0)
(0,0,0)
(0,0,0)
(0,0,0)
(-9.6599740324874e-13,-5.93039776289157e-12,5.84455522935845e-10)
(-4.35255044517208e-12,-1.08508904956289e-11,5.83761523510357e-10)
(-7.50016383447318e-12,-1.61373171694289e-11,5.83434362789581e-10)
(-9.70060104544528e-12,-2.58572068243923e-11,5.84420871584881e-10)
(-8.74876047491562e-12,-4.83153402989504e-11,5.86908902561338e-10)
(-5.10561763597143e-12,-1.13163514549124e-10,5.90697353977482e-10)
(-8.49284794994684e-12,-3.01688295507847e-10,5.76533638716794e-10)
(-7.61390604199325e-12,-4.84979326712948e-10,4.90817632314685e-10)
(-5.83764415285043e-12,-7.14417997038245e-10,3.57764952681964e-10)
(-4.07450703298489e-12,-1.0154045340064e-09,1.92778208072018e-10)
(0,0,0)
(0,0,0)
(0,0,0)
(0,0,0)
(0,0,0)
(0,0,0)
(-7.07621493955168e-13,-3.82754812046561e-12,8.52582286414497e-10)
(-2.89908661482204e-12,-7.60153861490317e-12,8.52433769747597e-10)
(-4.91745777174958e-12,-1.16016345919272e-11,8.52740217145938e-10)
(-7.51504687468154e-12,-2.02382027087379e-11,8.53279152074749e-10)
(-8.85563806348001e-12,-4.29282029429397e-11,8.51721569758443e-10)
(-9.67894550507572e-12,-9.76947170151406e-11,8.41930827490928e-10)
(-1.14369406023186e-11,-2.11456493840604e-10,8.06001594932696e-10)
(-1.12210663932047e-11,-3.50518885840591e-10,7.08394278071694e-10)
(-1.0228620955696e-11,-5.49014446668557e-10,5.48294586739362e-10)
(-8.54242890425642e-12,-8.21937859664524e-10,3.14752330667336e-10)
(0,0,0)
(0,0,0)
(0,0,0)
(0,0,0)
(0,0,0)
(0,0,0)
(-4.58390096892475e-13,-1.9252267990994e-12,1.18661623050083e-09)
(-1.70805557273123e-12,-4.21528370176898e-12,1.18654196097082e-09)
(-3.37387370979211e-12,-6.43609024781334e-12,1.18640106204496e-09)
(-5.71222774679504e-12,-1.13127345008263e-11,1.18542677290843e-09)
(-8.17863841508343e-12,-2.50863044191951e-11,1.18057890890915e-09)