/*--------------------------------*- C++ -*----------------------------------*\
| =========                 |                                                 |
| \\      /  F ield         | foam-extend: Open Source Cstd::filesystem::create_directory();FD                    |
|  \\    /   O peration     | Version:     4.0                                |
|   \\  /    A nd           | Web:         http://www.foam-extend.org         |
|    \\/     M anipulation  |                                                 |
\*---------------------------------------------------------------------------*/
FoamFile
{
    version 2.0;
    format ascii;
    class volVectorField;
    location "Data/883";
    object      H;
}
// * * * * * * * * * * * * * * * * * * * * * * * * * * * * * * * * * * * * * //

dimensions      [0 1 -1 0 0 0 0];

internalField   nonuniform List<vector>
4096
(
(0,0,0)
(0,0,0)
(0,0,0)
(0,0,0)
(0,0,0)
(0,0,0)
(0,0,0)
(0,0,0)
(0,0,0)
(0,0,0)
(0,0,0)
(0,0,0)
(0,0,0)
(0,0,0)
(0,0,0)
(0,0,0)
(0,0,0)
(0,0,0)
(0,0,0)
(0,0,0)
(0,0,0)
(0,0,0)
(0,0,0)
(0,0,0)
(0,0,0)
(0,0,0)
(0,0,0)
(0,0,0)
(0,0,0)
(0,0,0)
(0,0,0)
(0,0,0)
(0,0,0)
(0,0,0)
(0,0,0)
(0,0,0)
(0,0,0)
(0,0,0)
(0,0,0)
(0,0,0)
(0,0,0)
(0,0,0)
(0,0,0)
(0,0,0)
(0,0,0)
(0,0,0)
(0,0,0)
(0,0,0)
(0,0,0)
(0,0,0)
(0,0,0)
(0,0,0)
(0,0,0)
(0,0,0)
(0,0,0)
(0,0,0)
(0,0,0)
(0,0,0)
(0,0,0)
(0,0,0)
(0,0,0)
(0,0,0)
(0,0,0)
(0,0,0)
(0,0,0)
(0,0,0)
(0,0,0)
(0,0,0)
(0,0,0)
(0,0,0)
(0,0,0)
(0,0,0)
(0,0,0)
(0,0,0)
(0,0,0)
(0,0,0)
(0,0,0)
(0,0,0)
(0,0,0)
(0,0,0)
(0,0,0)
(0,0,0)
(0,0,0)
(0,0,0)
(0,0,0)
(0,0,0)
(0,0,0)
(0,0,0)
(0,0,0)
(0,0,0)
(0,0,0)
(0,0,0)
(0,0,0)
(0,0,0)
(0,0,0)
(0,0,0)
(0,0,0)
(0,0,0)
(0,0,0)
(0,0,0)
(0,0,0)
(0,0,0)
(0,0,0)
(0,0,0)
(0,0,0)
(0,0,0)
(0,0,0)
(0,0,0)
(0,0,0)
(0,0,0)
(0,0,0)
(0,0,0)
(0,0,0)
(0,0,0)
(0,0,0)
(0,0,0)
(0,0,0)
(0,0,0)
(0,0,0)
(0,0,0)
(0,0,0)
(0,0,0)
(0,0,0)
(0,0,0)
(0,0,0)
(0,0,0)
(0,0,0)
(0,0,0)
(0,0,0)
(0,0,0)
(0,0,0)
(0,0,0)
(0,0,0)
(0,0,0)
(0,0,0)
(0,0,0)
(0,0,0)
(0,0,0)
(0,0,0)
(0,0,0)
(0,0,0)
(0,0,0)
(0,0,0)
(0,0,0)
(0,0,0)
(0,0,0)
(0,0,0)
(0,0,0)
(0,0,0)
(0,0,0)
(0,0,0)
(0,0,0)
(0,0,0)
(0,0,0)
(0,0,0)
(0,0,0)
(0,0,0)
(0,0,0)
(0,0,0)
(0,0,0)
(0,0,0)
(0,0,0)
(0,0,0)
(0,0,0)
(0,0,0)
(0,0,0)
(0,0,0)
(0,0,0)
(0,0,0)
(0,0,0)
(0,0,0)
(0,0,0)
(0,0,0)
(0,0,0)
(0,0,0)
(0,0,0)
(0,0,0)
(0,0,0)
(0,0,0)
(0,0,0)
(0,0,0)
(0,0,0)
(0,0,0)
(0,0,0)
(0,0,0)
(0,0,0)
(0,0,0)
(0,0,0)
(0,0,0)
(0,0,0)
(0,0,0)
(0,0,0)
(0,0,0)
(0,0,0)
(0,0,0)
(0,0,0)
(0,0,0)
(0,0,0)
(0,0,0)
(0,0,0)
(0,0,0)
(0,0,0)
(0,0,0)
(0,0,0)
(0,0,0)
(0,0,0)
(0,0,0)
(0,0,0)
(0,0,0)
(0,0,0)
(0,0,0)
(0,0,0)
(0,0,0)
(0,0,0)
(0,0,0)
(0,0,0)
(0,0,0)
(0,0,0)
(0,0,0)
(0,0,0)
(0,0,0)
(0,0,0)
(0,0,0)
(0,0,0)
(0,0,0)
(0,0,0)
(0,0,0)
(0,0,0)
(0,0,0)
(0,0,0)
(0,0,0)
(0,0,0)
(0,0,0)
(0,0,0)
(0,0,0)
(0,0,0)
(0,0,0)
(0,0,0)
(0,0,0)
(0,0,0)
(0,0,0)
(0,0,0)
(0,0,0)
(0,0,0)
(0,0,0)
(0,0,0)
(0,0,0)
(0,0,0)
(0,0,0)
(0,0,0)
(0,0,0)
(0,0,0)
(0,0,0)
(0,0,0)
(0,0,0)
(0,0,0)
(0,0,0)
(0,0,0)
(0,0,0)
(0,0,0)
(0,0,0)
(0,0,0)
(0,0,0)
(0,0,0)
(0,0,0)
(0,0,0)
(0,0,0)
(0,0,0)
(0,0,0)
(0,0,0)
(0,0,0)
(0,0,0)
(0,0,0)
(0,0,0)
(0,0,0)
(0,0,0)
(0,0,0)
(0,0,0)
(0,0,0)
(0,0,0)
(0,0,0)
(0,0,0)
(0,0,0)
(0,0,0)
(0,0,0)
(0,0,0)
(0,0,0)
(0,0,0)
(0,0,0)
(0,0,0)
(0,0,0)
(0,0,0)
(0,0,0)
(0,0,0)
(0,0,0)
(0,0,0)
(0,0,0)
(0,0,0)
(0,0,0)
(0,0,0)
(0,0,0)
(0,0,0)
(0,0,0)
(0,0,0)
(0,0,0)
(0,0,0)
(0,0,0)
(0,0,0)
(0,0,0)
(0,0,0)
(0,0,0)
(0,0,0)
(0,0,0)
(0,0,0)
(0,0,0)
(0,0,0)
(0,0,0)
(0,0,0)
(0,0,0)
(0,0,0)
(0,0,0)
(0,0,0)
(0,0,0)
(0,0,0)
(0,0,0)
(0,0,0)
(0,0,0)
(0,0,0)
(0,0,0)
(0,0,0)
(0,0,0)
(0,0,0)
(0,0,0)
(0,0,0)
(0,0,0)
(0,0,0)
(0,0,0)
(0,0,0)
(0,0,0)
(0,0,0)
(0,0,0)
(0,0,0)
(0,0,0)
(0,0,0)
(0,0,0)
(0,0,0)
(0,0,0)
(0,0,0)
(0,0,0)
(0,0,0)
(0,0,0)
(0,0,0)
(0,0,0)
(0,0,0)
(0,0,0)
(0,0,0)
(0,0,0)
(0,0,0)
(0,0,0)
(0,0,0)
(0,0,0)
(0,0,0)
(0,0,0)
(0,0,0)
(0,0,0)
(0,0,0)
(0,0,0)
(0,0,0)
(0,0,0)
(0,0,0)
(0,0,0)
(0,0,0)
(0,0,0)
(0,0,0)
(0,0,0)
(0,0,0)
(0,0,0)
(0,0,0)
(0,0,0)
(0,0,0)
(0,0,0)
(0,0,0)
(0,0,0)
(0,0,0)
(0,0,0)
(0,0,0)
(0,0,0)
(0,0,0)
(0,0,0)
(0,0,0)
(0,0,0)
(0,0,0)
(0,0,0)
(0,0,0)
(0,0,0)
(0,0,0)
(0,0,0)
(0,0,0)
(0,0,0)
(0,0,0)
(0,0,0)
(0,0,0)
(0,0,0)
(0,0,0)
(0,0,0)
(0,0,0)
(0,0,0)
(0,0,0)
(0,0,0)
(0,0,0)
(0,0,0)
(0,0,0)
(0,0,0)
(0,0,0)
(0,0,0)
(0,0,0)
(0,0,0)
(0,0,0)
(0,0,0)
(0,0,0)
(0,0,0)
(0,0,0)
(0,0,0)
(0,0,0)
(0,0,0)
(0,0,0)
(0,0,0)
(0,0,0)
(0,0,0)
(0,0,0)
(0,0,0)
(0,0,0)
(0,0,0)
(0,0,0)
(0,0,0)
(0,0,0)
(0,0,0)
(0,0,0)
(0,0,0)
(0,0,0)
(0,0,0)
(0,0,0)
(0,0,0)
(0,0,0)
(0,0,0)
(0,0,0)
(0,0,0)
(0,0,0)
(0,0,0)
(0,0,0)
(0,0,0)
(0,0,0)
(0,0,0)
(0,0,0)
(0,0,0)
(0,0,0)
(0,0,0)
(0,0,0)
(0,0,0)
(0,0,0)
(0,0,0)
(0,0,0)
(0,0,0)
(0,0,0)
(0,0,0)
(0,0,0)
(0,0,0)
(0,0,0)
(0,0,0)
(0,0,0)
(0,0,0)
(0,0,0)
(0,0,0)
(0,0,0)
(0,0,0)
(0,0,0)
(0,0,0)
(0,0,0)
(0,0,0)
(0,0,0)
(0,0,0)
(0,0,0)
(0,0,0)
(0,0,0)
(0,0,0)
(0,0,0)
(0,0,0)
(0,0,0)
(0,0,0)
(0,0,0)
(0,0,0)
(0,0,0)
(0,0,0)
(0,0,0)
(0,0,0)
(0,0,0)
(0,0,0)
(0,0,0)
(0,0,0)
(0,0,0)
(0,0,0)
(0,0,0)
(0,0,0)
(0,0,0)
(0,0,0)
(0,0,0)
(0,0,0)
(0,0,0)
(0,0,0)
(0,0,0)
(0,0,0)
(0,0,0)
(0,0,0)
(0,0,0)
(0,0,0)
(0,0,0)
(0,0,0)
(0,0,0)
(0,0,0)
(0,0,0)
(0,0,0)
(0,0,0)
(0,0,0)
(0,0,0)
(0,0,0)
(0,0,0)
(0,0,0)
(0,0,0)
(0,0,0)
(0,0,0)
(0,0,0)
(0,0,0)
(0,0,0)
(0,0,0)
(0,0,0)
(0,0,0)
(0,0,0)
(0,0,0)
(0,0,0)
(0,0,0)
(0,0,0)
(0,0,0)
(0,0,0)
(0,0,0)
(0,0,0)
(0,0,0)
(0,0,0)
(0,0,0)
(0,0,0)
(0,0,0)
(0,0,0)
(0,0,0)
(0,0,0)
(0,0,0)
(0,0,0)
(0,0,0)
(0,0,0)
(0,0,0)
(0,0,0)
(0,0,0)
(0,0,0)
(0,0,0)
(0,0,0)
(0,0,0)
(0,0,0)
(0,0,0)
(0,0,0)
(0,0,0)
(0,0,0)
(0,0,0)
(0,0,0)
(0,0,0)
(0,0,0)
(0,0,0)
(0,0,0)
(0,0,0)
(0,0,0)
(0,0,0)
(0,0,0)
(0,0,0)
(0,0,0)
(0,0,0)
(0,0,0)
(0,0,0)
(0,0,0)
(0,0,0)
(0,0,0)
(0,0,0)
(0,0,0)
(0,0,0)
(0,0,0)
(0,0,0)
(0,0,0)
(0,0,0)
(0,0,0)
(0,0,0)
(0,0,0)
(0,0,0)
(0,0,0)
(0,0,0)
(0,0,0)
(0,0,0)
(0,0,0)
(0,0,0)
(0,0,0)
(0,0,0)
(0,0,0)
(0,0,0)
(0,0,0)
(0,0,0)
(0,0,0)
(0,0,0)
(0,0,0)
(0,0,0)
(0,0,0)
(0,0,0)
(0,0,0)
(0,0,0)
(0,0,0)
(0,0,0)
(0,0,0)
(0,0,0)
(0,0,0)
(0,0,0)
(0,0,0)
(0,0,0)
(0,0,0)
(0,0,0)
(0,0,0)
(0,0,0)
(0,0,0)
(0,0,0)
(0,0,0)
(0,0,0)
(0,0,0)
(0,0,0)
(0,0,0)
(0,0,0)
(0,0,0)
(0,0,0)
(0,0,0)
(0,0,0)
(0,0,0)
(0,0,0)
(0,0,0)
(0,0,0)
(0,0,0)
(0,0,0)
(0,0,0)
(0,0,0)
(0,0,0)
(0,0,0)
(0,0,0)
(0,0,0)
(0,0,0)
(0,0,0)
(0,0,0)
(0,0,0)
(0,0,0)
(0,0,0)
(0,0,0)
(0,0,0)
(0,0,0)
(0,0,0)
(0,0,0)
(0,0,0)
(0,0,0)
(0,0,0)
(0,0,0)
(0,0,0)
(0,0,0)
(0,0,0)
(0,0,0)
(0,0,0)
(0,0,0)
(0,0,0)
(0,0,0)
(0,0,0)
(0,0,0)
(0,0,0)
(0,0,0)
(0,0,0)
(0,0,0)
(0,0,0)
(0,0,0)
(0,0,0)
(0,0,0)
(0,0,0)
(0,0,0)
(0,0,0)
(0,0,0)
(0,0,0)
(0,0,0)
(0,0,0)
(0,0,0)
(0,0,0)
(0,0,0)
(0,0,0)
(0,0,0)
(0,0,0)
(0,0,0)
(0,0,0)
(0,0,0)
(0,0,0)
(0,0,0)
(0,0,0)
(0,0,0)
(0,0,0)
(0,0,0)
(0,0,0)
(0,0,0)
(0,0,0)
(0,0,0)
(0,0,0)
(0,0,0)
(0,0,0)
(0,0,0)
(0,0,0)
(0,0,0)
(0,0,0)
(0,0,0)
(0,0,0)
(0,0,0)
(0,0,0)
(0,0,0)
(0,0,0)
(0,0,0)
(0,0,0)
(0,0,0)
(0,0,0)
(0,0,0)
(0,0,0)
(0,0,0)
(0,0,0)
(0,0,0)
(0,0,0)
(0,0,0)
(0,0,0)
(0,0,0)
(0,0,0)
(0,0,0)
(0,0,0)
(0,0,0)
(0,0,0)
(0,0,0)
(0,0,0)
(0,0,0)
(0,0,0)
(0,0,0)
(0,0,0)
(0,0,0)
(0,0,0)
(0,0,0)
(0,0,0)
(0,0,0)
(0,0,0)
(0,0,0)
(0,0,0)
(0,0,0)
(0,0,0)
(0,0,0)
(0,0,0)
(0,0,0)
(0,0,0)
(0,0,0)
(0,0,0)
(0,0,0)
(0,0,0)
(0,0,0)
(0,0,0)
(0,0,0)
(0,0,0)
(0,0,0)
(0,0,0)
(0,0,0)
(0,0,0)
(0,0,0)
(0,0,0)
(0,0,0)
(0,0,0)
(0,0,0)
(0,0,0)
(0,0,0)
(0,0,0)
(0,0,0)
(0,0,0)
(0,0,0)
(0,0,0)
(0,0,0)
(0,0,0)
(0,0,0)
(0,0,0)
(0,0,0)
(0,0,0)
(0,0,0)
(0,0,0)
(0,0,0)
(0,0,0)
(0,0,0)
(0,0,0)
(0,0,0)
(0,0,0)
(0,0,0)
(0,0,0)
(0,0,0)
(0,0,0)
(0,0,0)
(0,0,0)
(0,0,0)
(0,0,0)
(0,0,0)
(0,0,0)
(0,0,0)
(0,0,0)
(0,0,0)
(0,0,0)
(0,0,0)
(0,0,0)
(0,0,0)
(9.66238569644878e-14,-9.46887982678028e-12,1.00471170205731e-11)
(-1.70057255356797e-13,-2.12397889092011e-11,9.76242117391539e-12)
(-8.81014186404754e-13,-3.76318208717724e-11,8.75992492121467e-12)
(6.04163127207039e-14,-6.04356150738397e-11,7.32684116603477e-12)
(8.86462554824235e-13,-9.48559978084329e-11,6.07643167484392e-12)
(7.14162824132909e-13,-1.48291752677035e-10,4.33544559547336e-12)
(1.25580234860596e-12,-2.35156869235012e-10,2.04200481010264e-12)
(1.67521879584673e-12,-3.80258086521403e-10,2.64136269765616e-13)
(2.95914898636849e-12,-6.25910595403727e-10,9.99029608950112e-14)
(2.98331627189742e-12,-9.71081162685156e-10,2.28144705099201e-13)
(0,0,0)
(0,0,0)
(0,0,0)
(0,0,0)
(0,0,0)
(0,0,0)
(-4.76130383279454e-13,-8.78091252900454e-12,2.27521743106654e-11)
(-7.65719774433119e-13,-1.9440924750007e-11,2.21673331142107e-11)
(-1.76552769964098e-12,-3.5387455842329e-11,2.06711223882402e-11)
(-4.50123993107133e-13,-5.81912313032861e-11,1.81362132933634e-11)
(8.2700341532399e-13,-9.21964409848312e-11,1.4865292210947e-11)
(9.37869146800593e-13,-1.46022097063297e-10,1.08806420093409e-11)
(2.11980039542138e-12,-2.33835653466792e-10,6.5787611605936e-12)
(4.43582120460957e-12,-3.80759011763639e-10,3.44106731821627e-12)
(7.23710745589148e-12,-6.26738929670425e-10,2.16773468123535e-12)
(7.60821786200627e-12,-9.71730282216279e-10,1.33567544097772e-12)
(0,0,0)
(0,0,0)
(0,0,0)
(0,0,0)
(0,0,0)
(0,0,0)
(-8.30611126484057e-13,-7.7731653342235e-12,4.04861959118897e-11)
(-2.31808680770997e-12,-1.70601328504425e-11,3.95292342579877e-11)
(-4.13577012779222e-12,-3.17051894001424e-11,3.73539954934244e-11)
(-3.05271909248266e-12,-5.35840345098849e-11,3.36527013060832e-11)
(-1.87496903813312e-12,-8.70931302375498e-11,2.84968701173862e-11)
(-8.15379013558968e-13,-1.41705501478023e-10,2.21286854610588e-11)
(1.61229376454757e-12,-2.31076978887802e-10,1.53986133675861e-11)
(6.50623902257696e-12,-3.80073891183456e-10,1.04835258739645e-11)
(1.1404545322351e-11,-6.27028315523701e-10,7.07375050283691e-12)
(1.35112560393424e-11,-9.72074791946844e-10,3.76425401528077e-12)
(0,0,0)
(0,0,0)
(0,0,0)
(0,0,0)
(0,0,0)
(0,0,0)
(-1.40984283952255e-12,-6.50362607685738e-12,6.46044531529723e-11)
(-4.06706116128904e-12,-1.4538081806412e-11,6.34307517248057e-11)
(-6.12103518091478e-12,-2.74070858277993e-11,6.10327507185837e-11)
(-5.63041127437573e-12,-4.75511881848051e-11,5.66616277187338e-11)
(-4.897175199278e-12,-7.97404983126836e-11,5.03402817485357e-11)
(-1.93966259725155e-12,-1.34366823162702e-10,4.24821960289542e-11)
(3.29323444913173e-12,-2.26023164175992e-10,3.37979059274712e-11)
(9.8065899028683e-12,-3.77805027689552e-10,2.57725534583998e-11)
(1.60541987295886e-11,-6.25846898128504e-10,1.78490316066837e-11)
(1.89558501277869e-11,-9.70870799288753e-10,9.18566210086544e-12)
(0,0,0)
(0,0,0)
(0,0,0)
(0,0,0)
(0,0,0)
(0,0,0)
(-2.83907970021206e-12,-5.11205906231074e-12,1.00104240828463e-10)
(-5.80094198846096e-12,-1.18843513995634e-11,9.86749980100973e-11)
(-7.95315865581858e-12,-2.24789641048702e-11,9.6046720335005e-11)
(-7.91267910490729e-12,-4.00883793293347e-11,9.15200415684847e-11)
(-7.51558840692002e-12,-6.98304206674161e-11,8.54198859182608e-11)
(-3.76375276083742e-12,-1.23195314516103e-10,7.81810667545049e-11)
(4.57123024261754e-12,-2.16922767749704e-10,6.92134884429224e-11)
(1.15495722173506e-11,-3.71887336791956e-10,5.59401042863803e-11)
(1.78546661570148e-11,-6.20096091721349e-10,3.95400510973456e-11)
(2.07790927890235e-11,-9.6477650345716e-10,2.04146523767813e-11)
(0,0,0)
(0,0,0)
(0,0,0)
(0,0,0)
(0,0,0)
(0,0,0)
(-2.62908664268718e-12,-3.92535433655773e-12,1.53145686470324e-10)
(-5.60170739355918e-12,-9.20163451804886e-12,1.51468787499965e-10)
(-8.22880277079403e-12,-1.73125976502473e-11,1.4908289490769e-10)
(-8.81809117296731e-12,-3.2167350022065e-11,1.45778437372432e-10)
(-7.92280708922972e-12,-5.91774335433719e-11,1.40716845973729e-10)
(-3.71960219159384e-12,-1.10618312796807e-10,1.33201292225288e-10)
(4.52476320012307e-12,-2.05201505796935e-10,1.21334100224791e-10)
(1.10342850325958e-11,-3.59231562209879e-10,1.02087321913683e-10)
(1.6702133586471e-11,-6.04469022060042e-10,7.41177810215968e-11)
(1.94875957213687e-11,-9.47359500099706e-10,3.91667605144754e-11)
(0,0,0)
(0,0,0)
(0,0,0)
(0,0,0)
(0,0,0)
(0,0,0)
(-2.10593430096131e-12,-2.47548035796283e-12,2.37965572528287e-10)
(-4.40136759641809e-12,-6.27753840437619e-12,2.36716500685772e-10)
(-6.52101127790662e-12,-1.27408749949274e-11,2.34966173372983e-10)
(-7.66734596505215e-12,-2.50530970658145e-11,2.32723429360622e-10)
(-6.5115096241698e-12,-4.86659284326147e-11,2.28522509947555e-10)
(-2.18796559855003e-12,-9.62853795724996e-11,2.20151460871454e-10)
(3.55564492300686e-12,-1.87641966167686e-10,2.03317650723393e-10)
(9.50339181415709e-12,-3.34936372303326e-10,1.75710800723322e-10)
(1.4482774633352e-11,-5.72991050442553e-10,1.31191319447945e-10)
(1.76576588967987e-11,-9.11131716502491e-10,7.12019496896302e-11)
(0,0,0)
(0,0,0)
(0,0,0)
(0,0,0)
(0,0,0)
(0,0,0)
(-2.45772205610602e-12,-1.05413176236092e-12,3.82276505741373e-10)
(-4.35595644841253e-12,-3.55967312205745e-12,3.81490785676693e-10)
(-6.22121945994399e-12,-8.87934717714023e-12,3.80505413705804e-10)
(-8.34757594556924e-12,-1.92925055679641e-11,3.78763036267624e-10)
(-7.78204086328775e-12,-3.98609687698793e-11,3.74322726257287e-10)
(-3.50026401833507e-12,-8.21063524065941e-11,3.64153807677841e-10)
(1.43804414024043e-12,-1.61853447669966e-10,3.42581636659065e-10)
(7.43452636723472e-12,-2.93166654012668e-10,3.01563817129577e-10)
(1.26092748402827e-11,-5.16160335343856e-10,2.335286682932e-10)
(1.60838851110606e-11,-8.42729703195117e-10,1.3216110511948e-10)
(0,0,0)
(0,0,0)
(0,0,0)
(0,0,0)
(0,0,0)
(0,0,0)
(-3.30853355829141e-12,-9.38889813223401e-14,6.25846097635854e-10)
(-5.98954005110136e-12,-1.52605042366069e-12,6.25725027659001e-10)
(-8.28736360122112e-12,-5.54220034238167e-12,6.25210901435017e-10)
(-1.07433834193751e-11,-1.35269611699122e-11,6.23084674653712e-10)
(-1.00342027627959e-11,-2.90809794356255e-11,6.173214738433e-10)
(-5.79226072998438e-12,-6.14868621902064e-11,6.04311291797337e-10)
(-1.22155224136598e-12,-1.21993344408437e-10,5.76266194970702e-10)
(4.34443884763103e-12,-2.27026466055657e-10,5.20852252541944e-10)
(1.00062704371357e-11,-4.17236155640328e-10,4.21640314956605e-10)
(1.38359955660244e-11,-7.12629402349445e-10,2.53528348431011e-10)
(0,0,0)
(0,0,0)
(0,0,0)
(0,0,0)
(0,0,0)
(0,0,0)
(-4.16754334402266e-12,1.45330689354926e-13,9.69640189078679e-10)
(-7.70275468540396e-12,-4.29184512030845e-13,9.70176518280725e-10)
(-9.78334911320783e-12,-2.75152412705293e-12,9.70115313289066e-10)
(-1.13891831504478e-11,-7.3020361367076e-12,9.67521389348955e-10)
(-1.04102838413815e-11,-1.57152182230401e-11,9.60792136883385e-10)
(-6.84854477311833e-12,-3.36284550508597e-11,9.46000813703392e-10)
(-2.21170624605718e-12,-6.72757946086986e-11,9.12696784899346e-10)
(3.33720856887213e-12,-1.29363429407464e-10,8.44917212601046e-10)
(8.73263865924548e-12,-2.50872895195201e-10,7.14077876308556e-10)
(1.23562059729406e-11,-4.60528746646352e-10,4.61793570482737e-10)
(0,0,0)
(0,0,0)
(0,0,0)
(0,0,0)
(0,0,0)
(0,0,0)
(0,0,0)
(0,0,0)
(0,0,0)
(0,0,0)
(0,0,0)
(0,0,0)
(0,0,0)
(0,0,0)
(0,0,0)
(0,0,0)
(0,0,0)
(0,0,0)
(0,0,0)
(0,0,0)
(0,0,0)
(0,0,0)
(0,0,0)
(0,0,0)
(0,0,0)
(0,0,0)
(0,0,0)
(0,0,0)
(0,0,0)
(0,0,0)
(0,0,0)
(0,0,0)
(0,0,0)
(0,0,0)
(0,0,0)
(0,0,0)
(0,0,0)
(0,0,0)
(0,0,0)
(0,0,0)
(0,0,0)
(0,0,0)
(0,0,0)
(0,0,0)
(0,0,0)
(0,0,0)
(0,0,0)
(0,0,0)
(0,0,0)
(0,0,0)
(0,0,0)
(0,0,0)
(0,0,0)
(0,0,0)
(0,0,0)
(0,0,0)
(0,0,0)
(0,0,0)
(0,0,0)
(0,0,0)
(0,0,0)
(0,0,0)
(0,0,0)
(0,0,0)
(0,0,0)
(0,0,0)
(0,0,0)
(0,0,0)
(0,0,0)
(0,0,0)
(0,0,0)
(0,0,0)
(0,0,0)
(0,0,0)
(0,0,0)
(0,0,0)
(0,0,0)
(0,0,0)
(0,0,0)
(0,0,0)
(0,0,0)
(0,0,0)
(0,0,0)
(0,0,0)
(0,0,0)
(0,0,0)
(0,0,0)
(0,0,0)
(0,0,0)
(0,0,0)
(0,0,0)
(0,0,0)
(0,0,0)
(0,0,0)
(0,0,0)
(0,0,0)
(0,0,0)
(0,0,0)
(0,0,0)
(0,0,0)
(0,0,0)
(0,0,0)
(-3.06647594149758e-13,-1.75466571230341e-11,2.08295561012427e-11)
(-9.6642516185386e-13,-3.81694892093793e-11,2.00020572912394e-11)
(-1.69229546066903e-12,-6.72302578313881e-11,1.79187064123155e-11)
(-9.33557966655318e-13,-1.07982677218992e-10,1.44123743772027e-11)
(-3.21081894076495e-14,-1.683964067591e-10,1.07432846757423e-11)
(7.3794799582775e-13,-2.61050491999418e-10,6.28947248336794e-12)
(1.71245512081919e-12,-4.09868712595656e-10,1.87960463768843e-12)
(2.34037734672246e-12,-6.64512124022156e-10,-6.16927565503095e-13)
(3.65924150875729e-12,-1.15748310773185e-09,-8.35392547424972e-13)
(3.86058050756092e-12,-2.29246119463023e-09,-1.77918196427161e-13)
(0,0,0)
(0,0,0)
(0,0,0)
(0,0,0)
(0,0,0)
(0,0,0)
(-8.99036381606205e-13,-1.62685384517761e-11,4.4953605216575e-11)
(-1.65030094802276e-12,-3.57806430927374e-11,4.33739287945283e-11)
(-2.91288504694435e-12,-6.39830663701834e-11,3.97273952629146e-11)
(-1.78639970409674e-12,-1.04328975810122e-10,3.34267460778777e-11)
(-2.91657130343434e-13,-1.6412662772942e-10,2.5448577092026e-11)
(9.23154410291103e-13,-2.57232186689395e-10,1.5927291869631e-11)
(2.49881965879503e-12,-4.08089157889392e-10,6.8690203378711e-12)
(5.02403326150071e-12,-6.65570796741529e-10,2.15102948185435e-12)
(8.35855254983635e-12,-1.15955072723822e-09,9.55487061163701e-13)
(9.28840303375821e-12,-2.29418038429155e-09,8.12013608877064e-13)
(0,0,0)
(0,0,0)
(0,0,0)
(0,0,0)
(0,0,0)
(0,0,0)
(-1.14318872994703e-12,-1.43918737107155e-11,7.68656448089601e-11)
(-2.66489908717643e-12,-3.18932738003246e-11,7.4759306187598e-11)
(-4.73257951278651e-12,-5.76668387727549e-11,6.95126128667405e-11)
(-3.92973422886563e-12,-9.55836130242886e-11,6.08501647619998e-11)
(-2.85941630672247e-12,-1.53736553617118e-10,4.92593466849284e-11)
(-1.4239852354583e-12,-2.48220310586232e-10,3.43413588034727e-11)
(1.47356654630086e-12,-4.04139534313739e-10,1.9165879375305e-11)
(7.6471508997966e-12,-6.664460761635e-10,1.1633151535656e-11)
(1.35326244145662e-11,-1.16199052696548e-09,8.13104303201299e-12)
(1.60715173963918e-11,-2.29633017420179e-09,4.56499354672543e-12)
(0,0,0)
(0,0,0)
(0,0,0)
(0,0,0)
(0,0,0)
(0,0,0)
(-1.62770842590343e-12,-1.19756471169981e-11,1.19170214070753e-10)
(-4.3227905619156e-12,-2.6592773757006e-11,1.16824011182613e-10)
(-6.67803390400041e-12,-4.8793814972641e-11,1.11456659958919e-10)
(-6.77187415964492e-12,-8.27767436363999e-11,1.02053333156877e-10)
(-6.94916712497269e-12,-1.3715409332191e-10,8.84852325323621e-11)
(-4.42688114234222e-12,-2.314768507831e-10,7.02958230778608e-11)
(2.21819049186391e-12,-3.95488055754706e-10,5.04891178918596e-11)
(1.18124208569172e-11,-6.66299294168473e-10,3.78084732269494e-11)
(1.89667618284516e-11,-1.16270849513566e-09,2.69299874632206e-11)
(2.20472163971349e-11,-2.296029205965e-09,1.42360633589728e-11)
(0,0,0)
(0,0,0)
(0,0,0)
(0,0,0)
(0,0,0)
(0,0,0)
(-2.59654160760005e-12,-9.1249888408605e-12,1.80426718373873e-10)
(-5.85538119488586e-12,-2.07089388228527e-11,1.77849058561188e-10)
(-8.5928463439256e-12,-3.84605762319136e-11,1.72576763270904e-10)
(-9.73355276194685e-12,-6.69785934661869e-11,1.63764428692223e-10)
(-1.09297563671847e-11,-1.15104427307537e-10,1.51911684970448e-10)
(-7.37317616859439e-12,-2.05226258111147e-10,1.37537408286898e-10)
(6.12335244644279e-12,-3.75572447983103e-10,1.24727300702577e-10)
(1.52938508243694e-11,-6.60381653376531e-10,9.71755610841596e-11)
(2.13529952163406e-11,-1.15603662840183e-09,6.7484716229666e-11)
(2.37767418080667e-11,-2.28711922628998e-09,3.48713129072208e-11)
(0,0,0)
(0,0,0)
(0,0,0)
(0,0,0)
(0,0,0)
(0,0,0)
(-2.40206165092349e-12,-6.38797529118225e-12,2.71550394110756e-10)
(-6.1399109149552e-12,-1.48858313524261e-11,2.6907119650279e-10)
(-9.49606789085693e-12,-2.8071594445132e-11,2.6458693389018e-10)
(-1.0870752730518e-11,-5.11965804774854e-11,2.58048941964851e-10)
(-1.09187584515416e-11,-9.3294142059392e-11,2.4947325121509e-10)
(-6.18534341539814e-12,-1.79932071754954e-10,2.37471709764891e-10)
(6.21200188196592e-12,-3.58641065818773e-10,2.21161449722211e-10)
(1.47086360181377e-11,-6.42583700958844e-10,1.83914420817512e-10)
(2.0175182476131e-11,-1.13195821769119e-09,1.31294793754287e-10)
(2.24265726388974e-11,-2.25857330574381e-09,6.86557822963842e-11)
(0,0,0)
(0,0,0)
(0,0,0)
(0,0,0)
(0,0,0)
(0,0,0)
(-2.27821105404785e-12,-3.79156204785611e-12,4.15293873858815e-10)
(-5.36890556595003e-12,-9.63923631145833e-12,4.13721773634083e-10)
(-8.1397950833316e-12,-1.94684120458147e-11,4.11061486165777e-10)
(-9.22701804983647e-12,-3.78362318862692e-11,4.07512430235518e-10)
(-6.94542021079885e-12,-7.31971455984028e-11,4.02787079920354e-10)
(4.66817383625469e-13,-1.51363757579045e-10,3.92739433584426e-10)
(5.3739764253207e-12,-3.28985237313472e-10,3.62539171877117e-10)
(1.22531547989227e-11,-6.00584027206923e-10,3.17013611726058e-10)
(1.76414292926567e-11,-1.0774558562791e-09,2.33434622989062e-10)
(2.04575952794373e-11,-2.19601180165539e-09,1.25395150106745e-10)
(0,0,0)
(0,0,0)
(0,0,0)
(0,0,0)
(0,0,0)
(0,0,0)
(-2.6322447724653e-12,-1.41697059081417e-12,6.64938970624269e-10)
(-5.4042071759191e-12,-5.29285265550399e-12,6.64330401833882e-10)
(-7.81598885652161e-12,-1.3226947033751e-11,6.63229423939445e-10)
(-9.67281033328415e-12,-2.91182936714377e-11,6.61149814752685e-10)
(-8.39311161811347e-12,-6.19526126523082e-11,6.56676519307114e-10)
(-2.54758321593811e-12,-1.34934330507014e-10,6.44544227610316e-10)
(2.59576040819656e-12,-2.8608331044518e-10,6.1115578894968e-10)
(9.3294872465014e-12,-5.22143750711872e-10,5.36596256828993e-10)
(1.50526583106002e-11,-9.74858280632543e-10,4.13446922585495e-10)
(1.81446893844404e-11,-2.07525638864917e-09,2.35043075438509e-10)
(0,0,0)
(0,0,0)
(0,0,0)
(0,0,0)
(0,0,0)
(0,0,0)
(-3.42668325211548e-12,-1.08848081483341e-13,1.15379453601935e-09)
(-6.57227973874597e-12,-2.43167698660864e-12,1.15396558489399e-09)
(-8.95181303524359e-12,-8.52023523469182e-12,1.15338839926174e-09)
(-1.12051076421654e-11,-2.12330258620458e-11,1.15062208785957e-09)
(-1.0389781929409e-11,-4.74271937867452e-11,1.14291275624097e-09)
(-5.60557104271207e-12,-1.0375043630394e-10,1.1235736167237e-09)
(-5.2515961234215e-13,-2.13389395036566e-10,1.07747357286958e-09)
(5.89333978477362e-12,-4.01746001318211e-10,9.79759484939343e-10)
(1.17549765175445e-11,-7.99792986571041e-10,8.05759254260254e-10)
(1.52636882941964e-11,-1.84309283818214e-09,5.03896204535063e-10)
(0,0,0)
(0,0,0)
(0,0,0)
(0,0,0)
(0,0,0)
(0,0,0)
(-4.55854185671389e-12,2.65153349209132e-13,2.2857668102111e-09)
(-8.07073420577602e-12,-7.16485363183408e-13,2.28671756675371e-09)
(-9.94094930015052e-12,-4.14387704083536e-12,2.28661025733664e-09)
(-1.19619668215845e-11,-1.15676810017021e-11,2.28326621789926e-09)
(-1.13341788844319e-11,-2.62378673444665e-11,2.2730169784698e-09)
(-7.17297101993629e-12,-5.71975305694277e-11,2.2485816403375e-09)
(-1.70792855646303e-12,-1.16722305523225e-10,2.19250012622771e-09)
(4.81311545390596e-12,-2.29509519301189e-10,2.07562911993669e-09)
(1.0144049289862e-11,-5.00141488121768e-10,1.84522003110211e-09)
(1.36210298093696e-11,-1.34121400486816e-09,1.34325525342752e-09)
(0,0,0)
(0,0,0)
(0,0,0)
(0,0,0)
(0,0,0)
(0,0,0)
(0,0,0)
(0,0,0)
(0,0,0)
(0,0,0)
(0,0,0)
(0,0,0)
(0,0,0)
(0,0,0)
(0,0,0)
(0,0,0)
(0,0,0)
(0,0,0)
(0,0,0)
(0,0,0)
(0,0,0)
(0,0,0)
(0,0,0)
(0,0,0)
(0,0,0)
(0,0,0)
(0,0,0)
(0,0,0)
(0,0,0)
(0,0,0)
(0,0,0)
(0,0,0)
(0,0,0)
(0,0,0)
(0,0,0)
(0,0,0)
(0,0,0)
(0,0,0)
(0,0,0)
(0,0,0)
(0,0,0)
(0,0,0)
(0,0,0)
(0,0,0)
(0,0,0)
(0,0,0)
(0,0,0)
(0,0,0)
(0,0,0)
(0,0,0)
(0,0,0)
(0,0,0)
(0,0,0)
(0,0,0)
(0,0,0)
(0,0,0)
(0,0,0)
(0,0,0)
(0,0,0)
(0,0,0)
(0,0,0)
(0,0,0)
(0,0,0)
(0,0,0)
(0,0,0)
(0,0,0)
(0,0,0)
(0,0,0)
(0,0,0)
(0,0,0)
(0,0,0)
(0,0,0)
(0,0,0)
(0,0,0)
(0,0,0)
(0,0,0)
(0,0,0)
(0,0,0)
(0,0,0)
(0,0,0)
(0,0,0)
(0,0,0)
(0,0,0)
(0,0,0)
(0,0,0)
(0,0,0)
(0,0,0)
(0,0,0)
(0,0,0)
(0,0,0)
(0,0,0)
(0,0,0)
(0,0,0)
(0,0,0)
(0,0,0)
(0,0,0)
(0,0,0)
(0,0,0)
(0,0,0)
(0,0,0)
(0,0,0)
(0,0,0)
(-7.57267455312546e-13,-2.46908241677881e-11,2.82709916205389e-11)
(-1.27192040006103e-12,-5.23740982688814e-11,2.65240300167044e-11)
(-1.43315488633454e-12,-8.97504545798763e-11,2.39188647403671e-11)
(-9.18169673616391e-13,-1.4103308032748e-10,1.92252942468094e-11)
(1.51924972804706e-13,-2.14962078878122e-10,1.31065613451708e-11)
(1.3295105317593e-12,-3.2363353418886e-10,5.28829021241795e-12)
(2.42943261735225e-12,-4.82594692480548e-10,-2.21991551681847e-12)
(3.61751504795607e-12,-7.15245195160369e-10,-5.19065384165393e-12)
(5.06938666400233e-12,-1.05023685266628e-09,-4.59628466918399e-12)
(5.40185197273425e-12,-1.46220942510838e-09,-2.14732751257351e-12)
(0,0,0)
(0,0,0)
(0,0,0)
(0,0,0)
(0,0,0)
(0,0,0)
(-1.19602470034224e-12,-2.24528931690764e-11,6.01160410579585e-11)
(-1.89113670947943e-12,-4.90904818801034e-11,5.73236750124277e-11)
(-2.9284634596747e-12,-8.47188516792684e-11,5.22045392875967e-11)
(-2.55359350381545e-12,-1.34690472284048e-10,4.28557120034027e-11)
(-1.16044601974103e-12,-2.07622634875153e-10,2.93275525444064e-11)
(9.69549838903784e-13,-3.17037966406432e-10,1.18601523892135e-11)
(3.26718693782386e-12,-4.80901407800263e-10,-4.82368658622225e-12)
(7.09485510583122e-12,-7.18059166603845e-10,-9.16267204294919e-12)
(1.09418257288634e-11,-1.05476698280809e-09,-6.82755737200553e-12)
(1.22502065531492e-11,-1.46607326122418e-09,-3.12825238171734e-12)
(0,0,0)
(0,0,0)
(0,0,0)
(0,0,0)
(0,0,0)
(0,0,0)
(-1.4530767028398e-12,-1.93560939190502e-11,1.02049855969034e-10)
(-2.71870580898186e-12,-4.33559247489357e-11,9.87348618946184e-11)
(-4.94315520794551e-12,-7.51475062901184e-11,9.0971123991125e-11)
(-5.14578553985054e-12,-1.20788312871837e-10,7.7292132112651e-11)
(-4.52388872060429e-12,-1.90250723575054e-10,5.68420922922492e-11)
(-2.99196561084559e-12,-3.01359804307554e-10,2.78323150925509e-11)
(3.54815827911968e-13,-4.78625922249269e-10,-4.29788404050188e-12)
(1.10024774080133e-11,-7.25283112581814e-10,-8.03543118185067e-12)
(1.78166420702637e-11,-1.06306912923661e-09,-2.97014741106735e-12)
(2.03355427059171e-11,-1.47283681926204e-09,-2.26430209313856e-13)
(0,0,0)
(0,0,0)
(0,0,0)
(0,0,0)
(0,0,0)
(0,0,0)
(-2.13216381447984e-12,-1.60377964572025e-11,1.5776238327135e-10)
(-4.83927427171296e-12,-3.55209918801975e-11,1.53987061267617e-10)
(-7.60794584301344e-12,-6.16311734351992e-11,1.45243604061999e-10)
(-9.00192370563127e-12,-9.99310179133441e-11,1.29537920280777e-10)
(-1.08094236843157e-11,-1.60609078361225e-10,1.05227945255685e-10)
(-1.08707686281814e-11,-2.68561844420153e-10,6.81429738786825e-11)
(-5.01677261494337e-12,-4.7134840960507e-10,1.88210511023429e-11)
(1.6773265828209e-11,-7.38732749227535e-10,1.68610529035714e-11)
(2.49888191992695e-11,-1.07378575318567e-09,1.80044320623609e-11)
(2.73733000812212e-11,-1.47886424970324e-09,1.14681101456034e-11)
(0,0,0)
(0,0,0)
(0,0,0)
(0,0,0)
(0,0,0)
(0,0,0)
(-2.7558953441079e-12,-1.22751115010889e-11,2.32886942211798e-10)
(-6.40619337498565e-12,-2.66565601796311e-11,2.29233119399541e-10)
(-1.01694935523512e-11,-4.58130205498122e-11,2.21026244390159e-10)
(-1.36628220292863e-11,-7.42689608256622e-11,2.07028174715548e-10)
(-1.83657649307907e-11,-1.19614016340795e-10,1.87133066634074e-10)
(-1.98572549410124e-11,-2.07417903320237e-10,1.64163958899791e-10)
(1.67437099004637e-11,-4.17911984978631e-10,1.76026659505141e-10)
(2.71867432606754e-11,-7.53150191118582e-10,1.15691687018032e-10)
(2.98879878293417e-11,-1.07937994132929e-09,7.69985022607205e-11)
(3.01021341685121e-11,-1.4754107138707e-09,3.97740183403723e-11)
(0,0,0)
(0,0,0)
(0,0,0)
(0,0,0)
(0,0,0)
(0,0,0)
(-2.51927728624508e-12,-8.47097030807692e-12,3.38087994657631e-10)
(-6.90224334325461e-12,-1.79447165739914e-11,3.34949697225657e-10)
(-1.15612583651443e-11,-3.02170051963937e-11,3.28608801403752e-10)
(-1.5655410571146e-11,-4.94249508265534e-11,3.19290567386502e-10)
(-1.90142134629878e-11,-8.15665020264718e-11,3.07402276810339e-10)
(-1.8443397548487e-11,-1.61305645485209e-10,2.93142451000403e-10)
(1.3803202281564e-11,-4.20437250618458e-10,3.00376781297973e-10)
(2.53285893288235e-11,-7.46264498070268e-10,2.36914870813297e-10)
(2.83118325222325e-11,-1.05799615908058e-09,1.62685083522837e-10)
(2.85208508467319e-11,-1.4448213419987e-09,8.29218486164623e-11)
(0,0,0)
(0,0,0)
(0,0,0)
(0,0,0)
(0,0,0)
(0,0,0)
(-3.08070228597701e-12,-4.9425814871145e-12,4.89093439249892e-10)
(-7.05500175330119e-12,-1.07064817683598e-11,4.87038342456343e-10)
(-1.08322041657517e-11,-1.80458523506342e-11,4.83969565845315e-10)
(-1.32196059490601e-11,-2.9496267179318e-11,4.81510079190701e-10)
(-8.14230682096132e-12,-4.62928117199053e-11,4.83087562240641e-10)
(1.42376520187366e-11,-9.60740583004196e-11,4.90643880589735e-10)
(7.99760970832149e-12,-3.90707840415903e-10,4.3303929887471e-10)
(1.7391867040551e-11,-6.99463167330222e-10,4.13729704295615e-10)
(2.30833265287325e-11,-9.92362342199643e-10,2.85775560191206e-10)
(2.5097332379954e-11,-1.36997888957825e-09,1.46088339323684e-10)
(0,0,0)
(0,0,0)
(0,0,0)
(0,0,0)
(0,0,0)
(0,0,0)
(-3.33179849113186e-12,-2.07832620540404e-12,7.13289175573028e-10)
(-7.16440495066465e-12,-5.84300689660654e-12,7.12713505989627e-10)
(-1.04430914691659e-11,-1.18670097451068e-11,7.12177306029867e-10)
(-1.30847826963694e-11,-2.35947855205718e-11,7.12254683671131e-10)
(-1.07862387873218e-11,-4.90495449295479e-11,7.14702701669774e-10)
(-3.43038758441656e-13,-1.26547254184708e-10,7.19649373340647e-10)
(4.46137712089894e-12,-3.55867990039316e-10,7.04416226792892e-10)
(1.20810720952379e-11,-5.79387463128461e-10,5.99889436590583e-10)
(1.83912113962776e-11,-8.60110610280055e-10,4.37093956530443e-10)
(2.10242143562557e-11,-1.22894886960102e-09,2.35598126410515e-10)
(0,0,0)
(0,0,0)
(0,0,0)
(0,0,0)
(0,0,0)
(0,0,0)
(-3.97173355782896e-12,-3.25662081234633e-13,1.04284579814082e-09)
(-7.71028573006331e-12,-2.73544481619827e-12,1.0431639742389e-09)
(-1.05618598267506e-11,-7.98322852486381e-12,1.04348127836398e-09)
(-1.31611208841123e-11,-1.97803376364874e-11,1.0425398904597e-09)
(-1.22399688537511e-11,-4.59820271071861e-11,1.03812124983492e-09)
(-6.05843292303846e-12,-1.11467370017139e-10,1.02487119509529e-09)
(5.21838804274744e-13,-2.50975489377493e-10,9.81697109378444e-10)
(7.65708844653109e-12,-4.20251871717014e-10,8.63454767350398e-10)
(1.39665277937306e-11,-6.62420701270333e-10,6.69278205153343e-10)
(1.72810595151213e-11,-9.9629049053635e-10,3.84855575028507e-10)
(0,0,0)
(0,0,0)
(0,0,0)
(0,0,0)
(0,0,0)
(0,0,0)
(-5.2441450504277e-12,2.99857091506353e-13,1.45042114843675e-09)
(-8.67991015237737e-12,-8.72168123382595e-13,1.45130616783078e-09)
(-1.07407869031515e-11,-3.84836654537532e-12,1.45168892532486e-09)
(-1.32804083944625e-11,-1.12864888050902e-11,1.44990306982346e-09)
(-1.31367080960938e-11,-2.73751287322519e-11,1.44086241843129e-09)
(-8.2889874799962e-12,-6.35026390741302e-11,1.41648191640819e-09)