/*--------------------------------*- C++ -*----------------------------------*\
| =========                 |                                                 |
| \\      /  F ield         | foam-extend: Open Source CFD                    |
|  \\    /   O peration     | Version:     4.0                                |
|   \\  /    A nd           | Web:         http://www.foam-extend.org         |
|    \\/     M anipulation  |                                                 |
\*---------------------------------------------------------------------------*/
FoamFile
{
    version 2.0;
    format ascii;
    class volVectorField;
    location "2383";
    object      H;
}
// * * * * * * * * * * * * * * * * * * * * * * * * * * * * * * * * * * * * * //

dimensions      [0 1 -1 0 0 0 0];

internalField   nonuniform List<vector>
4096
(
(0,0,0)
(0,0,0)
(0,0,0)
(0,0,0)
(0,0,0)
(0,0,0)
(0,0,0)
(0,0,0)
(0,0,0)
(0,0,0)
(0,0,0)
(0,0,0)
(0,0,0)
(0,0,0)
(0,0,0)
(0,0,0)
(0,0,0)
(0,0,0)
(0,0,0)
(0,0,0)
(0,0,0)
(0,0,0)
(0,0,0)
(0,0,0)
(0,0,0)
(0,0,0)
(0,0,0)
(0,0,0)
(0,0,0)
(0,0,0)
(0,0,0)
(0,0,0)
(0,0,0)
(0,0,0)
(0,0,0)
(0,0,0)
(0,0,0)
(0,0,0)
(0,0,0)
(0,0,0)
(0,0,0)
(0,0,0)
(0,0,0)
(0,0,0)
(0,0,0)
(0,0,0)
(0,0,0)
(0,0,0)
(0,0,0)
(0,0,0)
(0,0,0)
(0,0,0)
(0,0,0)
(0,0,0)
(0,0,0)
(0,0,0)
(0,0,0)
(0,0,0)
(0,0,0)
(0,0,0)
(0,0,0)
(0,0,0)
(0,0,0)
(0,0,0)
(0,0,0)
(0,0,0)
(0,0,0)
(0,0,0)
(0,0,0)
(0,0,0)
(0,0,0)
(0,0,0)
(0,0,0)
(0,0,0)
(0,0,0)
(0,0,0)
(0,0,0)
(0,0,0)
(0,0,0)
(0,0,0)
(0,0,0)
(0,0,0)
(0,0,0)
(0,0,0)
(0,0,0)
(0,0,0)
(0,0,0)
(0,0,0)
(0,0,0)
(0,0,0)
(0,0,0)
(0,0,0)
(0,0,0)
(0,0,0)
(0,0,0)
(0,0,0)
(0,0,0)
(0,0,0)
(0,0,0)
(0,0,0)
(0,0,0)
(0,0,0)
(0,0,0)
(0,0,0)
(0,0,0)
(0,0,0)
(0,0,0)
(0,0,0)
(0,0,0)
(0,0,0)
(0,0,0)
(0,0,0)
(0,0,0)
(0,0,0)
(0,0,0)
(0,0,0)
(0,0,0)
(0,0,0)
(0,0,0)
(0,0,0)
(0,0,0)
(0,0,0)
(0,0,0)
(0,0,0)
(0,0,0)
(0,0,0)
(0,0,0)
(0,0,0)
(0,0,0)
(0,0,0)
(0,0,0)
(0,0,0)
(0,0,0)
(0,0,0)
(0,0,0)
(0,0,0)
(0,0,0)
(0,0,0)
(0,0,0)
(0,0,0)
(0,0,0)
(0,0,0)
(0,0,0)
(0,0,0)
(0,0,0)
(0,0,0)
(0,0,0)
(0,0,0)
(0,0,0)
(0,0,0)
(0,0,0)
(0,0,0)
(0,0,0)
(0,0,0)
(0,0,0)
(0,0,0)
(0,0,0)
(0,0,0)
(0,0,0)
(0,0,0)
(0,0,0)
(0,0,0)
(0,0,0)
(0,0,0)
(0,0,0)
(0,0,0)
(0,0,0)
(0,0,0)
(0,0,0)
(0,0,0)
(0,0,0)
(0,0,0)
(0,0,0)
(0,0,0)
(0,0,0)
(0,0,0)
(0,0,0)
(0,0,0)
(0,0,0)
(0,0,0)
(0,0,0)
(0,0,0)
(0,0,0)
(0,0,0)
(0,0,0)
(0,0,0)
(0,0,0)
(0,0,0)
(0,0,0)
(0,0,0)
(0,0,0)
(0,0,0)
(0,0,0)
(0,0,0)
(0,0,0)
(0,0,0)
(0,0,0)
(0,0,0)
(0,0,0)
(0,0,0)
(0,0,0)
(0,0,0)
(0,0,0)
(0,0,0)
(0,0,0)
(0,0,0)
(0,0,0)
(0,0,0)
(0,0,0)
(0,0,0)
(0,0,0)
(0,0,0)
(0,0,0)
(0,0,0)
(0,0,0)
(0,0,0)
(0,0,0)
(0,0,0)
(0,0,0)
(0,0,0)
(0,0,0)
(0,0,0)
(0,0,0)
(0,0,0)
(0,0,0)
(0,0,0)
(0,0,0)
(0,0,0)
(0,0,0)
(0,0,0)
(0,0,0)
(0,0,0)
(0,0,0)
(0,0,0)
(0,0,0)
(0,0,0)
(0,0,0)
(0,0,0)
(0,0,0)
(0,0,0)
(0,0,0)
(0,0,0)
(0,0,0)
(0,0,0)
(0,0,0)
(0,0,0)
(0,0,0)
(0,0,0)
(0,0,0)
(0,0,0)
(0,0,0)
(0,0,0)
(0,0,0)
(0,0,0)
(0,0,0)
(0,0,0)
(0,0,0)
(0,0,0)
(0,0,0)
(0,0,0)
(0,0,0)
(0,0,0)
(0,0,0)
(0,0,0)
(0,0,0)
(0,0,0)
(0,0,0)
(0,0,0)
(0,0,0)
(0,0,0)
(0,0,0)
(0,0,0)
(0,0,0)
(0,0,0)
(0,0,0)
(0,0,0)
(0,0,0)
(0,0,0)
(0,0,0)
(0,0,0)
(0,0,0)
(0,0,0)
(0,0,0)
(0,0,0)
(0,0,0)
(0,0,0)
(0,0,0)
(0,0,0)
(0,0,0)
(0,0,0)
(0,0,0)
(0,0,0)
(0,0,0)
(0,0,0)
(0,0,0)
(0,0,0)
(0,0,0)
(0,0,0)
(0,0,0)
(0,0,0)
(0,0,0)
(0,0,0)
(0,0,0)
(0,0,0)
(0,0,0)
(0,0,0)
(0,0,0)
(0,0,0)
(0,0,0)
(0,0,0)
(0,0,0)
(0,0,0)
(0,0,0)
(0,0,0)
(0,0,0)
(0,0,0)
(0,0,0)
(0,0,0)
(0,0,0)
(0,0,0)
(0,0,0)
(0,0,0)
(0,0,0)
(0,0,0)
(0,0,0)
(0,0,0)
(0,0,0)
(0,0,0)
(0,0,0)
(0,0,0)
(0,0,0)
(0,0,0)
(0,0,0)
(0,0,0)
(0,0,0)
(0,0,0)
(0,0,0)
(0,0,0)
(0,0,0)
(0,0,0)
(0,0,0)
(0,0,0)
(0,0,0)
(0,0,0)
(0,0,0)
(0,0,0)
(0,0,0)
(0,0,0)
(0,0,0)
(0,0,0)
(0,0,0)
(0,0,0)
(0,0,0)
(0,0,0)
(0,0,0)
(0,0,0)
(0,0,0)
(0,0,0)
(0,0,0)
(0,0,0)
(0,0,0)
(0,0,0)
(0,0,0)
(0,0,0)
(0,0,0)
(0,0,0)
(0,0,0)
(0,0,0)
(0,0,0)
(0,0,0)
(0,0,0)
(0,0,0)
(0,0,0)
(0,0,0)
(0,0,0)
(0,0,0)
(0,0,0)
(0,0,0)
(0,0,0)
(0,0,0)
(0,0,0)
(0,0,0)
(0,0,0)
(0,0,0)
(0,0,0)
(0,0,0)
(0,0,0)
(0,0,0)
(0,0,0)
(0,0,0)
(0,0,0)
(0,0,0)
(0,0,0)
(0,0,0)
(0,0,0)
(0,0,0)
(0,0,0)
(0,0,0)
(0,0,0)
(0,0,0)
(0,0,0)
(0,0,0)
(0,0,0)
(0,0,0)
(0,0,0)
(0,0,0)
(0,0,0)
(0,0,0)
(0,0,0)
(0,0,0)
(0,0,0)
(0,0,0)
(0,0,0)
(0,0,0)
(0,0,0)
(0,0,0)
(0,0,0)
(0,0,0)
(0,0,0)
(0,0,0)
(0,0,0)
(0,0,0)
(0,0,0)
(0,0,0)
(0,0,0)
(0,0,0)
(0,0,0)
(0,0,0)
(0,0,0)
(0,0,0)
(0,0,0)
(0,0,0)
(0,0,0)
(0,0,0)
(0,0,0)
(0,0,0)
(0,0,0)
(0,0,0)
(0,0,0)
(0,0,0)
(0,0,0)
(0,0,0)
(0,0,0)
(0,0,0)
(0,0,0)
(0,0,0)
(0,0,0)
(0,0,0)
(0,0,0)
(0,0,0)
(0,0,0)
(0,0,0)
(0,0,0)
(0,0,0)
(0,0,0)
(0,0,0)
(0,0,0)
(0,0,0)
(0,0,0)
(0,0,0)
(0,0,0)
(0,0,0)
(0,0,0)
(0,0,0)
(0,0,0)
(0,0,0)
(0,0,0)
(0,0,0)
(0,0,0)
(0,0,0)
(0,0,0)
(0,0,0)
(0,0,0)
(0,0,0)
(0,0,0)
(0,0,0)
(0,0,0)
(0,0,0)
(0,0,0)
(0,0,0)
(0,0,0)
(0,0,0)
(0,0,0)
(0,0,0)
(0,0,0)
(0,0,0)
(0,0,0)
(0,0,0)
(0,0,0)
(0,0,0)
(0,0,0)
(0,0,0)
(0,0,0)
(0,0,0)
(0,0,0)
(0,0,0)
(0,0,0)
(0,0,0)
(0,0,0)
(0,0,0)
(0,0,0)
(0,0,0)
(0,0,0)
(0,0,0)
(0,0,0)
(0,0,0)
(0,0,0)
(0,0,0)
(0,0,0)
(0,0,0)
(0,0,0)
(0,0,0)
(0,0,0)
(0,0,0)
(0,0,0)
(0,0,0)
(0,0,0)
(0,0,0)
(0,0,0)
(0,0,0)
(0,0,0)
(0,0,0)
(0,0,0)
(0,0,0)
(0,0,0)
(0,0,0)
(0,0,0)
(0,0,0)
(0,0,0)
(0,0,0)
(0,0,0)
(0,0,0)
(0,0,0)
(0,0,0)
(0,0,0)
(0,0,0)
(0,0,0)
(0,0,0)
(0,0,0)
(0,0,0)
(0,0,0)
(0,0,0)
(0,0,0)
(0,0,0)
(0,0,0)
(0,0,0)
(0,0,0)
(0,0,0)
(0,0,0)
(0,0,0)
(0,0,0)
(0,0,0)
(0,0,0)
(0,0,0)
(0,0,0)
(0,0,0)
(0,0,0)
(0,0,0)
(0,0,0)
(0,0,0)
(0,0,0)
(0,0,0)
(0,0,0)
(0,0,0)
(0,0,0)
(0,0,0)
(0,0,0)
(0,0,0)
(0,0,0)
(0,0,0)
(0,0,0)
(0,0,0)
(0,0,0)
(0,0,0)
(0,0,0)
(0,0,0)
(0,0,0)
(0,0,0)
(0,0,0)
(0,0,0)
(0,0,0)
(0,0,0)
(0,0,0)
(0,0,0)
(0,0,0)
(0,0,0)
(0,0,0)
(0,0,0)
(0,0,0)
(0,0,0)
(0,0,0)
(0,0,0)
(0,0,0)
(0,0,0)
(0,0,0)
(0,0,0)
(0,0,0)
(0,0,0)
(0,0,0)
(0,0,0)
(0,0,0)
(0,0,0)
(0,0,0)
(0,0,0)
(0,0,0)
(0,0,0)
(0,0,0)
(0,0,0)
(0,0,0)
(0,0,0)
(0,0,0)
(0,0,0)
(0,0,0)
(0,0,0)
(0,0,0)
(0,0,0)
(0,0,0)
(0,0,0)
(0,0,0)
(0,0,0)
(0,0,0)
(0,0,0)
(0,0,0)
(0,0,0)
(0,0,0)
(0,0,0)
(0,0,0)
(0,0,0)
(0,0,0)
(0,0,0)
(0,0,0)
(0,0,0)
(0,0,0)
(0,0,0)
(0,0,0)
(0,0,0)
(0,0,0)
(0,0,0)
(0,0,0)
(0,0,0)
(0,0,0)
(0,0,0)
(0,0,0)
(0,0,0)
(0,0,0)
(0,0,0)
(0,0,0)
(0,0,0)
(0,0,0)
(0,0,0)
(0,0,0)
(0,0,0)
(0,0,0)
(0,0,0)
(0,0,0)
(0,0,0)
(0,0,0)
(0,0,0)
(0,0,0)
(0,0,0)
(0,0,0)
(0,0,0)
(0,0,0)
(0,0,0)
(0,0,0)
(0,0,0)
(0,0,0)
(0,0,0)
(0,0,0)
(0,0,0)
(0,0,0)
(0,0,0)
(0,0,0)
(0,0,0)
(0,0,0)
(0,0,0)
(0,0,0)
(0,0,0)
(0,0,0)
(0,0,0)
(0,0,0)
(0,0,0)
(0,0,0)
(0,0,0)
(0,0,0)
(0,0,0)
(0,0,0)
(0,0,0)
(0,0,0)
(0,0,0)
(0,0,0)
(0,0,0)
(0,0,0)
(0,0,0)
(0,0,0)
(0,0,0)
(0,0,0)
(0,0,0)
(0,0,0)
(0,0,0)
(0,0,0)
(0,0,0)
(0,0,0)
(0,0,0)
(0,0,0)
(0,0,0)
(0,0,0)
(0,0,0)
(0,0,0)
(0,0,0)
(0,0,0)
(0,0,0)
(0,0,0)
(0,0,0)
(0,0,0)
(0,0,0)
(0,0,0)
(0,0,0)
(0,0,0)
(0,0,0)
(0,0,0)
(0,0,0)
(0,0,0)
(0,0,0)
(0,0,0)
(0,0,0)
(0,0,0)
(0,0,0)
(0,0,0)
(0,0,0)
(0,0,0)
(0,0,0)
(0,0,0)
(0,0,0)
(0,0,0)
(0,0,0)
(0,0,0)
(0,0,0)
(0,0,0)
(0,0,0)
(0,0,0)
(0,0,0)
(0,0,0)
(0,0,0)
(0,0,0)
(0,0,0)
(0,0,0)
(0,0,0)
(0,0,0)
(0,0,0)
(0,0,0)
(0,0,0)
(0,0,0)
(0,0,0)
(0,0,0)
(0,0,0)
(0,0,0)
(0,0,0)
(0,0,0)
(0,0,0)
(0,0,0)
(0,0,0)
(0,0,0)
(0,0,0)
(0,0,0)
(0,0,0)
(0,0,0)
(0,0,0)
(0,0,0)
(0,0,0)
(0,0,0)
(0,0,0)
(0,0,0)
(0,0,0)
(0,0,0)
(0,0,0)
(0,0,0)
(0,0,0)
(0,0,0)
(0,0,0)
(0,0,0)
(0,0,0)
(0,0,0)
(0,0,0)
(0,0,0)
(0,0,0)
(0,0,0)
(0,0,0)
(0,0,0)
(0,0,0)
(0,0,0)
(0,0,0)
(0,0,0)
(0,0,0)
(0,0,0)
(0,0,0)
(0,0,0)
(0,0,0)
(0,0,0)
(0,0,0)
(0,0,0)
(0,0,0)
(0,0,0)
(0,0,0)
(0,0,0)
(0,0,0)
(0,0,0)
(0,0,0)
(0,0,0)
(0,0,0)
(0,0,0)
(0,0,0)
(0,0,0)
(0,0,0)
(0,0,0)
(0,0,0)
(0,0,0)
(0,0,0)
(0,0,0)
(-2.92086138384749e-13,1.32877316757876e-11,-1.29106496574236e-11)
(-9.80271372695305e-14,2.7681868475371e-11,-1.21722772190096e-11)
(-2.36732590590901e-13,4.73265381327616e-11,-1.05582156840187e-11)
(-1.37013983913249e-12,7.50630177328159e-11,-8.66400329231655e-12)
(-3.25364294111065e-12,1.16679840277366e-10,-6.82379601287849e-12)
(-5.39067952614519e-12,1.83645128524594e-10,-4.72035839805316e-12)
(-7.77533570412367e-12,2.91314051017235e-10,-2.55843212308139e-12)
(-9.58647534056494e-12,4.69764534702876e-10,-1.25143823053198e-12)
(-1.10425607458234e-11,7.65107179573605e-10,-9.85164074706231e-13)
(-1.16342579804654e-11,1.17678705580829e-09,-7.47269493348154e-13)
(0,0,0)
(0,0,0)
(0,0,0)
(0,0,0)
(0,0,0)
(0,0,0)
(3.40802437515442e-14,1.23497154486038e-11,-2.84492790387776e-11)
(-3.15257734456701e-13,2.61956967566189e-11,-2.68581251043536e-11)
(-7.96382363480312e-13,4.5767111633986e-11,-2.43837702561009e-11)
(-2.54272617756506e-12,7.34200201714019e-11,-2.1501939887551e-11)
(-5.01260187505446e-12,1.14680596052457e-10,-1.7661778673171e-11)
(-8.65755902558064e-12,1.81638722497828e-10,-1.26130145452059e-11)
(-1.38191125984383e-11,2.90093976049306e-10,-7.34800973138524e-12)
(-1.709473309114e-11,4.69648189108512e-10,-4.18821096008716e-12)
(-2.00303910368065e-11,7.64961530623585e-10,-2.93126864797368e-12)
(-2.13926809839229e-11,1.17605588657724e-09,-1.98531129854261e-12)
(0,0,0)
(0,0,0)
(0,0,0)
(0,0,0)
(0,0,0)
(0,0,0)
(-1.15086232231704e-12,1.12004190251988e-11,-4.76342093798545e-11)
(-2.13609661717593e-12,2.41131303641514e-11,-4.59111927788772e-11)
(-2.27976829817138e-12,4.26359986705907e-11,-4.31694816175718e-11)
(-4.52540821470784e-12,6.89303431855149e-11,-3.88847010881121e-11)
(-6.8190652788762e-12,1.09100419511033e-10,-3.302247852452e-11)
(-1.13352910326404e-11,1.76240676342588e-10,-2.5773340765304e-11)
(-1.81304954330776e-11,2.86941212041711e-10,-1.82847770601973e-11)
(-2.1905592607355e-11,4.68996501957792e-10,-1.30006525988717e-11)
(-2.65692893299971e-11,7.6480318434651e-10,-8.53599238189104e-12)
(-2.94277122346621e-11,1.17526151156291e-09,-4.41723344914311e-12)
(0,0,0)
(0,0,0)
(0,0,0)
(0,0,0)
(0,0,0)
(0,0,0)
(-1.444779271143e-12,9.61221636239073e-12,-7.49505986810357e-11)
(-2.20168461237046e-12,2.1242572865892e-11,-7.33713890089005e-11)
(-1.88685779213188e-12,3.75905486349702e-11,-7.065535923578e-11)
(-4.91080649319215e-12,6.17148964503839e-11,-6.57995446537542e-11)
(-7.98931053777659e-12,1.00456182332817e-10,-5.89581035538019e-11)
(-1.25542726069656e-11,1.67269403026289e-10,-5.04685315917466e-11)
(-2.04092378650402e-11,2.80469779770345e-10,-4.10784583759084e-11)
(-2.56785492742406e-11,4.65149535598601e-10,-3.20328215991571e-11)
(-3.16288605484349e-11,7.61774772287717e-10,-2.21804567953875e-11)
(-3.53677144487479e-11,1.17238884192998e-09,-1.13891286800546e-11)
(0,0,0)
(0,0,0)
(0,0,0)
(0,0,0)
(0,0,0)
(0,0,0)
(5.390576921738e-14,7.78245958878276e-12,-1.16525266826566e-10)
(-5.80043898111413e-13,1.78476951619636e-11,-1.15354755220988e-10)
(-4.79350455850574e-13,3.19277859602797e-11,-1.13004209020556e-10)
(-3.55925546994605e-12,5.3095854350865e-11,-1.08434243452003e-10)
(-7.73068976050366e-12,8.9217768206783e-11,-1.02184653368755e-10)
(-1.34490870934196e-11,1.54311802482813e-10,-9.4258826371841e-11)
(-2.34580244321078e-11,2.6884380171212e-10,-8.42246589432374e-11)
(-2.98570648129651e-11,4.56346796757217e-10,-6.80984073732042e-11)
(-3.55254882309909e-11,7.52848334105476e-10,-4.81352230229898e-11)
(-3.85887775839107e-11,1.16266259427012e-09,-2.50973577123953e-11)
(0,0,0)
(0,0,0)
(0,0,0)
(0,0,0)
(0,0,0)
(0,0,0)
(1.14325913917284e-12,6.35939504318116e-12,-1.80998684319818e-10)
(2.51836615313639e-13,1.438580042443e-11,-1.80122868472556e-10)
(-5.70359681865262e-14,2.58232928537925e-11,-1.78301994339512e-10)
(-3.08229252928718e-12,4.38609633898917e-11,-1.74824237079071e-10)
(-8.44435581065127e-12,7.68799155119731e-11,-1.69919979035155e-10)
(-1.55882897104529e-11,1.39796331523207e-10,-1.62073270198904e-10)
(-2.5280284353631e-11,2.54552572798646e-10,-1.48529150791371e-10)
(-3.1590077835613e-11,4.40245917136373e-10,-1.24233827307705e-10)
(-3.68144353906518e-11,7.33215673183824e-10,-8.97196729522574e-11)
(-3.92113597805117e-11,1.1402650643259e-09,-4.74862360449895e-11)
(0,0,0)
(0,0,0)
(0,0,0)
(0,0,0)
(0,0,0)
(0,0,0)
(2.48629559505779e-12,4.98365877746279e-12,-2.84396955118138e-10)
(1.93850405192775e-12,1.10245421140807e-11,-2.8348274829972e-10)
(9.57160984607667e-13,2.00712621755142e-11,-2.8209854123226e-10)
(-3.01115311652486e-12,3.51592525492066e-11,-2.79573390233576e-10)
(-9.42235164295586e-12,6.41339144965769e-11,-2.75471692175338e-10)
(-1.75262571025355e-11,1.22129692687396e-10,-2.66910888639864e-10)
(-2.52249947512722e-11,2.32039841995971e-10,-2.47237631742434e-10)
(-3.1153273581397e-11,4.09775057101433e-10,-2.13107439491528e-10)
(-3.64521600096692e-11,6.9416658128056e-10,-1.586185664636e-10)
(-3.87569063936287e-11,1.09539072939015e-09,-8.61548187940212e-11)
(0,0,0)
(0,0,0)
(0,0,0)
(0,0,0)
(0,0,0)
(0,0,0)
(2.09549993803376e-12,3.89122264568311e-12,-4.57172435751645e-10)
(2.40417759933554e-12,8.33930052843076e-12,-4.56426492834242e-10)
(8.87645945637817e-13,1.50395088853664e-11,-4.55264584146242e-10)
(-3.97208697725983e-12,2.74607666482931e-11,-4.5291695865105e-10)
(-1.12088781030085e-11,5.2768260408546e-11,-4.48346062624257e-10)
(-1.92443826728956e-11,1.03588968388293e-10,-4.3737823103242e-10)
(-2.61917612656035e-11,1.99054516170386e-10,-4.11590069695772e-10)
(-3.25770895291595e-11,3.57523958850643e-10,-3.61831620953106e-10)
(-3.8198209023407e-11,6.23498540253461e-10,-2.79625172888733e-10)
(-4.02562775456353e-11,1.01100814570677e-09,-1.58627919257328e-10)
(0,0,0)
(0,0,0)
(0,0,0)
(0,0,0)
(0,0,0)
(0,0,0)
(1.3535355824521e-12,2.79021887675428e-12,-7.49085121664872e-10)
(1.3272656098937e-12,6.00576019486417e-12,-7.48288383345878e-10)
(-3.42165421466977e-13,1.04172178628405e-11,-7.46601981011587e-10)
(-5.23079887980299e-12,1.95456809832105e-11,-7.43283810568301e-10)
(-1.32438655929071e-11,3.90262455151882e-11,-7.36692481821669e-10)
(-2.1329503556314e-11,7.75436422223882e-11,-7.21506010036392e-10)
(-2.86671949653626e-11,1.49626003478783e-10,-6.8761863300288e-10)
(-3.52066515424301e-11,2.76022331554077e-10,-6.21150070911402e-10)
(-3.95104089799273e-11,5.02952906178405e-10,-5.02490439889182e-10)
(-4.0890440381916e-11,8.53269838900808e-10,-3.022235035796e-10)
(0,0,0)
(0,0,0)
(0,0,0)
(0,0,0)
(0,0,0)
(0,0,0)
(6.0364918219363e-13,1.55064081384665e-12,-1.15889950854194e-09)
(5.75974078372987e-13,3.26353820876992e-12,-1.1578691281599e-09)
(-1.44069272697258e-12,5.3728433334539e-12,-1.15574671350847e-09)
(-6.73475458818803e-12,1.03962233199358e-11,-1.15198175779144e-09)
(-1.42766552786949e-11,2.12564005599114e-11,-1.1439069790677e-09)
(-2.22755235701016e-11,4.209887727315e-11,-1.12557002308881e-09)
(-2.98691780454236e-11,8.19618841479542e-11,-1.0861759807042e-09)
(-3.63382456744909e-11,1.56556388725151e-10,-1.00645046606136e-09)
(-4.0426572583788e-11,3.02087652283205e-10,-8.51288474781011e-10)
(-4.08396030324698e-11,5.5104958320078e-10,-5.5034753972944e-10)
(0,0,0)
(0,0,0)
(0,0,0)
(0,0,0)
(0,0,0)
(0,0,0)
(0,0,0)
(0,0,0)
(0,0,0)
(0,0,0)
(0,0,0)
(0,0,0)
(0,0,0)
(0,0,0)
(0,0,0)
(0,0,0)
(0,0,0)
(0,0,0)
(0,0,0)
(0,0,0)
(0,0,0)
(0,0,0)
(0,0,0)
(0,0,0)
(0,0,0)
(0,0,0)
(0,0,0)
(0,0,0)
(0,0,0)
(0,0,0)
(0,0,0)
(0,0,0)
(0,0,0)
(0,0,0)
(0,0,0)
(0,0,0)
(0,0,0)
(0,0,0)
(0,0,0)
(0,0,0)
(0,0,0)
(0,0,0)
(0,0,0)
(0,0,0)
(0,0,0)
(0,0,0)
(0,0,0)
(0,0,0)
(0,0,0)
(0,0,0)
(0,0,0)
(0,0,0)
(0,0,0)
(0,0,0)
(0,0,0)
(0,0,0)
(0,0,0)
(0,0,0)
(0,0,0)
(0,0,0)
(0,0,0)
(0,0,0)
(0,0,0)
(0,0,0)
(0,0,0)
(0,0,0)
(0,0,0)
(0,0,0)
(0,0,0)
(0,0,0)
(0,0,0)
(0,0,0)
(0,0,0)
(0,0,0)
(0,0,0)
(0,0,0)
(0,0,0)
(0,0,0)
(0,0,0)
(0,0,0)
(0,0,0)
(0,0,0)
(0,0,0)
(0,0,0)
(0,0,0)
(0,0,0)
(0,0,0)
(0,0,0)
(0,0,0)
(0,0,0)
(0,0,0)
(0,0,0)
(0,0,0)
(0,0,0)
(0,0,0)
(0,0,0)
(0,0,0)
(0,0,0)
(0,0,0)
(0,0,0)
(0,0,0)
(0,0,0)
(-9.2442349618039e-14,2.39029269110586e-11,-2.49088903804891e-11)
(-2.25916953512647e-13,5.0424569234864e-11,-2.33637651427294e-11)
(-5.71518483541202e-13,8.70145364917914e-11,-2.0631205311942e-11)
(-1.56734955715919e-12,1.38185187004546e-10,-1.67986773400568e-11)
(-3.35783633108101e-12,2.12892156559357e-10,-1.1991653319406e-11)
(-5.54619977433218e-12,3.28945078622961e-10,-6.924527596183e-12)
(-7.8622546286664e-12,5.12351808836496e-10,-2.30285831295313e-12)
(-9.73640390214361e-12,8.21892419021918e-10,-2.55065819257857e-13)
(-1.11348063775063e-11,1.41236591626831e-09,-2.98718596743531e-13)
(-1.16503582432388e-11,2.76434585951877e-09,-4.91830093477566e-13)
(0,0,0)
(0,0,0)
(0,0,0)
(0,0,0)
(0,0,0)
(0,0,0)
(-4.07777267266653e-13,2.24292438303335e-11,-5.27918132612368e-11)
(-7.07046190236625e-13,4.80839301274628e-11,-5.04348568678275e-11)
(-5.47099768627301e-13,8.37209547524768e-11,-4.60603429184496e-11)
(-1.89321040606586e-12,1.3367324597613e-10,-3.95119932249931e-11)
(-4.48118946158843e-12,2.07613295201893e-10,-3.00141736831468e-11)
(-8.52451768417634e-12,3.24044652904719e-10,-1.84886016109838e-11)
(-1.38261473622635e-11,5.09941488456563e-10,-7.58624169721356e-12)
(-1.76999882522758e-11,8.22076826716673e-10,-3.06322937531732e-12)
(-2.08180021088174e-11,1.41307973782956e-09,-2.42871859990931e-12)
(-2.25836172679128e-11,2.76472839417229e-09,-1.9634643624892e-12)
(0,0,0)
(0,0,0)
(0,0,0)
(0,0,0)
(0,0,0)
(0,0,0)
(-1.28567626048561e-12,2.01064971382767e-11,-8.86287540549523e-11)
(-2.00725028021621e-12,4.4092777090867e-11,-8.6253411911674e-11)
(-1.51909879199686e-12,7.72873032229307e-11,-8.07433589591142e-11)
(-3.17218404316227e-12,1.24244089110529e-10,-7.11912793461713e-11)
(-5.42396585992676e-12,1.96033402309793e-10,-5.75168159743284e-11)
(-9.85258142143792e-12,3.12763247238867e-10,-4.01592406175304e-11)
(-1.69431876230441e-11,5.04690013341098e-10,-2.3031886888672e-11)
(-2.25232864653394e-11,8.22627670932194e-10,-1.52565047524834e-11)
(-2.76596362042361e-11,1.41450271158831e-09,-1.07499312904657e-11)
(-3.09722760510986e-11,2.76491268223599e-09,-5.89889122277033e-12)
(0,0,0)
(0,0,0)
(0,0,0)
(0,0,0)
(0,0,0)
(0,0,0)
(-1.19423216967085e-12,1.73392598554859e-11,-1.3889767523703e-10)
(-1.52283668156565e-12,3.84768542490357e-11,-1.36574255632989e-10)
(-1.07990969947311e-12,6.72902806832253e-11,-1.30665289341719e-10)
(-3.13320549362305e-12,1.09609578957393e-10,-1.20100149552212e-10)
(-5.24046837381053e-12,1.77124619980847e-10,-1.04578074617679e-10)
(-8.986745279306e-12,2.92438115810492e-10,-8.40767389148553e-11)
(-1.78288965835803e-11,4.92780917927958e-10,-6.20889372298383e-11)
(-2.67281752365087e-11,8.2006710857671e-10,-4.77741052086027e-11)
(-3.34937504809783e-11,1.41292416494056e-09,-3.43173069441936e-11)
(-3.70305954680143e-11,2.76185381909764e-09,-1.80436420064252e-11)
(0,0,0)
(0,0,0)
(0,0,0)
(0,0,0)
(0,0,0)
(0,0,0)
(3.0645870924145e-13,1.42297660820013e-11,-2.12455981794964e-10)
(5.3130463898721e-13,3.17889465171727e-11,-2.1049140321699e-10)
(1.05517708208191e-12,5.56079400407873e-11,-2.05085152095723e-10)
(-5.73954592227998e-13,9.11241904167965e-11,-1.95463604072601e-10)
(-3.31866406259871e-12,1.50950491999623e-10,-1.82159260141849e-10)
(-8.96778356241818e-12,2.60419118191117e-10,-1.66274567348204e-10)
(-2.52930470886684e-11,4.6613947529819e-10,-1.52720389733897e-10)
(-3.37193695421298e-11,8.09896860800085e-10,-1.19375438143429e-10)
(-3.89306926200141e-11,1.40200535653106e-09,-8.3363254934645e-11)
(-4.12886053525345e-11,2.74774017628209e-09,-4.32068702483759e-11)
(0,0,0)
(0,0,0)
(0,0,0)
(0,0,0)
(0,0,0)
(0,0,0)
(1.64317955763002e-12,1.12261263975733e-11,-3.24419765481713e-10)
(1.79222079261738e-12,2.46836905184155e-11,-3.2264584445588e-10)
(2.21723744964541e-12,4.33639562546615e-11,-3.1826714665105e-10)
(7.15160267494832e-13,7.19802387183056e-11,-3.10927948509651e-10)
(-3.54506363149215e-12,1.23837639675437e-10,-3.01157618865047e-10)
(-1.14657702822174e-11,2.2919182269618e-10,-2.88046327513211e-10)
(-2.70628770345712e-11,4.4477835243624e-10,-2.69884202497387e-10)
(-3.56333721561081e-11,7.85747977535616e-10,-2.24480686238529e-10)
(-3.99987803947104e-11,1.37010086889473e-09,-1.60557491703099e-10)
(-4.18232608895045e-11,2.71010527523311e-09,-8.42162168873493e-11)
(0,0,0)
(0,0,0)
(0,0,0)
(0,0,0)
(0,0,0)
(0,0,0)
(2.66452490841855e-12,8.23040103912309e-12,-4.99468462733269e-10)
(3.2395385701195e-12,1.81397263524562e-11,-4.97670090184686e-10)
(3.46376327607351e-12,3.23789655923632e-11,-4.94560768430451e-10)
(5.85634726140819e-13,5.50326352922754e-11,-4.90050656529447e-10)
(-6.61750109037833e-12,9.83110583439959e-11,-4.8429521432336e-10)
(-1.86587897008368e-11,1.93354129714181e-10,-4.73503739569512e-10)
(-2.63698611765655e-11,4.07232529704972e-10,-4.38926187045748e-10)
(-3.33910483586518e-11,7.33306099794897e-10,-3.84097283487175e-10)
(-3.82478666524177e-11,1.30164916236586e-09,-2.8272407850019e-10)
(-4.05291415037632e-11,2.63122482141167e-09,-1.51988348922049e-10)
(0,0,0)
(0,0,0)
(0,0,0)
(0,0,0)
(0,0,0)
(0,0,0)
(2.45056078955941e-12,5.95896982236724e-12,-7.97751711038588e-10)
(3.57580924490255e-12,1.32978846699364e-11,-7.9666974757757e-10)
(3.16231147297599e-12,2.40444051171657e-11,-7.94481537800581e-10)
(-6.27897338969913e-13,4.32780250890922e-11,-7.91141306666177e-10)
(-8.43469480151516e-12,8.3462730677126e-11,-7.85648881883954e-10)
(-1.89872178436099e-11,1.71701104852188e-10,-7.72166092843474e-10)
(-2.65216973166353e-11,3.52686970800856e-10,-7.33281827743287e-10)
(-3.32819102971388e-11,6.36303193218211e-10,-6.44336404502528e-10)
(-3.86498285796256e-11,1.175169645474e-09,-4.95671727053291e-10)
(-4.11458899976517e-11,2.48264605883246e-09,-2.81778979062112e-10)
(0,0,0)
(0,0,0)
(0,0,0)
(0,0,0)
(0,0,0)
(0,0,0)
(1.79637532636562e-12,4.34767155250424e-12,-1.38119042734557e-09)
(2.38308526169805e-12,9.46703344454958e-12,-1.37977360822834e-09)
(1.38403866463501e-12,1.68660120103017e-11,-1.37683081024345e-09)
(-2.67266996315571e-12,3.17822214436454e-11,-1.37221041791497e-09)
(-1.06604924228911e-11,6.42143455784047e-11,-1.36314153078041e-09)
(-1.97721156406089e-11,1.31916877566199e-10,-1.34063369866974e-09)
(-2.74716377260089e-11,2.62469848437615e-10,-1.28572811349912e-09)
(-3.44003397357369e-11,4.88179642215738e-10,-1.16923501583987e-09)
(-3.89120913943173e-11,9.62011063042027e-10,-9.60586184257865e-10)
(-4.08936882614304e-11,2.20169712797957e-09,-6.00450163391777e-10)
(0,0,0)
(0,0,0)
(0,0,0)
(0,0,0)
(0,0,0)
(0,0,0)
(1.1239096140059e-12,2.47099178121848e-12,-2.72918260727819e-09)
(1.71709763570686e-12,5.11238742132078e-12,-2.72711097275953e-09)
(1.671948894502e-13,9.00924211679025e-12,-2.72352422242879e-09)
(-4.41330999198623e-12,1.7418790590582e-11,-2.71784257942698e-09)
(-1.13572106976817e-11,3.56708614795739e-11,-2.70563306134142e-09)
(-1.95706886815729e-11,7.2102870806606e-11,-2.67621430666045e-09)
(-2.76328085403243e-11,1.42511932912146e-10,-2.60969491661588e-09)
(-3.49438482296445e-11,2.77551129832517e-10,-2.47110920412507e-09)
(-3.92798553521512e-11,6.0040386323113e-10,-2.19613533494309e-09)
(-4.01375595610408e-11,1.60019426173965e-09,-1.59803244174663e-09)
(0,0,0)
(0,0,0)
(0,0,0)
(0,0,0)
(0,0,0)
(0,0,0)
(0,0,0)
(0,0,0)
(0,0,0)
(0,0,0)
(0,0,0)
(0,0,0)
(0,0,0)
(0,0,0)
(0,0,0)
(0,0,0)
(0,0,0)
(0,0,0)
(0,0,0)
(0,0,0)
(0,0,0)
(0,0,0)
(0,0,0)
(0,0,0)
(0,0,0)
(0,0,0)
(0,0,0)
(0,0,0)
(0,0,0)
(0,0,0)
(0,0,0)
(0,0,0)
(0,0,0)
(0,0,0)
(0,0,0)
(0,0,0)
(0,0,0)
(0,0,0)
(0,0,0)
(0,0,0)
(0,0,0)
(0,0,0)
(0,0,0)
(0,0,0)
(0,0,0)
(0,0,0)
(0,0,0)
(0,0,0)
(0,0,0)
(0,0,0)
(0,0,0)
(0,0,0)
(0,0,0)
(0,0,0)
(0,0,0)
(0,0,0)
(0,0,0)
(0,0,0)
(0,0,0)
(0,0,0)
(0,0,0)
(0,0,0)
(0,0,0)
(0,0,0)
(0,0,0)
(0,0,0)
(0,0,0)
(0,0,0)
(0,0,0)
(0,0,0)
(0,0,0)
(0,0,0)
(0,0,0)
(0,0,0)
(0,0,0)
(0,0,0)
(0,0,0)
(0,0,0)
(0,0,0)
(0,0,0)
(0,0,0)
(0,0,0)
(0,0,0)
(0,0,0)
(0,0,0)
(0,0,0)
(0,0,0)
(0,0,0)
(0,0,0)
(0,0,0)
(0,0,0)
(0,0,0)
(0,0,0)
(0,0,0)
(0,0,0)
(0,0,0)
(0,0,0)
(0,0,0)
(0,0,0)
(0,0,0)
(0,0,0)
(0,0,0)
(-1.63884506544773e-13,3.13258874102321e-11,-3.37724395838343e-11)
(-6.17837677371827e-13,6.69155795850018e-11,-3.21412369191638e-11)
(-1.11046471527527e-12,1.1458857571384e-10,-2.87322155366946e-11)
(-1.86243254917456e-12,1.80116232181835e-10,-2.27832861331578e-11)
(-3.14610069724327e-12,2.73283411527107e-10,-1.44164710495212e-11)
(-5.26744333929197e-12,4.09566388265064e-10,-5.02828723591213e-12)
(-7.49972674272725e-12,6.07127988706969e-10,3.00468049408217e-12)
(-9.87715881947507e-12,8.91590109522152e-10,5.19592228642923e-12)
(-1.16555164419407e-11,1.29609915047218e-09,3.80753918097144e-12)
(-1.2524722990424e-11,1.78861641201986e-09,1.80472555739323e-12)
(0,0,0)
(0,0,0)
(0,0,0)
(0,0,0)
(0,0,0)
(0,0,0)
(-4.41986968948836e-13,2.97364410669728e-11,-7.05221417944066e-11)
(-1.09040710349562e-12,6.3858696888536e-11,-6.80177982936423e-11)
(-6.61797933525262e-13,1.093836983634e-10,-6.20745951559195e-11)
(-1.96187308179424e-12,1.72417078778822e-10,-5.12237787818273e-11)
(-4.4268686411873e-12,2.64244715108295e-10,-3.4777013003218e-11)
(-8.14547193215137e-12,4.01800602595227e-10,-1.38657570056665e-11)
(-1.3097684570009e-11,6.05232743691368e-10,5.98084534320929e-12)
(-1.88853432416979e-11,8.93823293917068e-10,9.94676481244837e-12)
(-2.27062301052628e-11,1.29895982483429e-09,6.00906418279161e-12)
(-2.47313696938178e-11,1.79101677697948e-09,2.12801427297069e-12)
(0,0,0)
(0,0,0)
(0,0,0)
(0,0,0)
(0,0,0)
(0,0,0)
(-8.93781122872113e-13,2.69289024488983e-11,-1.18386831906284e-10)
(-1.90138038975373e-12,5.82537513088102e-11,-1.15123542223559e-10)
(-1.0741558646938e-12,9.95352028302552e-11,-1.06828140478481e-10)
(-2.21213726237722e-12,1.57206725247136e-10,-9.1551114872795e-11)
(-3.87275888772203e-12,2.44619879587136e-10,-6.77888445901697e-11)
(-6.65480372205555e-12,3.83119581490066e-10,-3.37027367267902e-11)
(-1.2809474345168e-11,6.01941567850185e-10,4.20995631129556e-12)
(-2.44692975729492e-11,9.00968468137748e-10,7.79331015629288e-12)
(-3.0932129623045e-11,1.30593224460525e-09,1.43983968226648e-12)
(-3.38123041362541e-11,1.7951509349892e-09,-1.26570696476952e-12)
(0,0,0)
(0,0,0)
(0,0,0)
(0,0,0)
(0,0,0)
(0,0,0)
(-4.08158001029744e-13,2.30312185841181e-11,-1.83570663284245e-10)
(-7.43895239648567e-13,4.96211087340718e-11,-1.79742655997016e-10)
(3.72911527377441e-14,8.41717355500733e-11,-1.70402564479818e-10)
(-1.69891888435078e-13,1.33127196715572e-10,-1.53388606314834e-10)
(4.32323905061434e-13,2.10049650415537e-10,-1.25912722792361e-10)
(1.04445065485302e-12,3.43547063843436e-10,-8.27859734803002e-11)
(-5.50228597486072e-12,5.9152711220259e-10,-2.43490038962918e-11)
(-3.00147257239222e-11,9.14331431153282e-10,-2.2948768550809e-11)
(-3.88486070089765e-11,1.31533000819672e-09,-2.46676650513069e-11)
(-4.0960594659556e-11,1.79794559232294e-09,-1.57186083094958e-11)
(0,0,0)
(0,0,0)
(0,0,0)
(0,0,0)
(0,0,0)
(0,0,0)
(1.34551981520206e-12,1.87267884145242e-11,-2.73996819369831e-10)
(2.23030951728172e-12,3.96107355679489e-11,-2.70282538870138e-10)
(3.67761284398918e-12,6.57312705909561e-11,-2.61545400208515e-10)
(5.26565317582958e-12,1.02216471658713e-10,-2.46352590664776e-10)
(7.90949546889503e-12,1.60180577057633e-10,-2.24075387771794e-10)
(8.70533431720339e-12,2.6759595632314e-10,-1.98694941636339e-10)
(-3.72768758180945e-11,5.18724270917469e-10,-2.17468137903759e-10)
(-4.55826694864203e-11,9.27779361808046e-10,-1.42703659084531e-10)
(-4.71825896682237e-11,1.31776875093605e-09,-9.5687066217496e-11)
(-4.68605745525665e-11,1.78876640075023e-09,-4.95222206010392e-11)
(0,0,0)
(0,0,0)
(0,0,0)
(0,0,0)
(0,0,0)
(0,0,0)
(2.86498389042681e-12,1.40977733358104e-11,-4.02437307581547e-10)
(3.9574871534918e-12,2.92148294195521e-11,-3.99431105739214e-10)
(5.86302997028133e-12,4.73341605822441e-11,-3.92935688967985e-10)
(7.89243405040845e-12,7.19093872018073e-11,-3.82292253567021e-10)
(8.87022634701255e-12,1.13130774322623e-10,-3.68292787398833e-10)
(6.20979768387201e-12,2.1124767926228e-10,-3.53100803792331e-10)
(-3.49205705615869e-11,5.24409321693617e-10,-3.65685604226301e-10)
(-4.71146889514012e-11,9.14514059876698e-10,-2.8873856729326e-10)
(-4.78883486809253e-11,1.28707879488689e-09,-1.98627331956667e-10)
(-4.71590239563608e-11,1.74723308928721e-09,-1.01724757506798e-10)
(0,0,0)
(0,0,0)
(0,0,0)
(0,0,0)
(0,0,0)
(0,0,0)
(3.13758357727139e-12,9.76374644883528e-12,-5.86632598505052e-10)
(4.9720584975606e-12,2.02026786354388e-11,-5.84566596074038e-10)
(7.28821185062087e-12,3.19856186249594e-11,-5.81078360393369e-10)
(6.58480272306022e-12,4.68211484138914e-11,-5.77303534799001e-10)
(-2.56064817700457e-12,6.90451621698813e-11,-5.78287625355521e-10)
(-3.15833173627283e-11,1.30727002952775e-10,-5.88628246262979e-10)
(-2.66532058309211e-11,4.86174983199259e-10,-5.2305960700783e-10)
(-3.77613467695468e-11,8.56207574072147e-10,-4.99064219319309e-10)
(-4.25040793381463e-11,1.20468475201691e-09,-3.45079204016707e-10)
(-4.39387278462786e-11,1.65275063915273e-09,-1.76960864041131e-10)
(0,0,0)
(0,0,0)
(0,0,0)
(0,0,0)
(0,0,0)
(0,0,0)
(2.97989559858552e-12,6.59809277213413e-12,-8.5597890254077e-10)
(5.21845069348039e-12,1.41491024970396e-11,-8.55129054141234e-10)
(7.00047344451467e-12,2.29934417167095e-11,-8.53329329333627e-10)
(5.37548152548168e-12,3.78107204552779e-11,-8.52177491824737e-10)
(-2.66909874398611e-12,7.02396057120733e-11,-8.54554793474298e-10)
(-1.80872556576812e-11,1.64262977870464e-10,-8.61601623478031e-10)
(-2.5249998193899e-11,4.38249189603551e-10,-8.45472810245335e-10)
(-3.38230367450979e-11,7.07285339927886e-10,-7.19930462957305e-10)
(-3.93839941383924e-11,1.04202106227634e-09,-5.24264539446316e-10)
(-4.19759382062398e-11,1.47941108874945e-09,-2.8256092667381e-10)
(0,0,0)
(0,0,0)
(0,0,0)
(0,0,0)
(0,0,0)
(0,0,0)
(2.25623598036958e-12,4.71095360357728e-12,-1.25129242307063e-09)
(3.79493329997815e-12,9.93038503161262e-12,-1.24998691531228e-09)
(4.62041623038336e-12,1.69168793170068e-11,-1.24744356674337e-09)
(2.62187375514888e-12,3.10844908285081e-11,-1.24434461406479e-09)
(-4.62484043416481e-12,6.36453125918709e-11,-1.23903400305015e-09)
(-1.48636940519664e-11,1.42452618830511e-10,-1.22417939602526e-09)
(-2.40068198598667e-11,3.0818374880737e-10,-1.17288308619812e-09)
(-3.24206589356094e-11,5.11294256343663e-10,-1.03136571084366e-09)
(-3.74409124488759e-11,8.00655487341658e-10,-7.98951588242438e-10)
(-3.98409854133424e-11,1.19718927869496e-09,-4.59119235774988e-10)
(0,0,0)
(0,0,0)
(0,0,0)
(0,0,0)
(0,0,0)
(0,0,0)
(1.52326687585408e-12,2.77739878520683e-12,-1.73969169976356e-09)
(3.24273472596789e-12,5.42289249184257e-12,-1.7375199440156e-09)
(3.4947940048238e-12,9.47576397507169e-12,-1.73411959973788e-09)
(7.95962512912385e-13,1.82845870671285e-11,-1.7287617006505e-09)
(-5.10510389895975e-12,3.79243430193246e-11,-1.71692993003591e-09)
(-1.39872079201316e-11,8.04962894661192e-11,-1.68763170495574e-09)