/*--------------------------------*- C++ -*----------------------------------*\
| =========                 |                                                 |
| \\      /  F ield         | foam-extend: Open Source CFD                    |
|  \\    /   O peration     | Version:     4.0                                |
|   \\  /    A nd           | Web:         http://www.foam-extend.org         |
|    \\/     M anipulation  |                                                 |
\*---------------------------------------------------------------------------*/
FoamFile
{
    version 2.0;
    format ascii;
    class volVectorField;
    location "2297";
    object      E;
}
// * * * * * * * * * * * * * * * * * * * * * * * * * * * * * * * * * * * * * //

dimensions      [0 1 -1 0 0 0 0];

internalField   nonuniform List<vector>
4096
(
(0,0,0)
(0,0,0)
(0,0,0)
(0,0,0)
(0,0,0)
(0,0,0)
(0,0,0)
(0,0,0)
(0,0,0)
(0,0,0)
(0,0,0)
(0,0,0)
(0,0,0)
(0,0,0)
(0,0,0)
(0,0,0)
(0,0,0)
(0,0,0)
(0,0,0)
(0,0,0)
(0,0,0)
(0,0,0)
(0,0,0)
(0,0,0)
(0,0,0)
(0,0,0)
(0,0,0)
(0,0,0)
(0,0,0)
(0,0,0)
(0,0,0)
(0,0,0)
(0,0,0)
(0,0,0)
(0,0,0)
(0,0,0)
(0,0,0)
(0,0,0)
(0,0,0)
(0,0,0)
(0,0,0)
(0,0,0)
(0,0,0)
(0,0,0)
(0,0,0)
(0,0,0)
(0,0,0)
(0,0,0)
(0,0,0)
(0,0,0)
(0,0,0)
(0,0,0)
(0,0,0)
(0,0,0)
(0,0,0)
(0,0,0)
(0,0,0)
(0,0,0)
(0,0,0)
(0,0,0)
(0,0,0)
(0,0,0)
(0,0,0)
(0,0,0)
(0,0,0)
(0,0,0)
(0,0,0)
(0,0,0)
(0,0,0)
(0,0,0)
(0,0,0)
(0,0,0)
(0,0,0)
(0,0,0)
(0,0,0)
(0,0,0)
(0,0,0)
(0,0,0)
(0,0,0)
(0,0,0)
(0,0,0)
(0,0,0)
(0,0,0)
(0,0,0)
(0,0,0)
(0,0,0)
(0,0,0)
(0,0,0)
(0,0,0)
(0,0,0)
(0,0,0)
(0,0,0)
(0,0,0)
(0,0,0)
(0,0,0)
(0,0,0)
(0,0,0)
(0,0,0)
(0,0,0)
(0,0,0)
(0,0,0)
(0,0,0)
(0,0,0)
(0,0,0)
(0,0,0)
(0,0,0)
(0,0,0)
(0,0,0)
(0,0,0)
(0,0,0)
(0,0,0)
(0,0,0)
(0,0,0)
(0,0,0)
(0,0,0)
(0,0,0)
(0,0,0)
(0,0,0)
(0,0,0)
(0,0,0)
(0,0,0)
(0,0,0)
(0,0,0)
(0,0,0)
(0,0,0)
(0,0,0)
(0,0,0)
(0,0,0)
(0,0,0)
(0,0,0)
(0,0,0)
(0,0,0)
(0,0,0)
(0,0,0)
(0,0,0)
(0,0,0)
(0,0,0)
(0,0,0)
(0,0,0)
(0,0,0)
(0,0,0)
(0,0,0)
(0,0,0)
(0,0,0)
(0,0,0)
(0,0,0)
(0,0,0)
(0,0,0)
(0,0,0)
(0,0,0)
(0,0,0)
(0,0,0)
(0,0,0)
(0,0,0)
(0,0,0)
(0,0,0)
(0,0,0)
(0,0,0)
(0,0,0)
(0,0,0)
(0,0,0)
(0,0,0)
(0,0,0)
(0,0,0)
(0,0,0)
(0,0,0)
(0,0,0)
(0,0,0)
(0,0,0)
(0,0,0)
(0,0,0)
(0,0,0)
(0,0,0)
(0,0,0)
(0,0,0)
(0,0,0)
(0,0,0)
(0,0,0)
(0,0,0)
(0,0,0)
(0,0,0)
(0,0,0)
(0,0,0)
(0,0,0)
(0,0,0)
(0,0,0)
(0,0,0)
(0,0,0)
(0,0,0)
(0,0,0)
(0,0,0)
(0,0,0)
(0,0,0)
(0,0,0)
(0,0,0)
(0,0,0)
(0,0,0)
(0,0,0)
(0,0,0)
(0,0,0)
(0,0,0)
(0,0,0)
(0,0,0)
(0,0,0)
(0,0,0)
(0,0,0)
(0,0,0)
(0,0,0)
(0,0,0)
(0,0,0)
(0,0,0)
(0,0,0)
(0,0,0)
(0,0,0)
(0,0,0)
(0,0,0)
(0,0,0)
(0,0,0)
(0,0,0)
(0,0,0)
(0,0,0)
(0,0,0)
(0,0,0)
(0,0,0)
(0,0,0)
(0,0,0)
(0,0,0)
(0,0,0)
(0,0,0)
(0,0,0)
(0,0,0)
(0,0,0)
(0,0,0)
(0,0,0)
(0,0,0)
(0,0,0)
(0,0,0)
(0,0,0)
(0,0,0)
(0,0,0)
(0,0,0)
(0,0,0)
(0,0,0)
(0,0,0)
(0,0,0)
(0,0,0)
(0,0,0)
(0,0,0)
(0,0,0)
(0,0,0)
(0,0,0)
(0,0,0)
(0,0,0)
(0,0,0)
(0,0,0)
(0,0,0)
(0,0,0)
(0,0,0)
(0,0,0)
(0,0,0)
(0,0,0)
(0,0,0)
(0,0,0)
(0,0,0)
(0,0,0)
(0,0,0)
(0,0,0)
(0,0,0)
(0,0,0)
(0,0,0)
(0,0,0)
(0,0,0)
(0,0,0)
(0,0,0)
(0,0,0)
(0,0,0)
(0,0,0)
(0,0,0)
(0,0,0)
(0,0,0)
(0,0,0)
(0,0,0)
(0,0,0)
(0,0,0)
(0,0,0)
(0,0,0)
(0,0,0)
(0,0,0)
(0,0,0)
(0,0,0)
(0,0,0)
(0,0,0)
(0,0,0)
(0,0,0)
(0,0,0)
(0,0,0)
(0,0,0)
(0,0,0)
(0,0,0)
(0,0,0)
(0,0,0)
(0,0,0)
(0,0,0)
(0,0,0)
(0,0,0)
(0,0,0)
(0,0,0)
(0,0,0)
(0,0,0)
(0,0,0)
(0,0,0)
(0,0,0)
(0,0,0)
(0,0,0)
(0,0,0)
(0,0,0)
(0,0,0)
(0,0,0)
(0,0,0)
(0,0,0)
(0,0,0)
(0,0,0)
(0,0,0)
(0,0,0)
(0,0,0)
(0,0,0)
(0,0,0)
(0,0,0)
(0,0,0)
(0,0,0)
(0,0,0)
(0,0,0)
(0,0,0)
(0,0,0)
(0,0,0)
(0,0,0)
(0,0,0)
(0,0,0)
(0,0,0)
(0,0,0)
(0,0,0)
(0,0,0)
(0,0,0)
(0,0,0)
(0,0,0)
(0,0,0)
(0,0,0)
(0,0,0)
(0,0,0)
(0,0,0)
(0,0,0)
(0,0,0)
(0,0,0)
(0,0,0)
(0,0,0)
(0,0,0)
(0,0,0)
(0,0,0)
(0,0,0)
(0,0,0)
(0,0,0)
(0,0,0)
(0,0,0)
(0,0,0)
(0,0,0)
(0,0,0)
(0,0,0)
(0,0,0)
(0,0,0)
(0,0,0)
(0,0,0)
(0,0,0)
(0,0,0)
(0,0,0)
(0,0,0)
(0,0,0)
(0,0,0)
(0,0,0)
(0,0,0)
(0,0,0)
(0,0,0)
(0,0,0)
(0,0,0)
(0,0,0)
(0,0,0)
(0,0,0)
(0,0,0)
(0,0,0)
(0,0,0)
(0,0,0)
(0,0,0)
(0,0,0)
(0,0,0)
(0,0,0)
(0,0,0)
(0,0,0)
(0,0,0)
(0,0,0)
(0,0,0)
(0,0,0)
(0,0,0)
(0,0,0)
(0,0,0)
(0,0,0)
(0,0,0)
(0,0,0)
(0,0,0)
(0,0,0)
(0,0,0)
(0,0,0)
(0,0,0)
(0,0,0)
(0,0,0)
(0,0,0)
(0,0,0)
(0,0,0)
(0,0,0)
(0,0,0)
(0,0,0)
(0,0,0)
(0,0,0)
(0,0,0)
(0,0,0)
(0,0,0)
(0,0,0)
(0,0,0)
(0,0,0)
(0,0,0)
(0,0,0)
(0,0,0)
(0,0,0)
(0,0,0)
(0,0,0)
(0,0,0)
(0,0,0)
(0,0,0)
(0,0,0)
(0,0,0)
(0,0,0)
(0,0,0)
(0,0,0)
(0,0,0)
(0,0,0)
(0,0,0)
(0,0,0)
(0,0,0)
(0,0,0)
(0,0,0)
(0,0,0)
(0,0,0)
(0,0,0)
(0,0,0)
(0,0,0)
(0,0,0)
(0,0,0)
(0,0,0)
(0,0,0)
(0,0,0)
(0,0,0)
(0,0,0)
(0,0,0)
(0,0,0)
(0,0,0)
(0,0,0)
(0,0,0)
(0,0,0)
(0,0,0)
(0,0,0)
(0,0,0)
(0,0,0)
(0,0,0)
(0,0,0)
(0,0,0)
(0,0,0)
(0,0,0)
(0,0,0)
(0,0,0)
(0,0,0)
(0,0,0)
(0,0,0)
(0,0,0)
(0,0,0)
(0,0,0)
(0,0,0)
(0,0,0)
(0,0,0)
(0,0,0)
(0,0,0)
(0,0,0)
(0,0,0)
(0,0,0)
(0,0,0)
(0,0,0)
(0,0,0)
(0,0,0)
(0,0,0)
(0,0,0)
(0,0,0)
(0,0,0)
(0,0,0)
(0,0,0)
(0,0,0)
(0,0,0)
(0,0,0)
(0,0,0)
(0,0,0)
(0,0,0)
(0,0,0)
(0,0,0)
(0,0,0)
(0,0,0)
(0,0,0)
(0,0,0)
(0,0,0)
(0,0,0)
(0,0,0)
(0,0,0)
(0,0,0)
(0,0,0)
(0,0,0)
(0,0,0)
(0,0,0)
(0,0,0)
(0,0,0)
(0,0,0)
(0,0,0)
(0,0,0)
(0,0,0)
(0,0,0)
(0,0,0)
(0,0,0)
(0,0,0)
(0,0,0)
(0,0,0)
(0,0,0)
(0,0,0)
(0,0,0)
(0,0,0)
(0,0,0)
(0,0,0)
(0,0,0)
(0,0,0)
(0,0,0)
(0,0,0)
(0,0,0)
(0,0,0)
(0,0,0)
(0,0,0)
(0,0,0)
(0,0,0)
(0,0,0)
(0,0,0)
(0,0,0)
(0,0,0)
(0,0,0)
(0,0,0)
(0,0,0)
(0,0,0)
(0,0,0)
(0,0,0)
(0,0,0)
(0,0,0)
(0,0,0)
(0,0,0)
(0,0,0)
(0,0,0)
(0,0,0)
(0,0,0)
(0,0,0)
(0,0,0)
(0,0,0)
(0,0,0)
(0,0,0)
(0,0,0)
(0,0,0)
(0,0,0)
(0,0,0)
(0,0,0)
(0,0,0)
(0,0,0)
(0,0,0)
(0,0,0)
(0,0,0)
(0,0,0)
(0,0,0)
(0,0,0)
(0,0,0)
(0,0,0)
(0,0,0)
(0,0,0)
(0,0,0)
(0,0,0)
(0,0,0)
(0,0,0)
(0,0,0)
(0,0,0)
(0,0,0)
(0,0,0)
(0,0,0)
(0,0,0)
(0,0,0)
(0,0,0)
(0,0,0)
(0,0,0)
(0,0,0)
(0,0,0)
(0,0,0)
(0,0,0)
(0,0,0)
(0,0,0)
(0,0,0)
(0,0,0)
(0,0,0)
(0,0,0)
(0,0,0)
(0,0,0)
(0,0,0)
(0,0,0)
(0,0,0)
(0,0,0)
(0,0,0)
(0,0,0)
(0,0,0)
(0,0,0)
(0,0,0)
(0,0,0)
(0,0,0)
(0,0,0)
(0,0,0)
(0,0,0)
(0,0,0)
(0,0,0)
(0,0,0)
(0,0,0)
(0,0,0)
(0,0,0)
(0,0,0)
(0,0,0)
(0,0,0)
(0,0,0)
(0,0,0)
(0,0,0)
(0,0,0)
(0,0,0)
(0,0,0)
(0,0,0)
(0,0,0)
(0,0,0)
(0,0,0)
(0,0,0)
(0,0,0)
(0,0,0)
(0,0,0)
(0,0,0)
(0,0,0)
(0,0,0)
(0,0,0)
(0,0,0)
(0,0,0)
(0,0,0)
(0,0,0)
(0,0,0)
(0,0,0)
(0,0,0)
(0,0,0)
(0,0,0)
(0,0,0)
(0,0,0)
(0,0,0)
(0,0,0)
(0,0,0)
(0,0,0)
(0,0,0)
(0,0,0)
(0,0,0)
(0,0,0)
(0,0,0)
(0,0,0)
(0,0,0)
(0,0,0)
(0,0,0)
(0,0,0)
(0,0,0)
(0,0,0)
(0,0,0)
(0,0,0)
(0,0,0)
(0,0,0)
(0,0,0)
(0,0,0)
(0,0,0)
(0,0,0)
(0,0,0)
(0,0,0)
(0,0,0)
(0,0,0)
(0,0,0)
(0,0,0)
(0,0,0)
(0,0,0)
(0,0,0)
(0,0,0)
(0,0,0)
(0,0,0)
(0,0,0)
(0,0,0)
(0,0,0)
(0,0,0)
(0,0,0)
(0,0,0)
(0,0,0)
(0,0,0)
(0,0,0)
(0,0,0)
(0,0,0)
(0,0,0)
(0,0,0)
(0,0,0)
(0,0,0)
(0,0,0)
(0,0,0)
(0,0,0)
(0,0,0)
(0,0,0)
(0,0,0)
(0,0,0)
(0,0,0)
(0,0,0)
(0,0,0)
(0,0,0)
(0,0,0)
(0,0,0)
(0,0,0)
(0,0,0)
(0,0,0)
(0,0,0)
(0,0,0)
(0,0,0)
(0,0,0)
(0,0,0)
(0,0,0)
(0,0,0)
(0,0,0)
(0,0,0)
(0,0,0)
(0,0,0)
(0,0,0)
(0,0,0)
(0,0,0)
(0,0,0)
(0,0,0)
(0,0,0)
(0,0,0)
(0,0,0)
(0,0,0)
(0,0,0)
(0,0,0)
(0,0,0)
(0,0,0)
(0,0,0)
(0,0,0)
(0,0,0)
(0,0,0)
(0,0,0)
(0,0,0)
(0,0,0)
(0,0,0)
(0,0,0)
(0,0,0)
(0,0,0)
(0,0,0)
(0,0,0)
(0,0,0)
(0,0,0)
(0,0,0)
(0,0,0)
(0,0,0)
(0,0,0)
(0,0,0)
(0,0,0)
(0,0,0)
(0,0,0)
(0,0,0)
(0,0,0)
(0,0,0)
(0,0,0)
(0,0,0)
(0,0,0)
(0,0,0)
(0,0,0)
(0,0,0)
(0,0,0)
(0,0,0)
(0,0,0)
(0,0,0)
(0,0,0)
(0,0,0)
(0,0,0)
(0,0,0)
(0,0,0)
(0,0,0)
(0,0,0)
(0,0,0)
(0,0,0)
(0,0,0)
(0,0,0)
(0,0,0)
(0,0,0)
(0,0,0)
(0,0,0)
(0,0,0)
(0,0,0)
(0,0,0)
(0,0,0)
(0,0,0)
(0,0,0)
(0,0,0)
(0,0,0)
(0,0,0)
(-84347.733545046,44731.2076132692,39616.5259317751)
(-89224.1725639723,42880.7947841842,85959.9037115634)
(-100462.558604146,39031.2482704739,147391.214045235)
(-121766.683540344,32956.6644038525,236201.233181732)
(-160168.273147234,24741.5172674388,371627.989061537)
(-229090.858856057,15310.2788244478,585408.569093137)
(-353874.155475978,6769.30392891079,932513.420640229)
(-579402.111773928,1587.19949587016,1510328.33291833)
(-955773.584840018,-123.836463614423,2466225.75422193)
(-1331741.97130442,-246.2325602928,3798213.95808667)
(0,0,0)
(0,0,0)
(0,0,0)
(0,0,0)
(0,0,0)
(0,0,0)
(-89214.3134456839,96181.8672262066,37763.6538327448)
(-94135.6013808332,92679.1078260317,82100.9421717354)
(-105564.44883307,85327.3477981307,141369.291477145)
(-127375.702365587,73603.4292023887,228098.229044202)
(-166829.56379691,57401.0996390429,362268.210469497)
(-237398.531979957,38123.6839870995,576853.337286802)
(-363556.062575472,19962.7025853636,927216.00120582)
(-588252.315083391,8548.25593572169,1508507.25984928)
(-961674.42073626,4089.86939379461,2465967.97472818)
(-1334517.02209197,2042.52738447935,3798196.2368753)
(0,0,0)
(0,0,0)
(0,0,0)
(0,0,0)
(0,0,0)
(0,0,0)
(-100330.456699282,162235.448169262,34276.8757562271)
(-105356.600992297,157526.843514191,74785.7410603678)
(-117163.796387409,147561.437816796,129715.447429116)
(-140068.390399055,131395.34463464,211991.922395923)
(-182039.753524788,108339.750962967,343093.024596775)
(-256977.270193786,79531.5680093477,558662.410768314)
(-387469.527683438,50453.3298932615,915641.31114387)
(-610269.718696523,30575.0050913253,1503884.28068476)
(-975838.107966735,20102.034698436,2463710.22334688)
(-1340938.58214163,10850.9549936975,3795840.37787936)
(0,0,0)
(0,0,0)
(0,0,0)
(0,0,0)
(0,0,0)
(0,0,0)
(-121090.448426736,253721.57940079,29604.317195209)
(-126190.685497025,248461.675299168,64860.1709072583)
(-138459.297703189,237269.486341371,113611.420085865)
(-162936.429273338,218941.567879699,189001.626114137)
(-209087.876034506,192110.612964072,314318.640147543)
(-292430.276566448,156808.607799168,529471.876924175)
(-433252.272006432,117645.613187961,895531.865635901)
(-652819.277833947,85736.6375006635,1493189.51106045)
(-1001781.1152261,60899.0949947571,2454173.56599019)
(-1352259.6946412,32737.3311905977,3784546.88443462)
(0,0,0)
(0,0,0)
(0,0,0)
(0,0,0)
(0,0,0)
(0,0,0)
(-158292.958842099,387625.64844122,24388.8898016651)
(-163365.106462405,382472.511990247,53743.1595729878)
(-175894.284981723,371597.040296566,95309.8905995171)
(-201683.959929572,353777.592216888,162157.826191898)
(-252111.301892432,327390.57145108,278989.169597324)
(-345851.876083954,291440.218088983,490209.435391441)
(-502974.852126898,247392.53256374,863437.368142561)
(-717664.417872126,198711.314665674,1468127.10884969)
(-1039541.32900991,142845.925220779,2425721.60763365)
(-1368642.49772977,75698.3388427719,3751403.09771123)
(0,0,0)
(0,0,0)
(0,0,0)
(0,0,0)
(0,0,0)
(0,0,0)
(-225476.934610548,593779.731687048,19322.8513647244)
(-230309.116928784,589202.628217992,42901.852065759)
(-242429.68958727,579528.044414668,77400.5375349289)
(-267960.792249123,563519.544732525,135619.377268413)
(-318898.19638393,538985.931148179,242922.213955249)
(-414405.06857909,502745.093890069,446022.406733272)
(-572007.791938525,450835.797791521,814586.933444028)
(-776977.35214418,378223.975093716,1412051.62516017)
(-1080438.49168351,276994.255451339,2358341.78661319)
(-1389243.70776055,147875.776152847,3675408.0570635)
(0,0,0)
(0,0,0)
(0,0,0)
(0,0,0)
(0,0,0)
(0,0,0)
(-348810.864042705,927779.71904513,14810.8766846205)
(-353112.763836229,923883.640541161,33242.6281976917)
(-363999.976391047,915482.990999112,61287.6580043003)
(-387323.863035761,901209.98536456,110921.08040803)
(-434631.935762102,877975.67927875,206563.268039558)
(-524350.436647025,839703.594603341,393955.203973307)
(-672241.335929871,775294.074169471,741738.263525238)
(-858641.711377884,668066.215094206,1310537.73490264)
(-1141401.2144278,499961.547606598,2228971.65717512)
(-1422862.18695787,272447.832036638,3527261.78824932)
(0,0,0)
(0,0,0)
(0,0,0)
(0,0,0)
(0,0,0)
(0,0,0)
(-574433.292305934,1491307.5173208,10905.4940302653)
(-577882.754746693,1487823.08897527,24848.8003428549)
(-586676.315063634,1480074.56685711,46933.5395485048)
(-605659.635207499,1466226.98173458,87576.1783859682)
(-644548.90626898,1441908.5439106,168192.220023095)
(-719119.583756559,1397621.99302014,329393.405362839)
(-842960.778832213,1313389.58724802,634258.671116483)
(-993909.366496362,1154123.79690344,1142110.45580363)
(-1252139.75394564,893030.984091892,2001180.77326397)
(-1487199.00884674,506242.779603813,3254584.83454348)
(0,0,0)
(0,0,0)
(0,0,0)
(0,0,0)
(0,0,0)
(0,0,0)
(-952307.437332083,2436283.28692891,7331.66772394621)
(-954667.468544524,2432838.53610671,16983.6891370516)
(-960664.777839428,2424819.51835044,32903.5154831041)
(-973449.708214289,2409500.61073897,63079.5946929882)
(-999149.421672558,2380454.61005906,123682.950217085)
(-1047389.6447331,2323835.43914963,244859.148820691)
(-1128478.85233694,2212016.24121359,474711.347192073)
(-1249056.77118872,1997208.0597601,880683.855524136)
(-1456357.9336911,1615986.31548609,1614086.45782096)
(-1599399.51899881,971696.994443198,2748031.7619804)
(0,0,0)
(0,0,0)
(0,0,0)
(0,0,0)
(0,0,0)
(0,0,0)
(-1330157.34035187,3762719.3791214,3721.24815940181)
(-1331342.58630025,3759151.28147492,8751.0890914336)
(-1334335.66191129,3750616.57692737,17289.6924258313)
(-1340630.47907774,3733724.52537746,33696.2568651182)
(-1353065.37128608,3700490.13195317,66726.1062571241)
(-1376279.50335078,3634196.7824003,132644.266357227)
(-1416869.95724254,3502022.12852618,259508.336287162)
(-1485304.18758551,3243030.80288237,498989.780750359)
(-1599048.74028179,2744610.59015359,969414.246364604)
(-1610418.77881775,1775581.79133057,1775948.22829502)
(0,0,0)
(0,0,0)
(0,0,0)
(0,0,0)
(0,0,0)
(0,0,0)
(0,0,0)
(0,0,0)
(0,0,0)
(0,0,0)
(0,0,0)
(0,0,0)
(0,0,0)
(0,0,0)
(0,0,0)
(0,0,0)
(0,0,0)
(0,0,0)
(0,0,0)
(0,0,0)
(0,0,0)
(0,0,0)
(0,0,0)
(0,0,0)
(0,0,0)
(0,0,0)
(0,0,0)
(0,0,0)
(0,0,0)
(0,0,0)
(0,0,0)
(0,0,0)
(0,0,0)
(0,0,0)
(0,0,0)
(0,0,0)
(0,0,0)
(0,0,0)
(0,0,0)
(0,0,0)
(0,0,0)
(0,0,0)
(0,0,0)
(0,0,0)
(0,0,0)
(0,0,0)
(0,0,0)
(0,0,0)
(0,0,0)
(0,0,0)
(0,0,0)
(0,0,0)
(0,0,0)
(0,0,0)
(0,0,0)
(0,0,0)
(0,0,0)
(0,0,0)
(0,0,0)
(0,0,0)
(0,0,0)
(0,0,0)
(0,0,0)
(0,0,0)
(0,0,0)
(0,0,0)
(0,0,0)
(0,0,0)
(0,0,0)
(0,0,0)
(0,0,0)
(0,0,0)
(0,0,0)
(0,0,0)
(0,0,0)
(0,0,0)
(0,0,0)
(0,0,0)
(0,0,0)
(0,0,0)
(0,0,0)
(0,0,0)
(0,0,0)
(0,0,0)
(0,0,0)
(0,0,0)
(0,0,0)
(0,0,0)
(0,0,0)
(0,0,0)
(0,0,0)
(0,0,0)
(0,0,0)
(0,0,0)
(0,0,0)
(0,0,0)
(0,0,0)
(0,0,0)
(0,0,0)
(0,0,0)
(0,0,0)
(0,0,0)
(12490751.0917247,39901.0748208813,34780.7523839185)
(12482607.4812463,38009.0983318588,74720.6527164308)
(12463918.0893159,33977.9088530592,126142.748417832)
(12428889.3084199,27405.6034660214,197861.80546616)
(12366583.8201713,18138.5761812665,302751.7884409)
(12255765.8504735,7061.02922298216,460614.702362803)
(12052424.3154987,-2874.24771022947,706971.131572773)
(11650587.2295338,-7231.77092983244,1133994.21366949)
(10743802.060624,-6011.28477322423,2090210.50545325)
(8281255.58318652,-2978.57453370449,5129972.17797058)
(0,0,0)
(0,0,0)
(0,0,0)
(0,0,0)
(0,0,0)
(0,0,0)
(12482487.9075143,85081.4682295306,32898.0381059487)
(12474330.6791683,81514.506020145,70707.0023431392)
(12455464.205126,73812.9227479887,119623.986963713)
(12419769.7518219,61005.9287587279,188658.859958017)
(12355765.284444,42282.4375572111,291700.802815719)
(12241832.2901615,18645.2251981629,450666.437173729)
(12035377.6473916,-3871.21569205604,702510.347663099)
(11635160.1048797,-13432.6387747167,1135079.44801943)
(10734182.1518023,-10073.9770686193,2093066.22025066)
(8277018.3920417,-4350.68780015589,5132683.57185794)
(0,0,0)
(0,0,0)
(0,0,0)
(0,0,0)
(0,0,0)
(0,0,0)
(12463716.4000386,141498.257937775,29317.0060283424)
(12455488.0805769,136731.607312467,63035.8756413678)
(12436235.3681747,126333.656136636,106896.630165254)
(12398988.3662776,108590.929885653,170035.524836256)
(12330549.4669229,81359.7619769092,268149.632443428)
(12207279.7244292,44179.7256248059,428138.789868435)
(11989008.8220441,4747.99977789019,692821.877145545)
(11592587.4877022,-11969.9312299851,1138282.6156768)
(10709425.1712813,-5844.16151429531,2098570.1733489)
(8266752.30193271,-440.838360425878,5136750.09230945)
(0,0,0)
(0,0,0)
(0,0,0)
(0,0,0)
(0,0,0)
(0,0,0)
(12429132.9977472,216512.498414641,24542.9658237711)
(12420925.2686607,211296.697764047,52642.5736890753)
(12401191.8360853,199894.958259888,89210.7902519406)
(12361521.5948481,180240.117984118,142884.230506642)
(12284886.7520873,149078.28630798,230971.730528447)
(12140496.6400947,103393.665655128,388611.526311624)
(11885974.399532,47978.9649077041,675934.542117983)
(11495760.1118915,20959.0345410914,1144206.83909607)
(10659455.8857264,23200.8125898739,2103705.51651385)
(8247561.80233651,16404.886656895,5136818.94699351)
(0,0,0)
(0,0,0)
(0,0,0)
(0,0,0)
(0,0,0)
(0,0,0)
(12368249.6654564,320401.205275064,19349.3213155915)
(12360242.5447902,315543.324212712,41275.6960888862)
(12340377.4831545,305103.05624721,69576.4824399992)
(12298634.9673783,287534.911659696,111743.413931087)
(12212662.0044956,260577.534374958,185251.51195071)
(12036639.1223638,222847.565063968,333087.266568745)
(11700758.7252495,178361.570765515,648751.735809113)
(11316165.9472033,139419.63771771,1146241.42003168)
(10581058.6001424,101980.058464682,2096642.897479)
(8218976.84772005,55121.9527181574,5120087.13844249)
(0,0,0)
(0,0,0)
(0,0,0)
(0,0,0)
(0,0,0)
(0,0,0)
(12259801.7900649,470367.672850582,14535.4602235271)
(12252337.630508,466376.607747688,30836.0817263506)
(12233413.8724865,457957.261335047,51918.9670392704)
(12192432.4609245,444152.101214761,84689.1767852324)
(12105488.7252538,423228.221918773,147432.220078334)
(11924444.0614706,392771.990756403,288439.316810792)
(11584334.1903836,350607.907981189,609631.649747575)
(11216684.0924734,296581.123959042,1108589.37136313)
(10514305.820055,216056.570126749,2049549.20043709)
(8186231.17051583,114267.270533964,5064709.65681941)
(0,0,0)
(0,0,0)
(0,0,0)
(0,0,0)
(0,0,0)
(0,0,0)
(12058626.5515028,702147.335746878,10563.5740327325)
(12052102.5663226,699095.46581457,22410.0382816103)
(12035334.8240808,692801.397535602,38011.7540838678)
(11998127.1267501,682876.000989849,63617.5169974879)
(11917079.3045539,668078.048380596,116837.102694281)
(11744009.4368826,644965.819212556,246064.053182983)
(11414227.915972,604633.816355146,555349.54538166)
(11082394.4263951,532880.554080246,1027794.62996214)
(10415444.6193345,389279.580070932,1947506.43873008)
(8130351.90427323,208144.485495074,4950195.78501257)
(0,0,0)
(0,0,0)
(0,0,0)
(0,0,0)
(0,0,0)
(0,0,0)
(11656438.2901679,1113559.33835224,7497.06739544719)
(11651278.230688,1111107.91262038,16104.2876294923)
(11637894.3166734,1106126.26224286,27989.4436597722)
(11607814.1106442,1098475.74408467,48696.6071878708)
(11541044.5061293,1087363.12841295,93598.7672316185)
(11394299.6380663,1069392.07850018,205533.93859585)
(11105765.5505984,1027907.30068446,483314.777310465)
(10889163.8176597,899022.474514135,883880.325194983)
(10215885.3580686,688825.57488522,1766089.87084099)
(8000932.16116392,394061.650246307,4741822.18855367)
(0,0,0)
(0,0,0)
(0,0,0)
(0,0,0)
(0,0,0)
(0,0,0)
(10747291.9058274,2058730.14323458,5010.50443282752)
(10743801.6113326,2056383.39135845,11046.5982922335)
(10734828.8357125,2051294.44704741,20165.4524103752)
(10715137.6423563,2042438.16885418,37396.329544825)
(10673350.8784811,2026633.56555735,75406.2447213448)
(10588408.6915828,1995018.79082224,163761.848557956)
(10435187.9876096,1923644.24480775,354138.71696276)
(10219596.6528083,1760942.62867276,673345.791281733)
(9611317.13649816,1473268.37395527,1471008.57449701)
(7607275.61783618,960696.229426658,4347479.51095619)
(0,0,0)
(0,0,0)
(0,0,0)
(0,0,0)
(0,0,0)
(0,0,0)
(8282550.41583302,5093224.17236677,2578.86715740165)
(8280815.98804775,5090769.32504468,5815.01159767742)
(8276395.34442805,5085129.02482226,11030.0799580899)
(8266922.48243547,5074451.53948081,21244.4002929507)
(8247515.43325918,5053627.08600849,43450.7277711921)
(8209367.43999451,5010565.93891558,92037.2888071768)
(8138613.71826257,4918912.02172916,191066.488855251)
(8002979.90736344,4728292.37732741,385213.297726309)
(7607557.7788895,4343616.77375915,958039.031225739)
(6185644.47585842,3386022.74810806,3386429.91034262)
(0,0,0)
(0,0,0)
(0,0,0)
(0,0,0)
(0,0,0)
(0,0,0)
(0,0,0)
(0,0,0)
(0,0,0)
(0,0,0)
(0,0,0)
(0,0,0)
(0,0,0)
(0,0,0)
(0,0,0)
(0,0,0)
(0,0,0)
(0,0,0)
(0,0,0)
(0,0,0)
(0,0,0)
(0,0,0)
(0,0,0)
(0,0,0)
(0,0,0)
(0,0,0)
(0,0,0)
(0,0,0)
(0,0,0)
(0,0,0)
(0,0,0)
(0,0,0)
(0,0,0)
(0,0,0)
(0,0,0)
(0,0,0)
(0,0,0)
(0,0,0)
(0,0,0)
(0,0,0)
(0,0,0)
(0,0,0)
(0,0,0)
(0,0,0)
(0,0,0)
(0,0,0)
(0,0,0)
(0,0,0)
(0,0,0)
(0,0,0)
(0,0,0)
(0,0,0)
(0,0,0)
(0,0,0)
(0,0,0)
(0,0,0)
(0,0,0)
(0,0,0)
(0,0,0)
(0,0,0)
(0,0,0)
(0,0,0)
(0,0,0)
(0,0,0)
(0,0,0)
(0,0,0)
(0,0,0)
(0,0,0)
(0,0,0)
(0,0,0)
(0,0,0)
(0,0,0)
(0,0,0)
(0,0,0)
(0,0,0)
(0,0,0)
(0,0,0)
(0,0,0)
(0,0,0)
(0,0,0)
(0,0,0)
(0,0,0)
(0,0,0)
(0,0,0)
(0,0,0)
(0,0,0)
(0,0,0)
(0,0,0)
(0,0,0)
(0,0,0)
(0,0,0)
(0,0,0)
(0,0,0)
(0,0,0)
(0,0,0)
(0,0,0)
(0,0,0)
(0,0,0)
(0,0,0)
(0,0,0)
(0,0,0)
(0,0,0)
(-217246.26422575,31610.6250699777,26606.0784059276)
(-226235.81818865,29703.3381811279,55965.3871851026)
(-246532.685571566,25501.0245328636,91134.4850651998)
(-283563.75671707,18279.8912318008,135527.006495776)
(-346868.883189047,7309.68107334021,191889.376308247)
(-452489.43132763,-6864.89356737573,257228.899202301)
(-625263.60834408,-19917.0464133459,305053.216983972)
(-898703.651979975,-22624.6676014646,227188.113624611)
(-1290838.26130586,-15562.9264510568,-372389.290469061)
(-1582556.32083275,-7121.22293163855,-3151236.81599257)
(0,0,0)
(0,0,0)
(0,0,0)
(0,0,0)
(0,0,0)
(0,0,0)
(-226656.258101203,66265.9904722763,24708.1477386224)
(-235508.137178957,62689.5054566474,51780.144335748)
(-255614.622837402,54625.0169605648,83954.3273968737)
(-292680.371370299,40281.0570659252,124622.632280448)
(-356950.268580939,17131.0924644413,177736.121439737)
(-465450.38476889,-15811.3576312699,244184.607959376)
(-642278.788995184,-50141.956020733,302285.301478955)
(-913131.915426301,-55940.5837818073,234112.585490736)
(-1298113.65101548,-34788.4397274807,-364146.750889473)
(-1585143.42071454,-14561.1629667216,-3144325.65057265)
(0,0,0)
(0,0,0)
(0,0,0)
(0,0,0)
(0,0,0)
(0,0,0)
(-247808.984516055,106910.957823631,21099.7647288328)
(-256405.690485739,102163.122208771,43739.2665648026)
(-276165.012182021,91320.282322343,69663.7290850971)
(-313571.919008224,71155.5930729922,101568.825889276)
(-381169.531844373,35779.8615959228,144858.403050502)
(-500856.937901919,-22442.8016106512,209845.856886362)
(-699315.721339009,-98151.8440746183,296399.635848768)
(-963088.06704473,-108761.413931533,255115.368270703)
(-1320057.15229932,-55811.1568600385,-344160.243490551)
(-1592174.19910482,-19594.7586064718,-3129980.79928786)
(0,0,0)
(0,0,0)
(0,0,0)
(0,0,0)
(0,0,0)
(0,0,0)
(-285683.052595017,155596.880083311,16349.475607963)
(-293816.158713906,150582.044179293,32891.3285374399)
(-313028.186039863,139111.473829583,49539.5066807582)
(-351190.237119482,117374.648860091,66251.6303866332)
(-426337.020694466,76893.0400436132,86581.5722460342)
(-578841.880800476,-351.092150407137,134047.731206334)
(-876512.488299198,-137067.339701711,285669.462190023)
(-1126489.34274283,-158496.649517772,307873.499936016)
(-1374939.40471884,-55118.9621100278,-308204.056843257)
(-1607238.96208274,-12123.5658612837,-3110655.13764384)
(0,0,0)
(0,0,0)
(0,0,0)
(0,0,0)
(0,0,0)
(0,0,0)
(-349281.490714442,211985.19871444,11362.1850651917)
(-356743.099958433,207705.053981323,21444.1675372266)
(-374924.6313327,198234.671354186,27842.4320251605)
(-413111.711464147,181409.175032652,25773.9322205067)
(-497155.906624213,153470.563798842,9233.66711046429)
(-712237.197383696,110777.324042752,-2799.08180982432)
(-1415112.01889512,62105.3483848626,264118.321773618)
(-1679134.21452066,40044.1425392071,411097.038966024)
(-1482587.58335077,35277.4709499766,-265433.86307528)
(-1631962.71209007,22392.7002560683,-3098791.22185695)
(0,0,0)
(0,0,0)
(0,0,0)
(0,0,0)
(0,0,0)
(0,0,0)
(-454297.570062713,269221.357367748,7082.54899981553)
(-460836.663525927,266230.672094364,11950.5724461252)
(-477138.515297961,259976.889097439,10980.0900128033)
(-512662.49972625,249925.890858515,-2222.31763695802)
(-594369.493602316,234894.443636124,-33568.6310927644)
(-808920.173198175,212436.060225184,-51643.7850810011)
(-1477569.81270761,180606.797742926,241978.116177551)
(-1719614.38635164,162334.943209654,406205.141857626)
(-1532692.67859463,117207.668673279,-278507.209690627)
(-1656622.76403782,58375.2893258645,-3121416.51668121)
(0,0,0)
(0,0,0)
(0,0,0)
(0,0,0)
(0,0,0)
(0,0,0)
(-626049.976015782,300048.453043223,4068.77936856165)
(-631447.111222326,298379.807718508,5688.66881476223)
(-645149.948283797,295495.410906197,874.266895923086)
(-676142.326633771,292686.762628903,-17397.8039651637)
(-751171.387279533,292164.496273333,-56197.8172435449)
(-961227.663179514,295380.067163109,-83685.376593826)
(-1658482.56400561,296292.580577654,223558.668074571)
(-1882145.75267562,339746.213996385,360906.923883921)
(-1608434.32005108,189771.380162857,-337558.500694504)
(-1697320.99702377,78737.4413257401,-3180028.4038721)
(0,0,0)
(0,0,0)
(0,0,0)
(0,0,0)
(0,0,0)
(0,0,0)
(-900294.795874183,204625.163578975,2375.72303168804)
(-904375.361429949,203836.726504005,2791.7438895916)
(-914862.655143594,203270.686887898,-2007.21274969042)
(-939198.871466122,205963.740676207,-18051.8611612957)
(-1001273.49772895,219794.098297153,-53144.1118012549)
(-1193854.72410815,263599.343477271,-82989.6784156579)
(-1954908.36901433,357432.964401654,266763.204898533)
(-1594318.52737447,229554.810774527,210656.300680031)
(-1668893.32718922,84288.7259184996,-448863.012292268)
(-1760369.78543767,395.121963005717,-3258999.39880246)
(0,0,0)
(0,0,0)
(0,0,0)
(0,0,0)
(0,0,0)
(0,0,0)
(-1293810.81917755,-405605.891308633,1553.12741790446)
(-1296483.49422917,-406251.735321622,2146.04233069774)
(-1303235.01525663,-406838.962305238,538.890018359416)
(-1318211.71992781,-405546.843682444,-4381.81581342763)
(-1352396.78390264,-399053.286275363,-9567.42133174011)
(-1433981.64504818,-383906.180403431,10547.7867053492)
(-1612334.44317306,-372846.047358722,138568.576773771)
(-1671447.60268076,-455641.699229556,65028.6897922854)
(-1825582.55614829,-530487.908831691,-533075.635285644)
(-1854601.20748923,-460918.298102104,-3259666.0423697)
(0,0,0)
(0,0,0)
(0,0,0)
(0,0,0)
(0,0,0)
(0,0,0)
(-1584938.75469935,-3188767.50026078,870.127009976399)
(-1586232.17078793,-3189565.83774378,1451.73579320167)
(-1589479.36685146,-3190895.08540489,1601.91769780472)
(-1596405.01846322,-3192215.06558792,1816.9880272648)
(-1611076.4109593,-3193683.60178426,5258.49528006755)
(-1641792.06060272,-3198573.82024811,21304.9832473657)
(-1698623.064753,-3219535.13076301,55450.1971926945)
(-1762134.59063621,-3274616.24108703,-10241.4154248728)
(-1855147.97544273,-3263897.24534629,-463906.977052655)
(-1790343.9896411,-2799519.34563775,-2799098.11649203)
(0,0,0)
(0,0,0)
(0,0,0)
(0,0,0)
(0,0,0)
(0,0,0)
(0,0,0)
(0,0,0)
(0,0,0)
(0,0,0)
(0,0,0)
(0,0,0)
(0,0,0)
(0,0,0)
(0,0,0)
(0,0,0)
(0,0,0)
(0,0,0)
(0,0,0)
(0,0,0)
(0,0,0)
(0,0,0)
(0,0,0)
(0,0,0)
(0,0,0)
(0,0,0)
(0,0,0)
(0,0,0)
(0,0,0)
(0,0,0)
(0,0,0)
(0,0,0)
(0,0,0)
(0,0,0)
(0,0,0)
(0,0,0)
(0,0,0)
(0,0,0)
(0,0,0)
(0,0,0)
(0,0,0)
(0,0,0)
(0,0,0)
(0,0,0)
(0,0,0)
(0,0,0)
(0,0,0)
(0,0,0)
(0,0,0)
(0,0,0)
(0,0,0)
(0,0,0)
(0,0,0)
(0,0,0)
(0,0,0)
(0,0,0)
(0,0,0)
(0,0,0)
(0,0,0)
(0,0,0)
(0,0,0)
(0,0,0)
(0,0,0)
(0,0,0)
(0,0,0)
(0,0,0)
(0,0,0)
(0,0,0)
(0,0,0)
(0,0,0)
(0,0,0)
(0,0,0)
(0,0,0)
(0,0,0)
(0,0,0)
(0,0,0)
(0,0,0)
(0,0,0)
(0,0,0)
(0,0,0)
(0,0,0)
(0,0,0)
(0,0,0)
(0,0,0)
(0,0,0)
(0,0,0)
(0,0,0)
(0,0,0)
(0,0,0)
(0,0,0)
(0,0,0)
(0,0,0)
(0,0,0)
(0,0,0)
(0,0,0)
(0,0,0)
(0,0,0)
(0,0,0)
(0,0,0)
(0,0,0)
(0,0,0)
(0,0,0)
(-256991.215448446,22098.0699026711,17646.8813200253)
(-264607.059652881,20347.7960214112,35670.3267628489)
(-281368.620899745,16365.047937866,54141.2141531632)
(-310711.86156582,9114.81767788499,72174.5013240252)
(-358052.674907154,-2813.36678866473,86171.6598307983)
(-430820.372666461,-19845.8678329791,84348.4690026109)
(-535448.445533384,-36929.2537820134,31462.5599739302)
(-665193.016230582,-37005.8888995338,-165042.186875936)
(-768978.761137343,-22766.8124486171,-664134.874595809)
(-668316.8958587,-9649.62569477475,-1568724.67387506)
(0,0,0)
(0,0,0)
(0,0,0)
(0,0,0)
(0,0,0)
(0,0,0)
(-265498.021726461,45056.7091659367,15883.1243619906)
(-272707.903152685,41774.0180765715,31656.6682805593)
(-288561.786072109,34075.9993495668,46892.8801035688)
(-316350.424743061,19380.5082257866,60297.2429284253)
(-361538.546901438,-7081.00713123935,69153.1615915015)
(-432225.743968362,-51184.0183828263,67266.6713408289)
(-536188.956679171,-107123.94775696,31371.532999769)
(-662041.428149953,-105835.038186429,-150889.80498968)
(-763915.285270675,-56678.803502131,-651176.179680968)
(-665200.981964457,-21558.6491049518,-1559209.59502093)
(0,0,0)
(0,0,0)
(0,0,0)
(0,0,0)
(0,0,0)
(0,0,0)
(-284296.194751043,68995.3251236402,12548.5942772888)
(-290721.163173425,64684.5559281041,23953.5291134381)
(-304758.318005069,54404.0766180523,32218.7576680003)
(-329354.345138327,33469.987446845,33911.7045770483)
(-370038.70195107,-9405.34097535751,25105.2085278625)
(-437857.694497774,-100389.931396171,11311.8781370499)
(-552434.46251339,-275297.388231206,32604.0597856782)
(-662336.273170632,-272135.137306373,-101847.634968486)
(-751625.731705218,-110678.629546006,-616279.229518699)
(-657588.590303345,-34629.8571370998,-1537793.63028803)
(0,0,0)
(0,0,0)
(0,0,0)
(0,0,0)
(0,0,0)
(0,0,0)
(-316850.659470041,91915.5868575128,8247.34514115892)
(-322105.825495522,87562.4964935824,13659.0713573017)
(-333446.105789392,77153.5066146948,11327.56111019)
(-352851.495623886,55382.5766699381,-8923.76960850021)
(-384758.251012017,6043.42813778796,-65951.3084040922)
(-447774.121490902,-133717.795525765,-163691.203584074)
(-675609.705425578,-675552.696830312,35661.3221414047)
(-711346.595563157,-711050.65211745,59434.0897728071)
(-722983.056887418,-162709.67858392,-540491.209020703)
(-642191.087637491,-36786.2620101988,-1503382.67859288)
(0,0,0)
(0,0,0)
(0,0,0)
(0,0,0)
(0,0,0)
(0,0,0)
(-368342.334500676,107031.883520763,3944.54712298152)
(-372218.594715732,103673.048472763,3309.48990109936)
(-380191.853497662,96068.0084286527,-10337.789747895)
(-391665.995938801,81872.695500031,-58273.6241033309)
(-399808.717896104,56292.1093801634,-205869.494073818)
(-360354.847313109,14244.5943310995,-705714.234001279)
(-8.53062348246102e-05,-2.57481285764948e-05,5.77725192620648e-05)