/*--------------------------------*- C++ -*----------------------------------*\
| =========                 |                                                 |
| \\      /  F ield         | foam-extend: Open Source CFD                    |
|  \\    /   O peration     | Version:     4.0                                |
|   \\  /    A nd           | Web:         http://www.foam-extend.org         |
|    \\/     M anipulation  |                                                 |
\*---------------------------------------------------------------------------*/
FoamFile
{
    version 2.0;
    format ascii;
    class volVectorField;
    location "3880";
    object      E;
}
// * * * * * * * * * * * * * * * * * * * * * * * * * * * * * * * * * * * * * //

dimensions      [0 1 -1 0 0 0 0];

internalField   nonuniform List<vector>
4096
(
(0,0,0)
(0,0,0)
(0,0,0)
(0,0,0)
(0,0,0)
(0,0,0)
(0,0,0)
(0,0,0)
(0,0,0)
(0,0,0)
(0,0,0)
(0,0,0)
(0,0,0)
(0,0,0)
(0,0,0)
(0,0,0)
(0,0,0)
(0,0,0)
(0,0,0)
(0,0,0)
(0,0,0)
(0,0,0)
(0,0,0)
(0,0,0)
(0,0,0)
(0,0,0)
(0,0,0)
(0,0,0)
(0,0,0)
(0,0,0)
(0,0,0)
(0,0,0)
(0,0,0)
(0,0,0)
(0,0,0)
(0,0,0)
(0,0,0)
(0,0,0)
(0,0,0)
(0,0,0)
(0,0,0)
(0,0,0)
(0,0,0)
(0,0,0)
(0,0,0)
(0,0,0)
(0,0,0)
(0,0,0)
(0,0,0)
(0,0,0)
(0,0,0)
(0,0,0)
(0,0,0)
(0,0,0)
(0,0,0)
(0,0,0)
(0,0,0)
(0,0,0)
(0,0,0)
(0,0,0)
(0,0,0)
(0,0,0)
(0,0,0)
(0,0,0)
(0,0,0)
(0,0,0)
(0,0,0)
(0,0,0)
(0,0,0)
(0,0,0)
(0,0,0)
(0,0,0)
(0,0,0)
(0,0,0)
(0,0,0)
(0,0,0)
(0,0,0)
(0,0,0)
(0,0,0)
(0,0,0)
(0,0,0)
(0,0,0)
(0,0,0)
(0,0,0)
(0,0,0)
(0,0,0)
(0,0,0)
(0,0,0)
(0,0,0)
(0,0,0)
(0,0,0)
(0,0,0)
(0,0,0)
(0,0,0)
(0,0,0)
(0,0,0)
(0,0,0)
(0,0,0)
(0,0,0)
(0,0,0)
(0,0,0)
(0,0,0)
(0,0,0)
(0,0,0)
(0,0,0)
(0,0,0)
(0,0,0)
(0,0,0)
(0,0,0)
(0,0,0)
(0,0,0)
(0,0,0)
(0,0,0)
(0,0,0)
(0,0,0)
(0,0,0)
(0,0,0)
(0,0,0)
(0,0,0)
(0,0,0)
(0,0,0)
(0,0,0)
(0,0,0)
(0,0,0)
(0,0,0)
(0,0,0)
(0,0,0)
(0,0,0)
(0,0,0)
(0,0,0)
(0,0,0)
(0,0,0)
(0,0,0)
(0,0,0)
(0,0,0)
(0,0,0)
(0,0,0)
(0,0,0)
(0,0,0)
(0,0,0)
(0,0,0)
(0,0,0)
(0,0,0)
(0,0,0)
(0,0,0)
(0,0,0)
(0,0,0)
(0,0,0)
(0,0,0)
(0,0,0)
(0,0,0)
(0,0,0)
(0,0,0)
(0,0,0)
(0,0,0)
(0,0,0)
(0,0,0)
(0,0,0)
(0,0,0)
(0,0,0)
(0,0,0)
(0,0,0)
(0,0,0)
(0,0,0)
(0,0,0)
(0,0,0)
(0,0,0)
(0,0,0)
(0,0,0)
(0,0,0)
(0,0,0)
(0,0,0)
(0,0,0)
(0,0,0)
(0,0,0)
(0,0,0)
(0,0,0)
(0,0,0)
(0,0,0)
(0,0,0)
(0,0,0)
(0,0,0)
(0,0,0)
(0,0,0)
(0,0,0)
(0,0,0)
(0,0,0)
(0,0,0)
(0,0,0)
(0,0,0)
(0,0,0)
(0,0,0)
(0,0,0)
(0,0,0)
(0,0,0)
(0,0,0)
(0,0,0)
(0,0,0)
(0,0,0)
(0,0,0)
(0,0,0)
(0,0,0)
(0,0,0)
(0,0,0)
(0,0,0)
(0,0,0)
(0,0,0)
(0,0,0)
(0,0,0)
(0,0,0)
(0,0,0)
(0,0,0)
(0,0,0)
(0,0,0)
(0,0,0)
(0,0,0)
(0,0,0)
(0,0,0)
(0,0,0)
(0,0,0)
(0,0,0)
(0,0,0)
(0,0,0)
(0,0,0)
(0,0,0)
(0,0,0)
(0,0,0)
(0,0,0)
(0,0,0)
(0,0,0)
(0,0,0)
(0,0,0)
(0,0,0)
(0,0,0)
(0,0,0)
(0,0,0)
(0,0,0)
(0,0,0)
(0,0,0)
(0,0,0)
(0,0,0)
(0,0,0)
(0,0,0)
(0,0,0)
(0,0,0)
(0,0,0)
(0,0,0)
(0,0,0)
(0,0,0)
(0,0,0)
(0,0,0)
(0,0,0)
(0,0,0)
(0,0,0)
(0,0,0)
(0,0,0)
(0,0,0)
(0,0,0)
(0,0,0)
(0,0,0)
(0,0,0)
(0,0,0)
(0,0,0)
(0,0,0)
(0,0,0)
(0,0,0)
(0,0,0)
(0,0,0)
(0,0,0)
(0,0,0)
(0,0,0)
(0,0,0)
(0,0,0)
(0,0,0)
(0,0,0)
(0,0,0)
(0,0,0)
(0,0,0)
(0,0,0)
(0,0,0)
(0,0,0)
(0,0,0)
(0,0,0)
(0,0,0)
(0,0,0)
(0,0,0)
(0,0,0)
(0,0,0)
(0,0,0)
(0,0,0)
(0,0,0)
(0,0,0)
(0,0,0)
(0,0,0)
(0,0,0)
(0,0,0)
(0,0,0)
(0,0,0)
(0,0,0)
(0,0,0)
(0,0,0)
(0,0,0)
(0,0,0)
(0,0,0)
(0,0,0)
(0,0,0)
(0,0,0)
(0,0,0)
(0,0,0)
(0,0,0)
(0,0,0)
(0,0,0)
(0,0,0)
(0,0,0)
(0,0,0)
(0,0,0)
(0,0,0)
(0,0,0)
(0,0,0)
(0,0,0)
(0,0,0)
(0,0,0)
(0,0,0)
(0,0,0)
(0,0,0)
(0,0,0)
(0,0,0)
(0,0,0)
(0,0,0)
(0,0,0)
(0,0,0)
(0,0,0)
(0,0,0)
(0,0,0)
(0,0,0)
(0,0,0)
(0,0,0)
(0,0,0)
(0,0,0)
(0,0,0)
(0,0,0)
(0,0,0)
(0,0,0)
(0,0,0)
(0,0,0)
(0,0,0)
(0,0,0)
(0,0,0)
(0,0,0)
(0,0,0)
(0,0,0)
(0,0,0)
(0,0,0)
(0,0,0)
(0,0,0)
(0,0,0)
(0,0,0)
(0,0,0)
(0,0,0)
(0,0,0)
(0,0,0)
(0,0,0)
(0,0,0)
(0,0,0)
(0,0,0)
(0,0,0)
(0,0,0)
(0,0,0)
(0,0,0)
(0,0,0)
(0,0,0)
(0,0,0)
(0,0,0)
(0,0,0)
(0,0,0)
(0,0,0)
(0,0,0)
(0,0,0)
(0,0,0)
(0,0,0)
(0,0,0)
(0,0,0)
(0,0,0)
(0,0,0)
(0,0,0)
(0,0,0)
(0,0,0)
(0,0,0)
(0,0,0)
(0,0,0)
(0,0,0)
(0,0,0)
(0,0,0)
(0,0,0)
(0,0,0)
(0,0,0)
(0,0,0)
(0,0,0)
(0,0,0)
(0,0,0)
(0,0,0)
(0,0,0)
(0,0,0)
(0,0,0)
(0,0,0)
(0,0,0)
(0,0,0)
(0,0,0)
(0,0,0)
(0,0,0)
(0,0,0)
(0,0,0)
(0,0,0)
(0,0,0)
(0,0,0)
(0,0,0)
(0,0,0)
(0,0,0)
(0,0,0)
(0,0,0)
(0,0,0)
(0,0,0)
(0,0,0)
(0,0,0)
(0,0,0)
(0,0,0)
(0,0,0)
(0,0,0)
(0,0,0)
(0,0,0)
(0,0,0)
(0,0,0)
(0,0,0)
(0,0,0)
(0,0,0)
(0,0,0)
(0,0,0)
(0,0,0)
(0,0,0)
(0,0,0)
(0,0,0)
(0,0,0)
(0,0,0)
(0,0,0)
(0,0,0)
(0,0,0)
(0,0,0)
(0,0,0)
(0,0,0)
(0,0,0)
(0,0,0)
(0,0,0)
(0,0,0)
(0,0,0)
(0,0,0)
(0,0,0)
(0,0,0)
(0,0,0)
(0,0,0)
(0,0,0)
(0,0,0)
(0,0,0)
(0,0,0)
(0,0,0)
(0,0,0)
(0,0,0)
(0,0,0)
(0,0,0)
(0,0,0)
(0,0,0)
(0,0,0)
(0,0,0)
(0,0,0)
(0,0,0)
(0,0,0)
(0,0,0)
(0,0,0)
(0,0,0)
(0,0,0)
(0,0,0)
(0,0,0)
(0,0,0)
(0,0,0)
(0,0,0)
(0,0,0)
(0,0,0)
(0,0,0)
(0,0,0)
(0,0,0)
(0,0,0)
(0,0,0)
(0,0,0)
(0,0,0)
(0,0,0)
(0,0,0)
(0,0,0)
(0,0,0)
(0,0,0)
(0,0,0)
(0,0,0)
(0,0,0)
(0,0,0)
(0,0,0)
(0,0,0)
(0,0,0)
(0,0,0)
(0,0,0)
(0,0,0)
(0,0,0)
(0,0,0)
(0,0,0)
(0,0,0)
(0,0,0)
(0,0,0)
(0,0,0)
(0,0,0)
(0,0,0)
(0,0,0)
(0,0,0)
(0,0,0)
(0,0,0)
(0,0,0)
(0,0,0)
(0,0,0)
(0,0,0)
(0,0,0)
(0,0,0)
(0,0,0)
(0,0,0)
(0,0,0)
(0,0,0)
(0,0,0)
(0,0,0)
(0,0,0)
(0,0,0)
(0,0,0)
(0,0,0)
(0,0,0)
(0,0,0)
(0,0,0)
(0,0,0)
(0,0,0)
(0,0,0)
(0,0,0)
(0,0,0)
(0,0,0)
(0,0,0)
(0,0,0)
(0,0,0)
(0,0,0)
(0,0,0)
(0,0,0)
(0,0,0)
(0,0,0)
(0,0,0)
(0,0,0)
(0,0,0)
(0,0,0)
(0,0,0)
(0,0,0)
(0,0,0)
(0,0,0)
(0,0,0)
(0,0,0)
(0,0,0)
(0,0,0)
(0,0,0)
(0,0,0)
(0,0,0)
(0,0,0)
(0,0,0)
(0,0,0)
(0,0,0)
(0,0,0)
(0,0,0)
(0,0,0)
(0,0,0)
(0,0,0)
(0,0,0)
(0,0,0)
(0,0,0)
(0,0,0)
(0,0,0)
(0,0,0)
(0,0,0)
(0,0,0)
(0,0,0)
(0,0,0)
(0,0,0)
(0,0,0)
(0,0,0)
(0,0,0)
(0,0,0)
(0,0,0)
(0,0,0)
(0,0,0)
(0,0,0)
(0,0,0)
(0,0,0)
(0,0,0)
(0,0,0)
(0,0,0)
(0,0,0)
(0,0,0)
(0,0,0)
(0,0,0)
(0,0,0)
(0,0,0)
(0,0,0)
(0,0,0)
(0,0,0)
(0,0,0)
(0,0,0)
(0,0,0)
(0,0,0)
(0,0,0)
(0,0,0)
(0,0,0)
(0,0,0)
(0,0,0)
(0,0,0)
(0,0,0)
(0,0,0)
(0,0,0)
(0,0,0)
(0,0,0)
(0,0,0)
(0,0,0)
(0,0,0)
(0,0,0)
(0,0,0)
(0,0,0)
(0,0,0)
(0,0,0)
(0,0,0)
(0,0,0)
(0,0,0)
(0,0,0)
(0,0,0)
(0,0,0)
(0,0,0)
(0,0,0)
(0,0,0)
(0,0,0)
(0,0,0)
(0,0,0)
(0,0,0)
(0,0,0)
(0,0,0)
(0,0,0)
(0,0,0)
(0,0,0)
(0,0,0)
(0,0,0)
(0,0,0)
(0,0,0)
(0,0,0)
(0,0,0)
(0,0,0)
(0,0,0)
(0,0,0)
(0,0,0)
(0,0,0)
(0,0,0)
(0,0,0)
(0,0,0)
(0,0,0)
(0,0,0)
(0,0,0)
(0,0,0)
(0,0,0)
(0,0,0)
(0,0,0)
(0,0,0)
(0,0,0)
(0,0,0)
(0,0,0)
(0,0,0)
(0,0,0)
(0,0,0)
(0,0,0)
(0,0,0)
(0,0,0)
(0,0,0)
(0,0,0)
(0,0,0)
(0,0,0)
(0,0,0)
(0,0,0)
(0,0,0)
(0,0,0)
(0,0,0)
(0,0,0)
(0,0,0)
(0,0,0)
(0,0,0)
(0,0,0)
(0,0,0)
(0,0,0)
(0,0,0)
(0,0,0)
(0,0,0)
(0,0,0)
(0,0,0)
(0,0,0)
(0,0,0)
(0,0,0)
(0,0,0)
(0,0,0)
(0,0,0)
(0,0,0)
(0,0,0)
(0,0,0)
(0,0,0)
(0,0,0)
(0,0,0)
(0,0,0)
(0,0,0)
(0,0,0)
(0,0,0)
(0,0,0)
(0,0,0)
(0,0,0)
(0,0,0)
(0,0,0)
(0,0,0)
(0,0,0)
(0,0,0)
(0,0,0)
(0,0,0)
(0,0,0)
(0,0,0)
(0,0,0)
(0,0,0)
(0,0,0)
(0,0,0)
(0,0,0)
(0,0,0)
(0,0,0)
(0,0,0)
(0,0,0)
(0,0,0)
(0,0,0)
(0,0,0)
(0,0,0)
(0,0,0)
(0,0,0)
(0,0,0)
(0,0,0)
(0,0,0)
(0,0,0)
(0,0,0)
(0,0,0)
(0,0,0)
(0,0,0)
(0,0,0)
(0,0,0)
(0,0,0)
(0,0,0)
(0,0,0)
(0,0,0)
(0,0,0)
(0,0,0)
(0,0,0)
(0,0,0)
(0,0,0)
(0,0,0)
(0,0,0)
(0,0,0)
(0,0,0)
(0,0,0)
(0,0,0)
(0,0,0)
(0,0,0)
(0,0,0)
(0,0,0)
(0,0,0)
(0,0,0)
(0,0,0)
(0,0,0)
(0,0,0)
(0,0,0)
(0,0,0)
(0,0,0)
(0,0,0)
(0,0,0)
(0,0,0)
(0,0,0)
(0,0,0)
(0,0,0)
(0,0,0)
(0,0,0)
(0,0,0)
(0,0,0)
(0,0,0)
(0,0,0)
(0,0,0)
(0,0,0)
(0,0,0)
(0,0,0)
(0,0,0)
(0,0,0)
(0,0,0)
(0,0,0)
(0,0,0)
(0,0,0)
(0,0,0)
(0,0,0)
(0,0,0)
(0,0,0)
(0,0,0)
(0,0,0)
(0,0,0)
(0,0,0)
(0,0,0)
(0,0,0)
(0,0,0)
(0,0,0)
(0,0,0)
(-119639.858913011,63786.2849927612,55853.5739202483)
(-126495.705204996,61146.5401112355,121202.739014007)
(-142448.86681404,55610.6764152969,208040.929412745)
(-172637.246764909,47004.9530396603,333673.223138007)
(-227056.969505596,35430.7870218286,525299.405621769)
(-324692.545634727,22085.6308289062,827906.320427596)
(-501499.275841251,9946.08084953015,1319459.51541935)
(-820993.554536388,2502.96482907941,2137950.10512666)
(-1354053.61584551,-6.51143827781004,3492010.23241042)
(-1886596.12849537,-212.752579780422,5378819.11348562)
(0,0,0)
(0,0,0)
(0,0,0)
(0,0,0)
(0,0,0)
(0,0,0)
(-126462.44297473,136977.667417376,53271.0605501144)
(-133425.048414358,132032.931996654,115809.717079054)
(-149672.865879774,121544.28591467,199548.973459454)
(-180565.680169734,104924.181870116,322195.424798732)
(-236491.809298733,82049.1459676905,512068.8751516)
(-336492.647034914,54802.8449691469,815844.308046264)
(-515251.797213132,28975.5164625388,1312066.66964637)
(-833526.013741108,12613.9862512146,2135481.6619653)
(-1362425.80426993,6129.90412979727,3491771.05066724)
(-1890504.99789953,3102.7631592883,5378960.53282755)
(0,0,0)
(0,0,0)
(0,0,0)
(0,0,0)
(0,0,0)
(0,0,0)
(-142221.020790947,230864.297350451,48334.3908578714)
(-149321.105305679,224236.483812149,105451.944348059)
(-166096.405247407,210054.391654221,183038.243855922)
(-198524.357295249,187126.143226854,299360.639794433)
(-258016.002207255,154517.130457714,484908.657511652)
(-364234.702574292,113777.722604624,790168.482450474)
(-549157.676164504,72471.1957700951,1295830.47930744)
(-864744.747337849,44082.5266848385,2129106.68621163)
(-1382531.41624176,29020.0458473728,3488747.96073583)
(-1899597.89126463,15703.2897451124,5375745.32541471)
(0,0,0)
(0,0,0)
(0,0,0)
(0,0,0)
(0,0,0)
(0,0,0)
(-171668.251255248,360831.981607352,41700.5669983473)
(-178873.329547958,353418.443839332,91391.9365191268)
(-196270.92533708,337534.498765666,160182.754744753)
(-230938.812035981,311521.594983157,266726.115024417)
(-296334.121824398,273458.890558425,444118.476748123)
(-414452.282679619,223461.561625592,748886.920406768)
(-614043.437047685,167893.994481972,1267507.55874254)
(-925102.821862692,122500.280740318,2114192.62654974)
(-1419358.92184572,87047.539512016,3475524.05473075)
(-1915671.85199369,46856.2227618001,5360042.973708)
(0,0,0)
(0,0,0)
(0,0,0)
(0,0,0)
(0,0,0)
(0,0,0)
(-224479.369233458,550952.754092042,34358.5967487598)
(-231628.324845987,543719.141641615,75686.2237924555)
(-249339.567435833,528278.263443645,134282.026550314)
(-285879.460574654,502958.13039819,228724.951709941)
(-357350.86464379,465429.917053675,394104.789858469)
(-490187.909040468,414431.123299996,693323.137224524)
(-712828.903691186,351889.25989897,1222156.77549873)
(-1016944.8397001,282708.386538127,2078893.509401)
(-1472823.68256658,203258.795397844,3435505.93608187)
(-1938877.70941882,107786.924750336,5313452.94351218)
(0,0,0)
(0,0,0)
(0,0,0)
(0,0,0)
(0,0,0)
(0,0,0)
(-319727.647238038,843517.183025291,27163.2183047946)
(-326521.676421343,837056.724815041,60347.3115527085)
(-343652.870405214,823299.260676033,108979.184725538)
(-379809.515715889,800512.073614488,191234.757225119)
(-452003.025751827,765535.596320481,343132.103710161)
(-587355.621806823,714055.193491216,630863.655325765)
(-810688.094025286,640332.890550721,1153108.11869931)
(-1100997.02974506,537185.04974163,1999628.4852409)
(-1530752.13791937,393388.971211921,3340250.44734617)
(-1968065.54845874,210057.141212825,5206045.7793424)
(0,0,0)
(0,0,0)
(0,0,0)
(0,0,0)
(0,0,0)
(0,0,0)
(-494496.953735928,1317272.28863886,20741.848122362)
(-500537.034507503,1311655.49974733,46680.1076975954)
(-515918.534773797,1299664.15378099,86233.749366433)
(-548921.559352612,1279279.11636362,156388.265969907)
(-615962.126638917,1246116.23851194,291769.750417369)
(-743129.004186045,1191674.51337195,557279.434722699)
(-952725.862987273,1100179.35911361,1050158.82914709)
(-1216703.12349886,947959.602481441,1856087.39990612)
(-1617086.04495345,709360.085773217,3157202.3302983)
(-2015675.9520353,386550.706837248,4996384.71670921)
(0,0,0)
(0,0,0)
(0,0,0)
(0,0,0)
(0,0,0)
(0,0,0)
(-814132.299594983,2116191.04209556,15213.5461382644)
(-818981.573345242,2111084.43709066,34766.1821401734)
(-831388.309333871,2099912.13858814,65906.5066669002)
(-858235.520559291,2080036.11221364,123385.031376144)
(-913320.423070469,2045297.94397271,237523.748985846)
(-1019006.78085197,1982221.42430356,465983.618906183)
(-1194506.4924194,1862555.26961366,898114.200825486)
(-1408234.6398111,1636608.81167486,1617699.63144321)
(-1773896.49860842,1266245.77812282,2834710.43770203)
(-2106793.28717634,717773.253336346,4610281.17837923)
(0,0,0)
(0,0,0)
(0,0,0)
(0,0,0)
(0,0,0)
(0,0,0)
(-1349377.56134025,3455350.62120898,10217.9822268216)
(-1352666.99198534,3450229.67853008,23739.7327727177)
(-1361084.64876527,3438597.34825205,46139.1718740447)
(-1379161.24739162,3416547.49408021,88789.0373990782)
(-1415563.88176544,3374994.49686881,174656.366268457)
(-1483947.60730326,3294366.28951483,346459.108360455)
(-1598808.62180264,3135571.61465005,672251.385126724)
(-1769522.94820735,2830933.87361766,1247449.27139128)
(-2063122.36289519,2290357.93740186,2286459.4750073)
(-2265717.94630564,1377109.61611606,3892841.05853319)
(0,0,0)
(0,0,0)
(0,0,0)
(0,0,0)
(0,0,0)
(0,0,0)
(-1884448.90778521,5334587.7328598,5211.79613438322)
(-1886092.38035719,5329285.98261879,12247.8724028333)
(-1890277.72497916,5316916.67033607,24206.2752979739)
(-1899167.3601644,5292540.33527743,47380.7942651924)
(-1916776.05619445,5244940.11619512,94211.2311333692)
(-1949704.78673137,5150579.36752268,187702.939856845)
(-2007190.80261483,4962951.78552591,367513.571595819)
(-2104078.00571883,4595700.91284773,706824.538084536)
(-2265186.90128653,3889080.09702921,1373289.27974363)
(-2281284.69130932,2515842.8837525,2515840.7034166)
(0,0,0)
(0,0,0)
(0,0,0)
(0,0,0)
(0,0,0)
(0,0,0)
(0,0,0)
(0,0,0)
(0,0,0)
(0,0,0)
(0,0,0)
(0,0,0)
(0,0,0)
(0,0,0)
(0,0,0)
(0,0,0)
(0,0,0)
(0,0,0)
(0,0,0)
(0,0,0)
(0,0,0)
(0,0,0)
(0,0,0)
(0,0,0)
(0,0,0)
(0,0,0)
(0,0,0)
(0,0,0)
(0,0,0)
(0,0,0)
(0,0,0)
(0,0,0)
(0,0,0)
(0,0,0)
(0,0,0)
(0,0,0)
(0,0,0)
(0,0,0)
(0,0,0)
(0,0,0)
(0,0,0)
(0,0,0)
(0,0,0)
(0,0,0)
(0,0,0)
(0,0,0)
(0,0,0)
(0,0,0)
(0,0,0)
(0,0,0)
(0,0,0)
(0,0,0)
(0,0,0)
(0,0,0)
(0,0,0)
(0,0,0)
(0,0,0)
(0,0,0)
(0,0,0)
(0,0,0)
(0,0,0)
(0,0,0)
(0,0,0)
(0,0,0)
(0,0,0)
(0,0,0)
(0,0,0)
(0,0,0)
(0,0,0)
(0,0,0)
(0,0,0)
(0,0,0)
(0,0,0)
(0,0,0)
(0,0,0)
(0,0,0)
(0,0,0)
(0,0,0)
(0,0,0)
(0,0,0)
(0,0,0)
(0,0,0)
(0,0,0)
(0,0,0)
(0,0,0)
(0,0,0)
(0,0,0)
(0,0,0)
(0,0,0)
(0,0,0)
(0,0,0)
(0,0,0)
(0,0,0)
(0,0,0)
(0,0,0)
(0,0,0)
(0,0,0)
(0,0,0)
(0,0,0)
(0,0,0)
(0,0,0)
(0,0,0)
(17693127.5356619,56850.5362714727,48940.6562245763)
(17681604.6413976,54145.321865054,105253.57482802)
(17655074.5304769,48376.2762937585,177912.488314155)
(17605459.7714185,39071.1153276808,279302.941873975)
(17517118.5437718,25984.9910892328,427701.024578321)
(17360073.1918583,10307.5517496795,651186.322406407)
(17072004.1148002,-3767.1533162126,1000008.67215195)
(16502773.9450523,-10014.6812375953,1604814.44087176)
(15218360.2035027,-8332.18203936221,2959291.39063386)
(11730189.3475678,-4096.58026254083,7265161.08190444)
(0,0,0)
(0,0,0)
(0,0,0)
(0,0,0)
(0,0,0)
(0,0,0)
(17681470.6712652,121173.750807044,46302.2582955036)
(17669881.3484159,116086.948304224,99612.8220970598)
(17643073.9923432,105100.98639984,168699.84083897)
(17592519.5634083,86950.6361865043,266293.663473161)
(17501754.9127178,60497.3867257115,412093.132891205)
(17340263.1566723,27064.5675812539,637138.900423402)
(17047758.320095,-4884.63336278893,993804.850232875)
(16480886.5307776,-18580.2158797115,1606516.42742725)
(15204753.1557608,-13940.5544581376,2963504.42688595)
(11724252.7107997,-5982.72275265992,7269191.44774761)
(0,0,0)
(0,0,0)
(0,0,0)
(0,0,0)
(0,0,0)
(0,0,0)
(17654821.4857118,201422.11445318,41267.7169219265)
(17643184.0904667,194646.430266599,88761.6262580464)
(17615833.5624792,179826.36789311,150664.864109227)
(17563067.3311579,154673.956618602,239908.442295036)
(17466029.0256096,116176.924104842,378742.464170012)
(17291294.3915069,63539.0548374034,605297.469903782)
(16982013.8509696,7568.82320743904,980231.073270369)
(16420524.5253223,-16293.7526527877,1611233.92445435)
(15169638.2648082,-7791.30724955534,2971473.58326652)
(11709698.6610705,-344.744729152228,7275097.63997882)
(0,0,0)
(0,0,0)
(0,0,0)
(0,0,0)
(0,0,0)
(0,0,0)
(17605739.5568494,308051.92503891,34520.9683805306)
(17594138.7897054,300660.246367339,74053.6200973997)
(17566148.557789,284443.12784444,125575.96409086)
(17509923.2913786,256555.844240203,201390.560125612)
(17401309.5400326,212416.832386864,326065.577057619)
(17196671.5260831,147670.769494315,549368.640708967)
(16835960.4842568,69010.6167245672,956481.512958297)
(16283220.1483629,30541.1024344243,1619882.27471653)
(15098724.1670859,33514.3969996446,2979052.06860669)
(11682442.1449245,23621.3641028842,7275530.54992745)
(0,0,0)
(0,0,0)
(0,0,0)
(0,0,0)
(0,0,0)
(0,0,0)
(17519268.5120306,455685.159687421,27177.4711584309)
(17507967.7238675,448817.74714486,57982.5087383221)
(17479876.4131242,433968.944395365,97799.2986984917)
(17420726.6259634,409001.345989986,157306.297481459)
(17298884.8375654,370726.517417243,261319.497312949)
(17049414.762254,317200.01567009,470746.166913721)
(16573408.3509821,253966.556291178,918111.559744865)
(16028701.3280731,198558.07286928,1623007.00860789)
(14987656.7111573,145241.378871263,2969358.2200832)
(11641964.9346897,78523.7608899848,7252171.76625844)
(0,0,0)
(0,0,0)
(0,0,0)
(0,0,0)
(0,0,0)
(0,0,0)
(17365521.7503954,668664.806707729,20329.5424170325)
(17354983.8110544,662991.592007258,43208.7971497881)
(17328241.0110279,650995.950464259,72846.4967187219)
(17270211.9192236,631327.204366087,119057.790474121)
(17147013.1346277,601497.180942098,207829.55364061)
(16890429.5286817,558185.450576968,407617.55531602)
(16408398.1579642,498187.537629899,862868.909058855)
(15887733.702968,421379.07971281,1569875.75657322)
(14893103.2190436,306958.747197911,2902861.61835474)
(11595581.470648,162347.746737824,7173949.20047094)
(0,0,0)
(0,0,0)
(0,0,0)
(0,0,0)
(0,0,0)
(0,0,0)
(17080475.0069257,997549.282247798,14702.1508692281)
(17071271.0024168,993147.850550384,31296.4424728352)
(17047579.4683372,984142.881744429,53210.0951526435)
(16994942.3438251,969911.256312235,89320.7270996278)
(16880100.1389288,948699.115167122,164615.114377854)
(16634775.5610328,915715.215852297,347739.370954562)
(16167281.8633101,858284.261766297,786193.507591559)
(15697413.3597787,756350.871397265,1455663.81970048)
(14753072.2143885,552495.211252193,2758527.68337493)
(11516432.5377864,295386.333792061,7011939.19357)
(0,0,0)
(0,0,0)
(0,0,0)
(0,0,0)
(0,0,0)
(0,0,0)
(16510741.7634788,1580860.05172671,10373.7545183607)
(16503448.7967153,1577296.7430843,22353.0789947686)
(16484555.0646482,1570088.87996694,39022.2938610619)
(16442034.6882399,1558985.30793058,68236.6205144128)
(16347435.117131,1542949.57151277,131789.211038181)
(16139393.6288493,1517194.27440714,290468.329853143)
(15730276.3130844,1458163.25241524,684365.12077129)
(15423847.3510781,1275215.69109206,1251976.89725797)
(14470481.9554797,976940.595782755,2501711.64571021)
(11333135.2570211,558804.754648897,6716923.2677269)
(0,0,0)
(0,0,0)
(0,0,0)
(0,0,0)
(0,0,0)
(0,0,0)
(15223022.5091941,2920132.26736775,6886.30089560257)
(15218103.8564256,2916688.90513527,15281.8775045675)
(15205488.1028848,2909310.5022847,28046.0906076238)
(15177657.6692652,2896428.12063061,52342.9483216769)
(15118442.0224375,2873633.09157272,106212.111129609)
(14998017.1028499,2828464.99870616,231535.263748508)
(14780868.6809422,2727091.1705459,501488.629944035)
(14475709.6102956,2496240.41400523,953789.93559892)
(13614221.9086498,2088165.49982962,2083779.34707805)
(10775524.2082438,1361477.10299711,6158423.43125133)
(0,0,0)
(0,0,0)
(0,0,0)
(0,0,0)
(0,0,0)
(0,0,0)
(11731915.6903758,7218790.01263891,3536.24363867391)
(11729486.990896,7215168.41066903,8035.95392248599)
(11723305.5358526,7207002.99784458,15318.7846018323)
(11709923.0707188,7191483.32043869,29731.7409816391)
(11682411.3090818,7161497.02765509,61239.0266940286)
(11628310.6961492,7100072.01726699,130175.112323679)
(11528081.05155,6969974.61403484,270578.401740788)
(11336057.0984972,6699580.36903127,545661.929569814)
(10775987.2964571,6154080.75339736,1357131.06532945)
(8761835.12857162,4797014.55442528,4797032.38109129)
(0,0,0)
(0,0,0)
(0,0,0)
(0,0,0)
(0,0,0)
(0,0,0)
(0,0,0)
(0,0,0)
(0,0,0)
(0,0,0)
(0,0,0)
(0,0,0)
(0,0,0)
(0,0,0)
(0,0,0)
(0,0,0)
(0,0,0)
(0,0,0)
(0,0,0)
(0,0,0)
(0,0,0)
(0,0,0)
(0,0,0)
(0,0,0)
(0,0,0)
(0,0,0)
(0,0,0)
(0,0,0)
(0,0,0)
(0,0,0)
(0,0,0)
(0,0,0)
(0,0,0)
(0,0,0)
(0,0,0)
(0,0,0)
(0,0,0)
(0,0,0)
(0,0,0)
(0,0,0)
(0,0,0)
(0,0,0)
(0,0,0)
(0,0,0)
(0,0,0)
(0,0,0)
(0,0,0)
(0,0,0)
(0,0,0)
(0,0,0)
(0,0,0)
(0,0,0)
(0,0,0)
(0,0,0)
(0,0,0)
(0,0,0)
(0,0,0)
(0,0,0)
(0,0,0)
(0,0,0)
(0,0,0)
(0,0,0)
(0,0,0)
(0,0,0)
(0,0,0)
(0,0,0)
(0,0,0)
(0,0,0)
(0,0,0)
(0,0,0)
(0,0,0)
(0,0,0)
(0,0,0)
(0,0,0)
(0,0,0)
(0,0,0)
(0,0,0)
(0,0,0)
(0,0,0)
(0,0,0)
(0,0,0)
(0,0,0)
(0,0,0)
(0,0,0)
(0,0,0)
(0,0,0)
(0,0,0)
(0,0,0)
(0,0,0)
(0,0,0)
(0,0,0)
(0,0,0)
(0,0,0)
(0,0,0)
(0,0,0)
(0,0,0)
(0,0,0)
(0,0,0)
(0,0,0)
(0,0,0)
(0,0,0)
(0,0,0)
(-307813.442076388,44986.173827655,37396.2168396732)
(-320564.535488938,42296.1881941773,78710.61846094)
(-349396.20239723,36310.1714892091,128312.592775031)
(-401874.883062998,26073.4052901697,191015.254895439)
(-491668.054557991,10575.637204974,270667.628949295)
(-641406.273607085,-9489.03725855711,363077.544602435)
(-886161.125628629,-27965.5758891719,430649.77384961)
(-1273519.74766978,-31857.5539254447,320242.433426243)
(-1828932.99581371,-21909.4919659667,-529113.462362336)
(-2241982.96421815,-10052.5845610362,-4465447.15308628)
(0,0,0)
(0,0,0)
(0,0,0)
(0,0,0)
(0,0,0)
(0,0,0)
(-321199.22553596,94378.3655827674,34719.1179750393)
(-333764.636119031,89283.1348980184,72819.5687351431)
(-362328.040505724,77806.1691018993,118167.016900414)
(-414864.361958217,57471.8956717765,175593.864814277)
(-506024.015866742,24737.6828861569,250652.160646597)
(-659860.303266072,-21911.4813447711,344639.477600186)
(-910395.651283115,-70584.5130107715,426853.799028893)
(-1294016.92051351,-78897.2879326438,330238.397256208)
(-1839212.26865917,-49018.4903439294,-517245.767016503)
(-2245602.79462624,-20533.3768275024,-4455468.05639498)
(0,0,0)
(0,0,0)
(0,0,0)
(0,0,0)
(0,0,0)
(0,0,0)
(-351247.538205515,152250.149759564,29638.6526697132)
(-363406.764502988,145508.205053409,61445.8504131329)
(-391472.599211389,130058.156495085,97941.4376394753)
(-444507.799853627,101491.72904674,142938.148204993)
(-540357.405911845,51436.0468046034,204067.62873702)
(-710042.103448094,-31116.4846950447,296050.539971163)
(-991269.151678901,-138503.45462465,418693.897162623)
(-1364814.55154836,-153622.535650213,360199.63467979)
(-1870314.40554302,-78692.0447084553,-488732.727675175)
(-2255596.05494225,-27563.8884557557,-4434966.08710515)
(0,0,0)
(0,0,0)
(0,0,0)
(0,0,0)
(0,0,0)
(0,0,0)
(-405057.626980908,221570.692936411,22918.053582542)
(-416554.970592579,214467.60495837,46093.826904591)
(-443801.966473004,198126.944465702,69416.9761251006)
(-497911.969752964,167328.774007744,92856.6052247239)
(-604421.023620524,109961.478494695,121503.15011674)
(-820594.565028747,352.401960558898,188741.767502025)
(-1242482.44012728,-193644.455295808,403767.105486283)
(-1596385.90708486,-224105.806059501,435297.844272292)
(-1948137.9718807,-77638.5191091692,-437452.129431312)
(-2276992.02744264,-16892.1184836462,-4407248.31410734)
(0,0,0)
(0,0,0)
(0,0,0)
(0,0,0)
(0,0,0)
(0,0,0)
(-495461.241876232,301910.246717491,15831.6130547541)
(-505977.893025349,295821.217904399,29865.0299306751)
(-531678.39690102,282307.326769351,38680.8705811141)
(-585776.332831122,258427.211731854,35526.804580718)
(-704884.928473573,218758.430933342,11941.0311099915)
(-1009798.05004234,158089.142456746,-5141.48416085147)
(-2006235.79796255,88798.7679445506,373500.854472351)
(-2379833.1144205,57423.3005703721,581947.603265048)
(-2100706.08169148,50583.0331861214,-376469.74325229)
(-2311963.09863046,32083.0710440862,-4390075.4865307)
(0,0,0)
(0,0,0)
(0,0,0)
(0,0,0)
(0,0,0)
(0,0,0)
(-644387.924902981,383499.394638665,9761.94030643202)
(-653613.306995849,379189.499870533,16432.1893196513)
(-676626.056080967,370234.655713805,14813.3404131158)
(-726908.545598534,355915.786963868,-4113.35706774342)
(-842688.515454939,334446.494801657,-48658.3579242844)
(-1146823.7499669,302387.257783465,-74261.7816732117)
(-2094833.00794292,256894.67446962,342314.890637778)
(-2437268.84969757,230912.542853754,575269.613948932)
(-2171711.48671984,166846.017427499,-394737.251600153)
(-2346896.77637036,83144.3912332843,-4421878.91184186)
(0,0,0)
(0,0,0)
(0,0,0)
(0,0,0)
(0,0,0)
(0,0,0)
(-887773.523514462,427671.011139104,5518.32686878362)
(-895390.266488912,425219.496688937,7591.01188506154)
(-914730.531010258,421029.792951177,547.286924157937)
(-958532.65102125,416902.441647107,-25522.9599835675)
(-1064819.9354802,415939.944304125,-80654.9221480054)
(-1362635.97141407,420221.154414033,-119635.873402585)
(-2351465.9990871,421088.193852795,316359.882540658)
(-2667801.86498572,482622.718239997,511306.344847969)
(-2278961.09958757,269820.17418121,-478193.085000354)
(-2404519.82696346,112051.497721737,-4504706.41380993)
(0,0,0)
(0,0,0)
(0,0,0)
(0,0,0)
(0,0,0)
(0,0,0)
(-1276240.78662318,292946.008438848,3148.96573118094)
(-1282001.75120027,291762.6660117,3497.75725311731)
(-1296780.70830977,290817.388033068,-3512.65194168153)
(-1331131.53447353,294405.238953707,-26407.8136057451)
(-1419070.59743237,313777.966297344,-76298.7081064611)
(-1692252.39931829,375656.864327224,-118646.976923116)
(-2772301.13337139,508538.759810212,377921.316504379)
(-2259585.18619317,326857.022304964,298560.962639906)
(-2364476.82285755,120534.851983632,-635753.523896063)
(-2493787.63538086,1132.79872097398,-4616470.51956426)
(0,0,0)
(0,0,0)
(0,0,0)
(0,0,0)
(0,0,0)
(0,0,0)
(-1833445.07768412,-571177.728720105,2032.73696620848)
(-1837215.6560554,-572151.673438777,2708.00182685116)
(-1846680.39117824,-573110.905556465,246.202408543693)
(-1867805.99078109,-571558.3795839,-6885.10607845426)
(-1916256.83051552,-562680.125276915,-14286.7486220105)
(-2032030.70013904,-541476.615330986,14335.9469540633)
(-2285184.27446254,-525916.401923773,196285.477021806)
(-2368274.31678252,-643658.897461386,92226.7367952519)
(-2586269.31899537,-750264.30444064,-755041.466206227)
(-2627254.09710204,-652316.214524633,-4617372.73468569)
(0,0,0)
(0,0,0)
(0,0,0)
(0,0,0)
(0,0,0)
(0,0,0)
(-2245486.4821509,-4513457.89570103,1123.75243675899)
(-2247301.69662635,-4514659.56109799,1861.74054735697)
(-2251819.44352216,-4516662.26189841,1979.48919312477)
(-2261598.22679699,-4518829.44430637,2213.26436029994)
(-2282417.5749491,-4521276.23584848,7079.67189178025)
(-2326011.14202312,-4528538.30861347,29904.6162755302)
(-2406599.40427669,-4558399.69981207,78509.7829196617)
(-2496363.19068303,-4636814.83392702,-14472.5785055447)
(-2628005.32159072,-4622196.23884408,-657106.61312529)
(-2536169.57080735,-3964990.84367942,-3964985.87166254)
(0,0,0)
(0,0,0)
(0,0,0)
(0,0,0)
(0,0,0)
(0,0,0)
(0,0,0)
(0,0,0)
(0,0,0)
(0,0,0)
(0,0,0)
(0,0,0)
(0,0,0)
(0,0,0)
(0,0,0)
(0,0,0)
(0,0,0)
(0,0,0)
(0,0,0)
(0,0,0)
(0,0,0)
(0,0,0)
(0,0,0)
(0,0,0)
(0,0,0)
(0,0,0)
(0,0,0)
(0,0,0)
(0,0,0)
(0,0,0)
(0,0,0)
(0,0,0)
(0,0,0)
(0,0,0)
(0,0,0)
(0,0,0)
(0,0,0)
(0,0,0)
(0,0,0)
(0,0,0)
(0,0,0)
(0,0,0)
(0,0,0)
(0,0,0)
(0,0,0)
(0,0,0)
(0,0,0)
(0,0,0)
(0,0,0)
(0,0,0)
(0,0,0)
(0,0,0)
(0,0,0)
(0,0,0)
(0,0,0)
(0,0,0)
(0,0,0)
(0,0,0)
(0,0,0)
(0,0,0)
(0,0,0)
(0,0,0)
(0,0,0)
(0,0,0)
(0,0,0)
(0,0,0)
(0,0,0)
(0,0,0)
(0,0,0)
(0,0,0)
(0,0,0)
(0,0,0)
(0,0,0)
(0,0,0)
(0,0,0)
(0,0,0)
(0,0,0)
(0,0,0)
(0,0,0)
(0,0,0)
(0,0,0)
(0,0,0)
(0,0,0)
(0,0,0)
(0,0,0)
(0,0,0)
(0,0,0)
(0,0,0)
(0,0,0)
(0,0,0)
(0,0,0)
(0,0,0)
(0,0,0)
(0,0,0)
(0,0,0)
(0,0,0)
(0,0,0)
(0,0,0)
(0,0,0)
(0,0,0)
(0,0,0)
(0,0,0)
(-363958.600996639,31448.8121291391,24696.3467911123)
(-374813.111009737,28985.6354642275,49959.2868476845)
(-398691.952081522,23303.6426966505,75951.3938353271)
(-440330.325022627,13036.0008686529,101370.834926304)
(-507513.808488198,-3809.17369127741,121025.762547789)
(-610740.714752387,-27929.0245700463,118289.228263133)
(-758947.986862363,-52134.3375187751,43210.427015641)
(-942750.971243524,-52269.6492523776,-235288.70015823)
(-1089730.56018745,-32140.6239106568,-942350.511873788)
(-946919.189520221,-13657.5018645094,-2223756.78470716)
(0,0,0)
(0,0,0)
(0,0,0)
(0,0,0)
(0,0,0)
(0,0,0)
(-376148.43631459,64175.9047477774,22222.1181599869)
(-386408.051221423,59515.4256612315,44335.7430653784)
(-408990.070837856,48581.6311270006,65719.7849671612)
(-448437.74593077,27780.0293574143,84549.1404509485)
(-512571.221559633,-9642.79442390557,96929.9668764629)
(-612846.526254224,-72132.4982904175,94119.6635849906)
(-760138.521356476,-151450.735109382,43178.9312489616)
(-938363.191936122,-149644.576493535,-215099.870087276)
(-1082556.14421952,-80052.8988412022,-923843.719596351)
(-942502.246029965,-30464.9122156009,-2210136.85784162)
(0,0,0)
(0,0,0)
(0,0,0)
(0,0,0)
(0,0,0)
(0,0,0)
(-402951.625511219,98349.1006320886,17530.8914213952)
(-412059.559943287,92253.3440362405,33445.7684866838)
(-432044.567230306,77637.8900552828,44961.477577317)
(-466948.459296508,48032.1165177745,47150.0498598339)
(-524651.430778156,-12682.3112654462,34483.5915676849)
(-620825.975904912,-141741.508311868,14876.4740459375)
(-783173.914368789,-389794.571884337,45125.073510776)
(-938671.503514313,-385242.81108,-145419.739936815)
(-1065083.58742131,-156502.762686685,-874200.694213047)
(-931715.413522424,-48911.6810880648,-2179634.56676046)
(0,0,0)
(0,0,0)
(0,0,0)
(0,0,0)
(0,0,0)
(0,0,0)
(-449293.615245726,131146.431770114,11438.6571268031)
(-456737.352928247,124994.178162437,18880.2053362822)
(-472840.175170794,110199.918454097,15356.3856352617)
(-500369.546719522,79429.3644510592,-13583.2853314597)
(-545597.736630339,9449.56135505524,-94538.4449421457)
(-634885.105783835,-188934.770256076,-233054.642242859)
(-957700.908784167,-957523.52104167,49892.7755713715)
(-1007558.82984869,-1007684.85852711,83507.7457822882)
(-1024381.31787393,-230318.25070504,-766433.42020612)
(-909891.122157839,-51939.2405380032,-2130506.76604108)
(0,0,0)
(0,0,0)
(0,0,0)
(0,0,0)
(0,0,0)
(0,0,0)
(-522545.807766307,152945.789741925,5285.20791826068)
(-528018.299204465,148173.198620593,4146.59363922421)
(-539279.861173714,137357.622059435,-15409.6456934153)
(-555504.031192411,117269.739831088,-83522.3227121527)
(-567013.772341367,80879.6317961045,-292823.54928541)
(-511011.330895257,20921.8302620784,-1001466.86895065)
(8.3555422207161e-05,2.20334258473997e-05,-5.38451236989938e-05)