/*--------------------------------*- C++ -*----------------------------------*\
| =========                 |                                                 |
| \\      /  F ield         | foam-extend: Open Source CFD                    |
|  \\    /   O peration     | Version:     4.0                                |
|   \\  /    A nd           | Web:         http://www.foam-extend.org         |
|    \\/     M anipulation  |                                                 |
\*---------------------------------------------------------------------------*/
FoamFile
{
    version 2.0;
    format ascii;
    class volVectorField;
    location "902";
    object      H;
}
// * * * * * * * * * * * * * * * * * * * * * * * * * * * * * * * * * * * * * //

dimensions      [0 1 -1 0 0 0 0];

internalField   nonuniform List<vector>
4096
(
(0,0,0)
(0,0,0)
(0,0,0)
(0,0,0)
(0,0,0)
(0,0,0)
(0,0,0)
(0,0,0)
(0,0,0)
(0,0,0)
(0,0,0)
(0,0,0)
(0,0,0)
(0,0,0)
(0,0,0)
(0,0,0)
(0,0,0)
(0,0,0)
(0,0,0)
(0,0,0)
(0,0,0)
(0,0,0)
(0,0,0)
(0,0,0)
(0,0,0)
(0,0,0)
(0,0,0)
(0,0,0)
(0,0,0)
(0,0,0)
(0,0,0)
(0,0,0)
(0,0,0)
(0,0,0)
(0,0,0)
(0,0,0)
(0,0,0)
(0,0,0)
(0,0,0)
(0,0,0)
(0,0,0)
(0,0,0)
(0,0,0)
(0,0,0)
(0,0,0)
(0,0,0)
(0,0,0)
(0,0,0)
(0,0,0)
(0,0,0)
(0,0,0)
(0,0,0)
(0,0,0)
(0,0,0)
(0,0,0)
(0,0,0)
(0,0,0)
(0,0,0)
(0,0,0)
(0,0,0)
(0,0,0)
(0,0,0)
(0,0,0)
(0,0,0)
(0,0,0)
(0,0,0)
(0,0,0)
(0,0,0)
(0,0,0)
(0,0,0)
(0,0,0)
(0,0,0)
(0,0,0)
(0,0,0)
(0,0,0)
(0,0,0)
(0,0,0)
(0,0,0)
(0,0,0)
(0,0,0)
(0,0,0)
(0,0,0)
(0,0,0)
(0,0,0)
(0,0,0)
(0,0,0)
(0,0,0)
(0,0,0)
(0,0,0)
(0,0,0)
(0,0,0)
(0,0,0)
(0,0,0)
(0,0,0)
(0,0,0)
(0,0,0)
(0,0,0)
(0,0,0)
(0,0,0)
(0,0,0)
(0,0,0)
(0,0,0)
(0,0,0)
(0,0,0)
(0,0,0)
(0,0,0)
(0,0,0)
(0,0,0)
(0,0,0)
(0,0,0)
(0,0,0)
(0,0,0)
(0,0,0)
(0,0,0)
(0,0,0)
(0,0,0)
(0,0,0)
(0,0,0)
(0,0,0)
(0,0,0)
(0,0,0)
(0,0,0)
(0,0,0)
(0,0,0)
(0,0,0)
(0,0,0)
(0,0,0)
(0,0,0)
(0,0,0)
(0,0,0)
(0,0,0)
(0,0,0)
(0,0,0)
(0,0,0)
(0,0,0)
(0,0,0)
(0,0,0)
(0,0,0)
(0,0,0)
(0,0,0)
(0,0,0)
(0,0,0)
(0,0,0)
(0,0,0)
(0,0,0)
(0,0,0)
(0,0,0)
(0,0,0)
(0,0,0)
(0,0,0)
(0,0,0)
(0,0,0)
(0,0,0)
(0,0,0)
(0,0,0)
(0,0,0)
(0,0,0)
(0,0,0)
(0,0,0)
(0,0,0)
(0,0,0)
(0,0,0)
(0,0,0)
(0,0,0)
(0,0,0)
(0,0,0)
(0,0,0)
(0,0,0)
(0,0,0)
(0,0,0)
(0,0,0)
(0,0,0)
(0,0,0)
(0,0,0)
(0,0,0)
(0,0,0)
(0,0,0)
(0,0,0)
(0,0,0)
(0,0,0)
(0,0,0)
(0,0,0)
(0,0,0)
(0,0,0)
(0,0,0)
(0,0,0)
(0,0,0)
(0,0,0)
(0,0,0)
(0,0,0)
(0,0,0)
(0,0,0)
(0,0,0)
(0,0,0)
(0,0,0)
(0,0,0)
(0,0,0)
(0,0,0)
(0,0,0)
(0,0,0)
(0,0,0)
(0,0,0)
(0,0,0)
(0,0,0)
(0,0,0)
(0,0,0)
(0,0,0)
(0,0,0)
(0,0,0)
(0,0,0)
(0,0,0)
(0,0,0)
(0,0,0)
(0,0,0)
(0,0,0)
(0,0,0)
(0,0,0)
(0,0,0)
(0,0,0)
(0,0,0)
(0,0,0)
(0,0,0)
(0,0,0)
(0,0,0)
(0,0,0)
(0,0,0)
(0,0,0)
(0,0,0)
(0,0,0)
(0,0,0)
(0,0,0)
(0,0,0)
(0,0,0)
(0,0,0)
(0,0,0)
(0,0,0)
(0,0,0)
(0,0,0)
(0,0,0)
(0,0,0)
(0,0,0)
(0,0,0)
(0,0,0)
(0,0,0)
(0,0,0)
(0,0,0)
(0,0,0)
(0,0,0)
(0,0,0)
(0,0,0)
(0,0,0)
(0,0,0)
(0,0,0)
(0,0,0)
(0,0,0)
(0,0,0)
(0,0,0)
(0,0,0)
(0,0,0)
(0,0,0)
(0,0,0)
(0,0,0)
(0,0,0)
(0,0,0)
(0,0,0)
(0,0,0)
(0,0,0)
(0,0,0)
(0,0,0)
(0,0,0)
(0,0,0)
(0,0,0)
(0,0,0)
(0,0,0)
(0,0,0)
(0,0,0)
(0,0,0)
(0,0,0)
(0,0,0)
(0,0,0)
(0,0,0)
(0,0,0)
(0,0,0)
(0,0,0)
(0,0,0)
(0,0,0)
(0,0,0)
(0,0,0)
(0,0,0)
(0,0,0)
(0,0,0)
(0,0,0)
(0,0,0)
(0,0,0)
(0,0,0)
(0,0,0)
(0,0,0)
(0,0,0)
(0,0,0)
(0,0,0)
(0,0,0)
(0,0,0)
(0,0,0)
(0,0,0)
(0,0,0)
(0,0,0)
(0,0,0)
(0,0,0)
(0,0,0)
(0,0,0)
(0,0,0)
(0,0,0)
(0,0,0)
(0,0,0)
(0,0,0)
(0,0,0)
(0,0,0)
(0,0,0)
(0,0,0)
(0,0,0)
(0,0,0)
(0,0,0)
(0,0,0)
(0,0,0)
(0,0,0)
(0,0,0)
(0,0,0)
(0,0,0)
(0,0,0)
(0,0,0)
(0,0,0)
(0,0,0)
(0,0,0)
(0,0,0)
(0,0,0)
(0,0,0)
(0,0,0)
(0,0,0)
(0,0,0)
(0,0,0)
(0,0,0)
(0,0,0)
(0,0,0)
(0,0,0)
(0,0,0)
(0,0,0)
(0,0,0)
(0,0,0)
(0,0,0)
(0,0,0)
(0,0,0)
(0,0,0)
(0,0,0)
(0,0,0)
(0,0,0)
(0,0,0)
(0,0,0)
(0,0,0)
(0,0,0)
(0,0,0)
(0,0,0)
(0,0,0)
(0,0,0)
(0,0,0)
(0,0,0)
(0,0,0)
(0,0,0)
(0,0,0)
(0,0,0)
(0,0,0)
(0,0,0)
(0,0,0)
(0,0,0)
(0,0,0)
(0,0,0)
(0,0,0)
(0,0,0)
(0,0,0)
(0,0,0)
(0,0,0)
(0,0,0)
(0,0,0)
(0,0,0)
(0,0,0)
(0,0,0)
(0,0,0)
(0,0,0)
(0,0,0)
(0,0,0)
(0,0,0)
(0,0,0)
(0,0,0)
(0,0,0)
(0,0,0)
(0,0,0)
(0,0,0)
(0,0,0)
(0,0,0)
(0,0,0)
(0,0,0)
(0,0,0)
(0,0,0)
(0,0,0)
(0,0,0)
(0,0,0)
(0,0,0)
(0,0,0)
(0,0,0)
(0,0,0)
(0,0,0)
(0,0,0)
(0,0,0)
(0,0,0)
(0,0,0)
(0,0,0)
(0,0,0)
(0,0,0)
(0,0,0)
(0,0,0)
(0,0,0)
(0,0,0)
(0,0,0)
(0,0,0)
(0,0,0)
(0,0,0)
(0,0,0)
(0,0,0)
(0,0,0)
(0,0,0)
(0,0,0)
(0,0,0)
(0,0,0)
(0,0,0)
(0,0,0)
(0,0,0)
(0,0,0)
(0,0,0)
(0,0,0)
(0,0,0)
(0,0,0)
(0,0,0)
(0,0,0)
(0,0,0)
(0,0,0)
(0,0,0)
(0,0,0)
(0,0,0)
(0,0,0)
(0,0,0)
(0,0,0)
(0,0,0)
(0,0,0)
(0,0,0)
(0,0,0)
(0,0,0)
(0,0,0)
(0,0,0)
(0,0,0)
(0,0,0)
(0,0,0)
(0,0,0)
(0,0,0)
(0,0,0)
(0,0,0)
(0,0,0)
(0,0,0)
(0,0,0)
(0,0,0)
(0,0,0)
(0,0,0)
(0,0,0)
(0,0,0)
(0,0,0)
(0,0,0)
(0,0,0)
(0,0,0)
(0,0,0)
(0,0,0)
(0,0,0)
(0,0,0)
(0,0,0)
(0,0,0)
(0,0,0)
(0,0,0)
(0,0,0)
(0,0,0)
(0,0,0)
(0,0,0)
(0,0,0)
(0,0,0)
(0,0,0)
(0,0,0)
(0,0,0)
(0,0,0)
(0,0,0)
(0,0,0)
(0,0,0)
(0,0,0)
(0,0,0)
(0,0,0)
(0,0,0)
(0,0,0)
(0,0,0)
(0,0,0)
(0,0,0)
(0,0,0)
(0,0,0)
(0,0,0)
(0,0,0)
(0,0,0)
(0,0,0)
(0,0,0)
(0,0,0)
(0,0,0)
(0,0,0)
(0,0,0)
(0,0,0)
(0,0,0)
(0,0,0)
(0,0,0)
(0,0,0)
(0,0,0)
(0,0,0)
(0,0,0)
(0,0,0)
(0,0,0)
(0,0,0)
(0,0,0)
(0,0,0)
(0,0,0)
(0,0,0)
(0,0,0)
(0,0,0)
(0,0,0)
(0,0,0)
(0,0,0)
(0,0,0)
(0,0,0)
(0,0,0)
(0,0,0)
(0,0,0)
(0,0,0)
(0,0,0)
(0,0,0)
(0,0,0)
(0,0,0)
(0,0,0)
(0,0,0)
(0,0,0)
(0,0,0)
(0,0,0)
(0,0,0)
(0,0,0)
(0,0,0)
(0,0,0)
(0,0,0)
(0,0,0)
(0,0,0)
(0,0,0)
(0,0,0)
(0,0,0)
(0,0,0)
(0,0,0)
(0,0,0)
(0,0,0)
(0,0,0)
(0,0,0)
(0,0,0)
(0,0,0)
(0,0,0)
(0,0,0)
(0,0,0)
(0,0,0)
(0,0,0)
(0,0,0)
(0,0,0)
(0,0,0)
(0,0,0)
(0,0,0)
(0,0,0)
(0,0,0)
(0,0,0)
(0,0,0)
(0,0,0)
(0,0,0)
(0,0,0)
(0,0,0)
(0,0,0)
(0,0,0)
(0,0,0)
(0,0,0)
(0,0,0)
(0,0,0)
(0,0,0)
(0,0,0)
(0,0,0)
(0,0,0)
(0,0,0)
(0,0,0)
(0,0,0)
(0,0,0)
(0,0,0)
(0,0,0)
(0,0,0)
(0,0,0)
(0,0,0)
(0,0,0)
(0,0,0)
(0,0,0)
(0,0,0)
(0,0,0)
(0,0,0)
(0,0,0)
(0,0,0)
(0,0,0)
(0,0,0)
(0,0,0)
(0,0,0)
(0,0,0)
(0,0,0)
(0,0,0)
(0,0,0)
(0,0,0)
(0,0,0)
(0,0,0)
(0,0,0)
(0,0,0)
(0,0,0)
(0,0,0)
(0,0,0)
(0,0,0)
(0,0,0)
(0,0,0)
(0,0,0)
(0,0,0)
(0,0,0)
(0,0,0)
(0,0,0)
(0,0,0)
(0,0,0)
(0,0,0)
(0,0,0)
(0,0,0)
(0,0,0)
(0,0,0)
(0,0,0)
(0,0,0)
(0,0,0)
(0,0,0)
(0,0,0)
(0,0,0)
(0,0,0)
(0,0,0)
(0,0,0)
(0,0,0)
(0,0,0)
(0,0,0)
(0,0,0)
(0,0,0)
(0,0,0)
(0,0,0)
(0,0,0)
(0,0,0)
(0,0,0)
(0,0,0)
(0,0,0)
(0,0,0)
(0,0,0)
(0,0,0)
(0,0,0)
(0,0,0)
(0,0,0)
(0,0,0)
(0,0,0)
(0,0,0)
(0,0,0)
(0,0,0)
(0,0,0)
(0,0,0)
(0,0,0)
(0,0,0)
(0,0,0)
(0,0,0)
(0,0,0)
(0,0,0)
(0,0,0)
(0,0,0)
(0,0,0)
(0,0,0)
(0,0,0)
(0,0,0)
(0,0,0)
(0,0,0)
(0,0,0)
(0,0,0)
(0,0,0)
(0,0,0)
(0,0,0)
(0,0,0)
(0,0,0)
(0,0,0)
(0,0,0)
(0,0,0)
(0,0,0)
(0,0,0)
(0,0,0)
(0,0,0)
(0,0,0)
(0,0,0)
(0,0,0)
(0,0,0)
(0,0,0)
(0,0,0)
(0,0,0)
(0,0,0)
(0,0,0)
(0,0,0)
(0,0,0)
(0,0,0)
(0,0,0)
(0,0,0)
(0,0,0)
(0,0,0)
(0,0,0)
(0,0,0)
(0,0,0)
(0,0,0)
(0,0,0)
(0,0,0)
(0,0,0)
(0,0,0)
(0,0,0)
(0,0,0)
(0,0,0)
(0,0,0)
(0,0,0)
(0,0,0)
(0,0,0)
(0,0,0)
(0,0,0)
(0,0,0)
(0,0,0)
(0,0,0)
(0,0,0)
(0,0,0)
(0,0,0)
(0,0,0)
(0,0,0)
(0,0,0)
(0,0,0)
(0,0,0)
(0,0,0)
(0,0,0)
(0,0,0)
(0,0,0)
(0,0,0)
(0,0,0)
(0,0,0)
(0,0,0)
(0,0,0)
(0,0,0)
(0,0,0)
(0,0,0)
(0,0,0)
(0,0,0)
(0,0,0)
(0,0,0)
(0,0,0)
(0,0,0)
(0,0,0)
(0,0,0)
(0,0,0)
(0,0,0)
(0,0,0)
(0,0,0)
(0,0,0)
(0,0,0)
(0,0,0)
(0,0,0)
(0,0,0)
(0,0,0)
(0,0,0)
(0,0,0)
(0,0,0)
(0,0,0)
(0,0,0)
(0,0,0)
(0,0,0)
(0,0,0)
(0,0,0)
(0,0,0)
(0,0,0)
(0,0,0)
(0,0,0)
(0,0,0)
(0,0,0)
(0,0,0)
(0,0,0)
(0,0,0)
(0,0,0)
(0,0,0)
(0,0,0)
(0,0,0)
(0,0,0)
(0,0,0)
(0,0,0)
(0,0,0)
(0,0,0)
(0,0,0)
(0,0,0)
(0,0,0)
(0,0,0)
(0,0,0)
(0,0,0)
(0,0,0)
(0,0,0)
(0,0,0)
(0,0,0)
(0,0,0)
(-4.3436758464768e-13,-7.80814316906872e-12,1.0932759915999e-11)
(-8.91725290661465e-13,-1.79934071780306e-11,1.05747071008158e-11)
(-5.00332296086527e-14,-3.29463668418806e-11,9.92064511407579e-12)
(7.415770516538e-13,-5.47369691874239e-11,9.26234102524874e-12)
(4.29544744596158e-13,-8.76586398156487e-11,7.66252344237373e-12)
(4.69066056458763e-17,-1.38379294928983e-10,5.49988633867689e-12)
(5.07024057911869e-13,-2.19782463288854e-10,3.20864621257272e-12)
(1.70693037155136e-12,-3.55650077304008e-10,1.35142393652379e-12)
(3.55703456387101e-12,-5.8137432613816e-10,2.9865577441966e-13)
(5.54334830689404e-12,-8.95593860054109e-10,-3.12276775354547e-14)
(0,0,0)
(0,0,0)
(0,0,0)
(0,0,0)
(0,0,0)
(0,0,0)
(-1.21694498641929e-12,-7.84189775208003e-12,2.30813078844469e-11)
(-1.931574460012e-12,-1.77832525709691e-11,2.28095292395545e-11)
(-1.38398952831203e-12,-3.21849208952898e-11,2.18424864799822e-11)
(1.65221033928841e-14,-5.3170598634231e-11,2.01124776331537e-11)
(-1.67895909230849e-13,-8.58800952149062e-11,1.68826925730755e-11)
(-3.72418378504265e-13,-1.36701576129086e-10,1.22614498331732e-11)
(8.20373224026565e-13,-2.18589621460764e-10,7.53018624348839e-12)
(3.2965278477723e-12,-3.55095684261055e-10,4.23269081564564e-12)
(5.5562827829436e-12,-5.80929701508127e-10,2.24142587293179e-12)
(6.99620956618557e-12,-8.95345101589027e-10,9.69870580275045e-13)
(0,0,0)
(0,0,0)
(0,0,0)
(0,0,0)
(0,0,0)
(0,0,0)
(-1.72338624309209e-12,-7.78681712601611e-12,3.88061585587161e-11)
(-2.93592277800618e-12,-1.71109895450048e-11,3.82351464965141e-11)
(-3.12721344736824e-12,-3.04447853370132e-11,3.68715476621176e-11)
(-2.52072197838759e-12,-5.01103356146035e-11,3.39960668844633e-11)
(-2.30736998674603e-12,-8.1702630118481e-11,2.92359205767354e-11)
(-1.11956645136406e-12,-1.32540018177177e-10,2.23179606741744e-11)
(2.1061410113971e-12,-2.16082251340502e-10,1.4792988815806e-11)
(5.91672915644871e-12,-3.54038654524612e-10,9.47370571880714e-12)
(8.15611913582632e-12,-5.80158499030975e-10,5.99768157196431e-12)
(9.11441622722351e-12,-8.95027732636717e-10,3.2093876040796e-12)
(0,0,0)
(0,0,0)
(0,0,0)
(0,0,0)
(0,0,0)
(0,0,0)
(-2.65619908205549e-12,-6.79191047384658e-12,6.16498028900306e-11)
(-4.15180261606185e-12,-1.51450538528567e-11,6.05717643284557e-11)
(-5.14991036462446e-12,-2.72943151456459e-11,5.834945740238e-11)
(-5.29400714631856e-12,-4.55297363198201e-11,5.39499223603161e-11)
(-4.66952618709689e-12,-7.52638839642111e-11,4.76055240924217e-11)
(-2.8915726148247e-12,-1.25385523209158e-10,3.92907167937814e-11)
(1.99855136607463e-12,-2.10771393278039e-10,3.00409153843812e-11)
(7.39922351489113e-12,-3.51002866516817e-10,2.21068076237806e-11)
(9.56794546306174e-12,-5.78115777809258e-10,1.51749881471904e-11)
(1.00830742785463e-11,-8.9325378213126e-10,8.17189554277118e-12)
(0,0,0)
(0,0,0)
(0,0,0)
(0,0,0)
(0,0,0)
(0,0,0)
(-2.71634053697971e-12,-5.21569863814315e-12,9.39912911445421e-11)
(-4.52578896150887e-12,-1.22700061241086e-11,9.32326142558616e-11)
(-6.60948606101014e-12,-2.29841929255987e-11,9.09129228427743e-11)
(-7.36717501010479e-12,-3.91704478568978e-11,8.58295169979093e-11)
(-6.36879859478317e-12,-6.64497588658142e-11,7.89828407537782e-11)
(-3.67699274615725e-12,-1.14998140711485e-10,7.08385402709907e-11)
(2.07805128339339e-12,-2.01362155892366e-10,6.12381019943867e-11)
(6.77926149604405e-12,-3.44222740560345e-10,4.84246522818725e-11)
(8.60568138604159e-12,-5.71803967728638e-10,3.41180774541882e-11)
(9.42697494663453e-12,-8.86319800870873e-10,1.80850976222243e-11)
(0,0,0)
(0,0,0)
(0,0,0)
(0,0,0)
(0,0,0)
(0,0,0)
(-2.04988639771091e-12,-4.28766019029908e-12,1.42792457631622e-10)
(-4.09588031411626e-12,-9.74557541838544e-12,1.42042135862394e-10)
(-6.64343097033627e-12,-1.85068087834692e-11,1.40006074942954e-10)
(-7.48044051135673e-12,-3.23116274085429e-11,1.35601353316551e-10)
(-5.87675361502959e-12,-5.70452703214844e-11,1.29054387133199e-10)
(-3.24158171380041e-12,-1.03602063642387e-10,1.2071992232682e-10)
(5.15079404084022e-13,-1.90114053790819e-10,1.09109266950953e-10)
(4.02154181660221e-12,-3.31959001922191e-10,9.0909549519446e-11)
(5.47995018829139e-12,-5.57136606060502e-10,6.6117981730116e-11)
(6.21265388374316e-12,-8.69590311629904e-10,3.54596685534016e-11)
(0,0,0)
(0,0,0)
(0,0,0)
(0,0,0)
(0,0,0)
(0,0,0)
(-2.03518670983179e-12,-3.64150457065833e-12,2.21408153908301e-10)
(-4.10367138280307e-12,-7.78639268649837e-12,2.20419594494876e-10)
(-6.06805181092683e-12,-1.4369005908795e-11,2.1857922802383e-10)
(-6.43482839126816e-12,-2.55733234357842e-11,2.15061174408282e-10)
(-4.16825895771967e-12,-4.74443528339129e-11,2.09319379708314e-10)
(-2.46551932761586e-12,-9.06252383033527e-11,2.00521211845822e-10)
(-1.46805639218714e-12,-1.73402218307945e-10,1.84596576157088e-10)
(5.9620851297855e-13,-3.09303024951311e-10,1.59360440368158e-10)
(1.63362249679191e-12,-5.27935979384553e-10,1.19321751979552e-10)
(1.21808818111708e-12,-8.35466298833702e-10,6.53954210440449e-11)
(0,0,0)
(0,0,0)
(0,0,0)
(0,0,0)
(0,0,0)
(0,0,0)
(-3.13841546072975e-12,-2.5073300345986e-12,3.53870767986886e-10)
(-5.29500390334034e-12,-5.78274995090803e-12,3.52847837039529e-10)
(-6.76014752592598e-12,-1.08289574519744e-11,3.50920944172786e-10)
(-7.07307937602897e-12,-1.98388836493215e-11,3.47652259221765e-10)
(-5.41474557216401e-12,-3.87920557175752e-11,3.42098794969583e-10)
(-4.60709179972412e-12,-7.69248115639084e-11,3.31876690374299e-10)
(-4.16766615227221e-12,-1.48876469517875e-10,3.11463272651812e-10)
(-3.61336131125537e-12,-2.7010398890237e-10,2.74162794112912e-10)
(-2.55126374998619e-12,-4.74422599862238e-10,2.12284654306165e-10)
(-2.51188592908996e-12,-7.70775971988525e-10,1.20428602052292e-10)
(0,0,0)
(0,0,0)
(0,0,0)
(0,0,0)
(0,0,0)
(0,0,0)
(-3.8080043402405e-12,-1.69628342112255e-12,5.75873605304798e-10)
(-6.60107557962687e-12,-3.92181413509347e-12,5.75220334014454e-10)
(-7.86508337104841e-12,-7.47120295106632e-12,5.73367552492389e-10)
(-7.68891857468021e-12,-1.4305168074794e-11,5.69771666670583e-10)
(-7.0362212302866e-12,-2.88672388473068e-11,5.63292201175861e-10)
(-7.21935210194524e-12,-5.75271978119018e-11,5.50244419387336e-10)
(-6.89728290386313e-12,-1.11852463444535e-10,5.23808848583055e-10)
(-7.29335106223611e-12,-2.08665653857235e-10,4.73332542963472e-10)
(-6.95585909315322e-12,-3.82330875001374e-10,3.82905000667535e-10)
(-6.27155143031562e-12,-6.50029816329462e-10,2.30025642720019e-10)
(0,0,0)
(0,0,0)
(0,0,0)
(0,0,0)
(0,0,0)
(0,0,0)
(-3.78497588605435e-12,-1.046386243187e-12,8.88413810429189e-10)
(-6.60471606668395e-12,-2.16842481645467e-12,8.88005821130612e-10)
(-7.69873973784534e-12,-3.95987559464456e-12,8.86224257590498e-10)
(-7.58966556377113e-12,-7.80104782096007e-12,8.82405252308941e-10)
(-7.74612966213335e-12,-1.56140802583303e-11,8.74876913613389e-10)
(-9.03465198482608e-12,-3.09865293109305e-11,8.59809557595945e-10)
(-9.57537430631624e-12,-6.10649346161531e-11,8.29077131370817e-10)
(-9.26819703056139e-12,-1.18304032523379e-10,7.68064948623155e-10)
(-8.89577215085326e-12,-2.29314731682152e-10,6.4956450771264e-10)
(-7.88198634713179e-12,-4.19655347777115e-10,4.19935731620491e-10)
(0,0,0)
(0,0,0)
(0,0,0)
(0,0,0)
(0,0,0)
(0,0,0)
(0,0,0)
(0,0,0)
(0,0,0)
(0,0,0)
(0,0,0)
(0,0,0)
(0,0,0)
(0,0,0)
(0,0,0)
(0,0,0)
(0,0,0)
(0,0,0)
(0,0,0)
(0,0,0)
(0,0,0)
(0,0,0)
(0,0,0)
(0,0,0)
(0,0,0)
(0,0,0)
(0,0,0)
(0,0,0)
(0,0,0)
(0,0,0)
(0,0,0)
(0,0,0)
(0,0,0)
(0,0,0)
(0,0,0)
(0,0,0)
(0,0,0)
(0,0,0)
(0,0,0)
(0,0,0)
(0,0,0)
(0,0,0)
(0,0,0)
(0,0,0)
(0,0,0)
(0,0,0)
(0,0,0)
(0,0,0)
(0,0,0)
(0,0,0)
(0,0,0)
(0,0,0)
(0,0,0)
(0,0,0)
(0,0,0)
(0,0,0)
(0,0,0)
(0,0,0)
(0,0,0)
(0,0,0)
(0,0,0)
(0,0,0)
(0,0,0)
(0,0,0)
(0,0,0)
(0,0,0)
(0,0,0)
(0,0,0)
(0,0,0)
(0,0,0)
(0,0,0)
(0,0,0)
(0,0,0)
(0,0,0)
(0,0,0)
(0,0,0)
(0,0,0)
(0,0,0)
(0,0,0)
(0,0,0)
(0,0,0)
(0,0,0)
(0,0,0)
(0,0,0)
(0,0,0)
(0,0,0)
(0,0,0)
(0,0,0)
(0,0,0)
(0,0,0)
(0,0,0)
(0,0,0)
(0,0,0)
(0,0,0)
(0,0,0)
(0,0,0)
(0,0,0)
(0,0,0)
(0,0,0)
(0,0,0)
(0,0,0)
(0,0,0)
(-4.25601864493189e-14,-1.53492720082403e-11,2.01332370356342e-11)
(-4.47817910986945e-13,-3.50282092802222e-11,1.94093877878844e-11)
(-1.5317508737277e-13,-6.28288003598437e-11,1.78798209470824e-11)
(7.75024081323596e-13,-1.01588084421615e-10,1.57487252153534e-11)
(8.13637247548669e-13,-1.59247651346352e-10,1.2546382817323e-11)
(6.13568232876759e-13,-2.47755445049746e-10,8.35418326091067e-12)
(1.17140450596467e-12,-3.87729570241272e-10,3.85281697756915e-12)
(2.20530549047155e-12,-6.23084422061824e-10,1.03675496017353e-12)
(3.4422933856693e-12,-1.07355399332053e-09,-9.1088877432356e-14)
(5.26336216372291e-12,-2.10633844291362e-09,-2.95567452628289e-13)
(0,0,0)
(0,0,0)
(0,0,0)
(0,0,0)
(0,0,0)
(0,0,0)
(-1.00024696759123e-12,-1.5089404212112e-11,4.32667071579381e-11)
(-1.63679472639923e-12,-3.42950863233315e-11,4.23059864759669e-11)
(-1.39411623975398e-12,-6.09456119384296e-11,3.99229135110296e-11)
(1.86044143837715e-13,-9.86812595573124e-11,3.57762690574179e-11)
(2.75881734256805e-13,-1.55729496031617e-10,2.88424032089236e-11)
(1.97287259286149e-13,-2.44030744320555e-10,1.91334688356681e-11)
(1.61049853159193e-12,-3.85545908813602e-10,9.19401598712937e-12)
(4.2307630541362e-12,-6.22844709976264e-10,3.67693127295352e-12)
(6.05663559885826e-12,-1.07355742591809e-09,1.4254807289283e-12)
(7.6487111943533e-12,-2.10629730569162e-09,4.48473968216484e-13)
(0,0,0)
(0,0,0)
(0,0,0)
(0,0,0)
(0,0,0)
(0,0,0)
(-2.14728083305841e-12,-1.46411549284252e-11,7.27560056222383e-11)
(-3.53825963575728e-12,-3.26999784249278e-11,7.13748011846688e-11)
(-3.40220286107303e-12,-5.7112911216003e-11,6.79791432371821e-11)
(-2.34117496544371e-12,-9.20996587762371e-11,6.13315310280967e-11)
(-1.82815623850367e-12,-1.46784377730485e-10,5.0334460771884e-11)
(-7.49089561064413e-13,-2.35024162655324e-10,3.4922825235787e-11)
(2.11456604587894e-12,-3.81082683530782e-10,1.8955715533e-11)
(6.35696529549277e-12,-6.22489643290747e-10,1.06197210819343e-11)
(8.90169188185823e-12,-1.0739052950114e-09,6.62769839024221e-12)
(1.05498533257113e-11,-2.10659486344967e-09,3.50600954962286e-12)
(0,0,0)
(0,0,0)
(0,0,0)
(0,0,0)
(0,0,0)
(0,0,0)
(-3.15437235618482e-12,-1.32800602635592e-11,1.1376955894282e-10)
(-4.80454341873424e-12,-2.94309176899087e-11,1.11509892931725e-10)
(-5.06049754261407e-12,-5.09315553266752e-11,1.06507180769492e-10)
(-5.30889734134308e-12,-8.18769325882929e-11,9.7583448494823e-11)
(-5.16884398686394e-12,-1.31987689221034e-10,8.38342581955443e-11)
(-4.02915370307281e-12,-2.18857044485854e-10,6.51650484781412e-11)
(5.23421740950296e-13,-3.71442089272779e-10,4.48681975203597e-11)
(7.55091703494632e-12,-6.20196567807321e-10,3.24262854367787e-11)
(1.02592279870554e-11,-1.07285741823145e-09,2.28478466833164e-11)
(1.13209885609906e-11,-2.10470773713543e-09,1.23053911154236e-11)
(0,0,0)
(0,0,0)
(0,0,0)
(0,0,0)
(0,0,0)
(0,0,0)
(-2.88570209614369e-12,-1.1053114433974e-11,1.71048342005366e-10)
(-4.73052825414739e-12,-2.42515664350709e-11,1.68873513556963e-10)
(-6.00346435827919e-12,-4.22624396915547e-11,1.63686490583832e-10)
(-7.37931921432263e-12,-6.82817326132702e-11,1.54296617196387e-10)
(-7.62898665630152e-12,-1.11982397477108e-10,1.41094073251726e-10)
(-5.47263153869525e-12,-1.93939452834492e-10,1.25431460815407e-10)
(3.64339889440954e-12,-3.50464476900277e-10,1.11073863678586e-10)
(8.82209768563003e-12,-6.12197380375062e-10,8.50302115799588e-11)
(9.97129954994632e-12,-1.0651669236518e-09,5.90691246623661e-11)
(1.07825833276038e-11,-2.09461686990005e-09,3.07299001209342e-11)
(0,0,0)
(0,0,0)
(0,0,0)
(0,0,0)
(0,0,0)
(0,0,0)
(-1.94572024812363e-12,-8.85444253134845e-12,2.56285390631953e-10)
(-4.01900212656235e-12,-1.8940722779462e-11,2.54351064884345e-10)
(-6.37651221860725e-12,-3.29875074985538e-11,2.49826830209581e-10)
(-7.67177830076796e-12,-5.39580949784238e-11,2.41875112835033e-10)
(-7.14320629621699e-12,-9.17866356144102e-11,2.30578238742386e-10)
(-4.60775167696194e-12,-1.70406365489416e-10,2.16619189183071e-10)
(2.00296135270372e-12,-3.34182345244084e-10,1.98856623925264e-10)
(6.15713263506368e-12,-5.93762732984036e-10,1.65167856713395e-10)
(6.93763668908564e-12,-1.04143714490562e-09,1.18875837886981e-10)
(7.54830964123417e-12,-2.06684841517537e-09,6.27001547483523e-11)
(0,0,0)
(0,0,0)
(0,0,0)
(0,0,0)
(0,0,0)
(0,0,0)
(-2.18080183246618e-12,-6.6790650660754e-12,3.90456312890924e-10)
(-4.26694764734904e-12,-1.42654066044406e-11,3.886425333405e-10)
(-6.09004665219946e-12,-2.47850777646807e-11,3.84782355391769e-10)
(-6.42747347776299e-12,-4.07484879341866e-11,3.78855295650937e-10)
(-4.02238821156e-12,-7.24520994392235e-11,3.7079277485568e-10)
(-2.41310378307551e-13,-1.43511248933527e-10,3.58723483071845e-10)
(-7.57669393366055e-13,-3.05084590048335e-10,3.28948921416667e-10)
(1.43586085268815e-12,-5.53479793441559e-10,2.88959453129102e-10)
(2.04657390966566e-12,-9.8934779202871e-10,2.14348569012957e-10)
(1.92318238034757e-12,-2.00707395935376e-09,1.15988982973665e-10)
(0,0,0)
(0,0,0)
(0,0,0)
(0,0,0)
(0,0,0)
(0,0,0)
(-2.92653112684894e-12,-4.56038877232268e-12,6.19945848757233e-10)
(-5.22904685241117e-12,-1.03286805198695e-11,6.18391330483067e-10)
(-6.84921707581221e-12,-1.85306725213325e-11,6.1489881667084e-10)
(-7.05333069837435e-12,-3.17631190430419e-11,6.09582137753069e-10)
(-5.11745784716599e-12,-6.08994068303138e-11,6.02137135962749e-10)
(-3.59128782923417e-12,-1.27342608534389e-10,5.88739644287576e-10)
(-3.89119368671381e-12,-2.64577294746478e-10,5.56660020684175e-10)
(-3.17355654974518e-12,-4.80131229031952e-10,4.89759616144587e-10)
(-2.7869363568467e-12,-8.927620803775e-10,3.77895006216951e-10)
(-2.8294395363025e-12,-1.89324330368232e-09,2.15195566958136e-10)
(0,0,0)
(0,0,0)
(0,0,0)
(0,0,0)
(0,0,0)
(0,0,0)
(-3.80463022783276e-12,-3.18915799566862e-12,1.06469990313556e-09)
(-6.50168337619862e-12,-7.0408305871854e-12,1.06289776076174e-09)
(-7.78052490566349e-12,-1.26968549814232e-11,1.05916017630547e-09)
(-7.71357333378958e-12,-2.31061000189997e-11,1.05335158063914e-09)
(-7.24159803072872e-12,-4.64456627903284e-11,1.04405772115971e-09)
(-7.32444979865212e-12,-9.72707338152087e-11,1.02466939244222e-09)
(-7.20850611265663e-12,-1.96515671159267e-10,9.81207585322381e-10)
(-7.22743010015973e-12,-3.68109379009987e-10,8.92262611656522e-10)
(-7.0926444649185e-12,-7.30304357865637e-10,7.33350737790365e-10)
(-6.62037726237968e-12,-1.6787390034152e-09,4.58404667834501e-10)
(0,0,0)
(0,0,0)
(0,0,0)
(0,0,0)
(0,0,0)
(0,0,0)
(-4.42337283066362e-12,-2.05538573776326e-12,2.09481608416146e-09)
(-6.99157734302485e-12,-3.84755209994674e-12,2.09232892954701e-09)
(-7.83961005093379e-12,-6.45802118507462e-12,2.08833079960645e-09)
(-7.86237468917813e-12,-1.24230275694513e-11,2.0824086437876e-09)
(-8.29285390302288e-12,-2.54250102347422e-11,2.07138991596193e-09)
(-9.28875507063314e-12,-5.28537133787554e-11,2.04758684572296e-09)
(-9.62812617481438e-12,-1.06489025683593e-10,1.99560600315996e-09)
(-9.07178864341809e-12,-2.09290774575988e-10,1.88920782350122e-09)
(-8.58172774085717e-12,-4.55878875998731e-10,1.67903906998106e-09)
(-7.60160250371192e-12,-1.22086133215132e-09,1.22185525370217e-09)
(0,0,0)
(0,0,0)
(0,0,0)
(0,0,0)
(0,0,0)
(0,0,0)
(0,0,0)
(0,0,0)
(0,0,0)
(0,0,0)
(0,0,0)
(0,0,0)
(0,0,0)
(0,0,0)
(0,0,0)
(0,0,0)
(0,0,0)
(0,0,0)
(0,0,0)
(0,0,0)
(0,0,0)
(0,0,0)
(0,0,0)
(0,0,0)
(0,0,0)
(0,0,0)
(0,0,0)
(0,0,0)
(0,0,0)
(0,0,0)
(0,0,0)
(0,0,0)
(0,0,0)
(0,0,0)
(0,0,0)
(0,0,0)
(0,0,0)
(0,0,0)
(0,0,0)
(0,0,0)
(0,0,0)
(0,0,0)
(0,0,0)
(0,0,0)
(0,0,0)
(0,0,0)
(0,0,0)
(0,0,0)
(0,0,0)
(0,0,0)
(0,0,0)
(0,0,0)
(0,0,0)
(0,0,0)
(0,0,0)
(0,0,0)
(0,0,0)
(0,0,0)
(0,0,0)
(0,0,0)
(0,0,0)
(0,0,0)
(0,0,0)
(0,0,0)
(0,0,0)
(0,0,0)
(0,0,0)
(0,0,0)
(0,0,0)
(0,0,0)
(0,0,0)
(0,0,0)
(0,0,0)
(0,0,0)
(0,0,0)
(0,0,0)
(0,0,0)
(0,0,0)
(0,0,0)
(0,0,0)
(0,0,0)
(0,0,0)
(0,0,0)
(0,0,0)
(0,0,0)
(0,0,0)
(0,0,0)
(0,0,0)
(0,0,0)
(0,0,0)
(0,0,0)
(0,0,0)
(0,0,0)
(0,0,0)
(0,0,0)
(0,0,0)
(0,0,0)
(0,0,0)
(0,0,0)
(0,0,0)
(0,0,0)
(0,0,0)
(4.21421265277658e-13,-2.27531105444261e-11,2.7388859882177e-11)
(3.48625972451625e-13,-5.00929680462884e-11,2.63903793619276e-11)
(9.47322233732536e-14,-8.55431243297622e-11,2.38182914509473e-11)
(1.07054161550525e-12,-1.35205758368593e-10,1.98340285143353e-11)
(1.48768148872581e-12,-2.06687184938362e-10,1.41932692516028e-11)
(1.39023378731327e-12,-3.09718736589459e-10,6.8134552326797e-12)
(1.80380509525428e-12,-4.59994362822723e-10,-3.08589719066815e-13)
(3.09343724249799e-12,-6.76105871426423e-10,-3.30615892860689e-12)
(3.65020455830132e-12,-9.83437393524687e-10,-2.90516227548517e-12)
(4.9266574893646e-12,-1.3589929975641e-09,-1.43770207977775e-12)
(0,0,0)
(0,0,0)
(0,0,0)
(0,0,0)
(0,0,0)
(0,0,0)
(-4.87775569031524e-13,-2.19323068043157e-11,5.93383589503034e-11)
(-8.48829660519747e-13,-4.81018942061488e-11,5.73054030969746e-11)
(-1.08017250894036e-12,-8.21769161366868e-11,5.27401198992546e-11)
(5.38309211528497e-13,-1.30133432245559e-10,4.50714013251674e-11)
(1.03969780692207e-12,-2.00076917464575e-10,3.28634673744525e-11)
(1.13015844260694e-12,-3.03576185605063e-10,1.56361061810352e-11)
(2.66435796159576e-12,-4.5809763351359e-10,-1.77657573733926e-12)
(6.12714691434294e-12,-6.78255019159769e-10,-7.13887256994521e-12)
(7.38151145232359e-12,-9.86465415833073e-10,-5.44965239858127e-12)
(8.39474292089939e-12,-1.36150285824571e-09,-2.44510912911872e-12)
(0,0,0)
(0,0,0)
(0,0,0)
(0,0,0)
(0,0,0)
(0,0,0)
(-2.12717106089217e-12,-2.03971530333747e-11,9.98114495033486e-11)
(-3.41166242263663e-12,-4.45670131303225e-11,9.68392433261728e-11)
(-2.9359465411096e-12,-7.56120599260226e-11,9.00819823667168e-11)
(-1.56683089733872e-12,-1.18997292730685e-10,7.82723355356509e-11)
(-1.21320921195568e-12,-1.84599673717784e-10,5.90886710037617e-11)
(-9.49098028208772e-13,-2.88638669118181e-10,2.99850666154873e-11)
(8.09966239956812e-13,-4.55094658195219e-10,-2.94876778506371e-12)
(8.05591250335542e-12,-6.83590885798185e-10,-8.02474050688426e-12)
(1.09755039427646e-11,-9.92446421452257e-10,-3.57316782837996e-12)
(1.21687365606606e-11,-1.36620083998533e-09,-4.68950035335489e-13)
(0,0,0)
(0,0,0)
(0,0,0)
(0,0,0)
(0,0,0)
(0,0,0)
(-3.12165217522118e-12,-1.81304253546408e-11,1.51760125490242e-10)
(-4.98118251066037e-12,-3.90807009088987e-11,1.47938988133196e-10)
(-4.80588090340414e-12,-6.53526472660893e-11,1.39500225123546e-10)
(-5.1549070173735e-12,-1.01486813815032e-10,1.24884644337196e-10)
(-6.50492601288272e-12,-1.5790042231199e-10,1.01184940987457e-10)
(-8.64989439653144e-12,-2.58141234049044e-10,6.34496654412296e-11)
(-8.01227854809081e-12,-4.47421266905316e-10,1.22850876038846e-11)
(9.13016835567972e-12,-6.93603551718057e-10,1.08892399165841e-11)
(1.3111188975694e-11,-1.00032461158694e-09,1.40544196775512e-11)
(1.3535512441185e-11,-1.36999236078511e-09,9.77953635171696e-12)
(0,0,0)
(0,0,0)
(0,0,0)
(0,0,0)
(0,0,0)
(0,0,0)
(-2.90954554987519e-12,-1.51453817267819e-11,2.22093348933882e-10)
(-4.85434893662447e-12,-3.1646576943481e-11,2.1818743291883e-10)
(-5.88852316416047e-12,-5.17647195217784e-11,2.09898023672402e-10)
(-8.50041290491808e-12,-7.85590098359605e-11,1.9565727537492e-10)
(-1.21621360817084e-11,-1.20000239306251e-10,1.74707299048592e-10)
(-1.46481217474792e-11,-1.99665503126262e-10,1.49337763729746e-10)
(1.34049193368184e-11,-3.91148752444485e-10,1.52875410988684e-10)
(1.63485372116808e-11,-7.03038340528941e-10,9.78871886451831e-11)
(1.45807453463621e-11,-1.0024400452129e-09,6.66646371405013e-11)
(1.37440287232699e-11,-1.36398186283663e-09,3.5012484862003e-11)
(0,0,0)
(0,0,0)
(0,0,0)
(0,0,0)
(0,0,0)
(0,0,0)
(-2.18677196577559e-12,-1.14835851667562e-11,3.2031009706425e-10)
(-4.17008362673733e-12,-2.37770261420333e-11,3.17106299268714e-10)
(-6.62722457824755e-12,-3.75552612582729e-11,3.10317996830971e-10)
(-9.58451125152538e-12,-5.53368646439764e-11,2.99542042660945e-10)
(-1.25186929127576e-11,-8.45636355685396e-11,2.84539273374575e-10)
(-1.37403029748952e-11,-1.57602724617738e-10,2.66035388823572e-10)
(6.59397336904236e-12,-3.97632821360964e-10,2.61281793344711e-10)
(1.21662119183755e-11,-6.92333843004936e-10,2.08739684844462e-10)
(1.10239669510735e-11,-9.78774773534782e-10,1.46536904474357e-10)
(1.04740085678179e-11,-1.33264161206792e-09,7.58904215218423e-11)
(0,0,0)
(0,0,0)
(0,0,0)
(0,0,0)
(0,0,0)
(0,0,0)
(-2.48569857545018e-12,-7.98704328440383e-12,4.62247184303615e-10)
(-4.3434957828978e-12,-1.68125089476336e-11,4.59846780029584e-10)
(-6.41739215531684e-12,-2.56452445276434e-11,4.55040062292417e-10)
(-7.35032157321675e-12,-3.52316082635151e-11,4.49309104416087e-10)
(-3.50578903661856e-12,-5.03247079181984e-11,4.45985549322389e-10)
(1.33646108775435e-11,-9.55302969654897e-11,4.47588328501312e-10)
(-1.27549640741383e-12,-3.63967870934244e-10,3.85453608846539e-10)
(2.69818055892926e-12,-6.45551412661809e-10,3.73868508460162e-10)
(3.82044829805213e-12,-9.14700007966699e-10,2.62015640221574e-10)
(4.08150968258543e-12,-1.26001410278038e-09,1.35522962168378e-10)
(0,0,0)
(0,0,0)
(0,0,0)
(0,0,0)
(0,0,0)
(0,0,0)
(-2.74324362908356e-12,-5.64223756890285e-12,6.69915983117311e-10)
(-5.02438297314257e-12,-1.1964044732303e-11,6.68214254970617e-10)
(-7.36635569828364e-12,-1.85599448343605e-11,6.64615148663589e-10)
(-8.26534793134354e-12,-2.77098403559881e-11,6.60550976526482e-10)
(-6.17371021245061e-12,-5.06317023188702e-11,6.5882904325257e-10)
(-1.58353894508335e-12,-1.21731128432554e-10,6.59566999785415e-10)
(-5.05241273369349e-12,-3.30997943917808e-10,6.41096834043207e-10)
(-3.33079664518249e-12,-5.34321437344947e-10,5.47890968925615e-10)
(-2.54521960972186e-12,-7.9043205795924e-10,4.01003865857809e-10)
(-2.13817284493594e-12,-1.12655273526234e-09,2.16866400554731e-10)
(0,0,0)
(0,0,0)
(0,0,0)
(0,0,0)
(0,0,0)
(0,0,0)
(-3.13626011231104e-12,-4.21530036304817e-12,9.71150465899009e-10)
(-5.95737740733873e-12,-8.37266036868052e-12,9.69417298659049e-10)
(-8.21076303551856e-12,-1.32545825309828e-11,9.65474383421263e-10)
(-9.10278630405365e-12,-2.22862466122459e-11,9.60090699406325e-10)
(-8.87392186818831e-12,-4.57039647368523e-11,9.53464748953743e-10)
(-8.27966311519522e-12,-1.05904249467814e-10,9.39246210302051e-10)
(-8.29017792273463e-12,-2.32834955920682e-10,8.97238607911057e-10)
(-7.1341606683163e-12,-3.86394322424626e-10,7.88629114274216e-10)
(-6.57205637570419e-12,-6.06744687240008e-10,6.10996874460783e-10)
(-6.09338069190463e-12,-9.10717712461615e-10,3.5114195461064e-10)
(0,0,0)
(0,0,0)
(0,0,0)
(0,0,0)
(0,0,0)
(0,0,0)
(-3.99160395428572e-12,-2.6319267144622e-12,1.34476225928296e-09)
(-6.84099950289753e-12,-4.50961608551886e-12,1.3419751850866e-09)
(-8.37547541672921e-12,-6.92669637599693e-12,1.33698585455495e-09)
(-9.26667443359548e-12,-1.265423499482e-11,1.33027333642518e-09)
(-9.91479389826408e-12,-2.6971552817612e-11,1.3195332869987e-09)
(-1.01616258868161e-11,-6.00254843616229e-11,1.29579544886832e-09)