/*--------------------------------*- C++ -*----------------------------------*\
| =========                 |                                                 |
| \\      /  F ield         | foam-extend: Open Source CFD                    |
|  \\    /   O peration     | Version:     4.0                                |
|   \\  /    A nd           | Web:         http://www.foam-extend.org         |
|    \\/     M anipulation  |                                                 |
\*---------------------------------------------------------------------------*/
FoamFile
{
    version 2.0;
    format ascii;
    class volVectorField;
    location "2949";
    object      H;
}
// * * * * * * * * * * * * * * * * * * * * * * * * * * * * * * * * * * * * * //

dimensions      [0 1 -1 0 0 0 0];

internalField   nonuniform List<vector>
4096
(
(0,0,0)
(0,0,0)
(0,0,0)
(0,0,0)
(0,0,0)
(0,0,0)
(0,0,0)
(0,0,0)
(0,0,0)
(0,0,0)
(0,0,0)
(0,0,0)
(0,0,0)
(0,0,0)
(0,0,0)
(0,0,0)
(0,0,0)
(0,0,0)
(0,0,0)
(0,0,0)
(0,0,0)
(0,0,0)
(0,0,0)
(0,0,0)
(0,0,0)
(0,0,0)
(0,0,0)
(0,0,0)
(0,0,0)
(0,0,0)
(0,0,0)
(0,0,0)
(0,0,0)
(0,0,0)
(0,0,0)
(0,0,0)
(0,0,0)
(0,0,0)
(0,0,0)
(0,0,0)
(0,0,0)
(0,0,0)
(0,0,0)
(0,0,0)
(0,0,0)
(0,0,0)
(0,0,0)
(0,0,0)
(0,0,0)
(0,0,0)
(0,0,0)
(0,0,0)
(0,0,0)
(0,0,0)
(0,0,0)
(0,0,0)
(0,0,0)
(0,0,0)
(0,0,0)
(0,0,0)
(0,0,0)
(0,0,0)
(0,0,0)
(0,0,0)
(0,0,0)
(0,0,0)
(0,0,0)
(0,0,0)
(0,0,0)
(0,0,0)
(0,0,0)
(0,0,0)
(0,0,0)
(0,0,0)
(0,0,0)
(0,0,0)
(0,0,0)
(0,0,0)
(0,0,0)
(0,0,0)
(0,0,0)
(0,0,0)
(0,0,0)
(0,0,0)
(0,0,0)
(0,0,0)
(0,0,0)
(0,0,0)
(0,0,0)
(0,0,0)
(0,0,0)
(0,0,0)
(0,0,0)
(0,0,0)
(0,0,0)
(0,0,0)
(0,0,0)
(0,0,0)
(0,0,0)
(0,0,0)
(0,0,0)
(0,0,0)
(0,0,0)
(0,0,0)
(0,0,0)
(0,0,0)
(0,0,0)
(0,0,0)
(0,0,0)
(0,0,0)
(0,0,0)
(0,0,0)
(0,0,0)
(0,0,0)
(0,0,0)
(0,0,0)
(0,0,0)
(0,0,0)
(0,0,0)
(0,0,0)
(0,0,0)
(0,0,0)
(0,0,0)
(0,0,0)
(0,0,0)
(0,0,0)
(0,0,0)
(0,0,0)
(0,0,0)
(0,0,0)
(0,0,0)
(0,0,0)
(0,0,0)
(0,0,0)
(0,0,0)
(0,0,0)
(0,0,0)
(0,0,0)
(0,0,0)
(0,0,0)
(0,0,0)
(0,0,0)
(0,0,0)
(0,0,0)
(0,0,0)
(0,0,0)
(0,0,0)
(0,0,0)
(0,0,0)
(0,0,0)
(0,0,0)
(0,0,0)
(0,0,0)
(0,0,0)
(0,0,0)
(0,0,0)
(0,0,0)
(0,0,0)
(0,0,0)
(0,0,0)
(0,0,0)
(0,0,0)
(0,0,0)
(0,0,0)
(0,0,0)
(0,0,0)
(0,0,0)
(0,0,0)
(0,0,0)
(0,0,0)
(0,0,0)
(0,0,0)
(0,0,0)
(0,0,0)
(0,0,0)
(0,0,0)
(0,0,0)
(0,0,0)
(0,0,0)
(0,0,0)
(0,0,0)
(0,0,0)
(0,0,0)
(0,0,0)
(0,0,0)
(0,0,0)
(0,0,0)
(0,0,0)
(0,0,0)
(0,0,0)
(0,0,0)
(0,0,0)
(0,0,0)
(0,0,0)
(0,0,0)
(0,0,0)
(0,0,0)
(0,0,0)
(0,0,0)
(0,0,0)
(0,0,0)
(0,0,0)
(0,0,0)
(0,0,0)
(0,0,0)
(0,0,0)
(0,0,0)
(0,0,0)
(0,0,0)
(0,0,0)
(0,0,0)
(0,0,0)
(0,0,0)
(0,0,0)
(0,0,0)
(0,0,0)
(0,0,0)
(0,0,0)
(0,0,0)
(0,0,0)
(0,0,0)
(0,0,0)
(0,0,0)
(0,0,0)
(0,0,0)
(0,0,0)
(0,0,0)
(0,0,0)
(0,0,0)
(0,0,0)
(0,0,0)
(0,0,0)
(0,0,0)
(0,0,0)
(0,0,0)
(0,0,0)
(0,0,0)
(0,0,0)
(0,0,0)
(0,0,0)
(0,0,0)
(0,0,0)
(0,0,0)
(0,0,0)
(0,0,0)
(0,0,0)
(0,0,0)
(0,0,0)
(0,0,0)
(0,0,0)
(0,0,0)
(0,0,0)
(0,0,0)
(0,0,0)
(0,0,0)
(0,0,0)
(0,0,0)
(0,0,0)
(0,0,0)
(0,0,0)
(0,0,0)
(0,0,0)
(0,0,0)
(0,0,0)
(0,0,0)
(0,0,0)
(0,0,0)
(0,0,0)
(0,0,0)
(0,0,0)
(0,0,0)
(0,0,0)
(0,0,0)
(0,0,0)
(0,0,0)
(0,0,0)
(0,0,0)
(0,0,0)
(0,0,0)
(0,0,0)
(0,0,0)
(0,0,0)
(0,0,0)
(0,0,0)
(0,0,0)
(0,0,0)
(0,0,0)
(0,0,0)
(0,0,0)
(0,0,0)
(0,0,0)
(0,0,0)
(0,0,0)
(0,0,0)
(0,0,0)
(0,0,0)
(0,0,0)
(0,0,0)
(0,0,0)
(0,0,0)
(0,0,0)
(0,0,0)
(0,0,0)
(0,0,0)
(0,0,0)
(0,0,0)
(0,0,0)
(0,0,0)
(0,0,0)
(0,0,0)
(0,0,0)
(0,0,0)
(0,0,0)
(0,0,0)
(0,0,0)
(0,0,0)
(0,0,0)
(0,0,0)
(0,0,0)
(0,0,0)
(0,0,0)
(0,0,0)
(0,0,0)
(0,0,0)
(0,0,0)
(0,0,0)
(0,0,0)
(0,0,0)
(0,0,0)
(0,0,0)
(0,0,0)
(0,0,0)
(0,0,0)
(0,0,0)
(0,0,0)
(0,0,0)
(0,0,0)
(0,0,0)
(0,0,0)
(0,0,0)
(0,0,0)
(0,0,0)
(0,0,0)
(0,0,0)
(0,0,0)
(0,0,0)
(0,0,0)
(0,0,0)
(0,0,0)
(0,0,0)
(0,0,0)
(0,0,0)
(0,0,0)
(0,0,0)
(0,0,0)
(0,0,0)
(0,0,0)
(0,0,0)
(0,0,0)
(0,0,0)
(0,0,0)
(0,0,0)
(0,0,0)
(0,0,0)
(0,0,0)
(0,0,0)
(0,0,0)
(0,0,0)
(0,0,0)
(0,0,0)
(0,0,0)
(0,0,0)
(0,0,0)
(0,0,0)
(0,0,0)
(0,0,0)
(0,0,0)
(0,0,0)
(0,0,0)
(0,0,0)
(0,0,0)
(0,0,0)
(0,0,0)
(0,0,0)
(0,0,0)
(0,0,0)
(0,0,0)
(0,0,0)
(0,0,0)
(0,0,0)
(0,0,0)
(0,0,0)
(0,0,0)
(0,0,0)
(0,0,0)
(0,0,0)
(0,0,0)
(0,0,0)
(0,0,0)
(0,0,0)
(0,0,0)
(0,0,0)
(0,0,0)
(0,0,0)
(0,0,0)
(0,0,0)
(0,0,0)
(0,0,0)
(0,0,0)
(0,0,0)
(0,0,0)
(0,0,0)
(0,0,0)
(0,0,0)
(0,0,0)
(0,0,0)
(0,0,0)
(0,0,0)
(0,0,0)
(0,0,0)
(0,0,0)
(0,0,0)
(0,0,0)
(0,0,0)
(0,0,0)
(0,0,0)
(0,0,0)
(0,0,0)
(0,0,0)
(0,0,0)
(0,0,0)
(0,0,0)
(0,0,0)
(0,0,0)
(0,0,0)
(0,0,0)
(0,0,0)
(0,0,0)
(0,0,0)
(0,0,0)
(0,0,0)
(0,0,0)
(0,0,0)
(0,0,0)
(0,0,0)
(0,0,0)
(0,0,0)
(0,0,0)
(0,0,0)
(0,0,0)
(0,0,0)
(0,0,0)
(0,0,0)
(0,0,0)
(0,0,0)
(0,0,0)
(0,0,0)
(0,0,0)
(0,0,0)
(0,0,0)
(0,0,0)
(0,0,0)
(0,0,0)
(0,0,0)
(0,0,0)
(0,0,0)
(0,0,0)
(0,0,0)
(0,0,0)
(0,0,0)
(0,0,0)
(0,0,0)
(0,0,0)
(0,0,0)
(0,0,0)
(0,0,0)
(0,0,0)
(0,0,0)
(0,0,0)
(0,0,0)
(0,0,0)
(0,0,0)
(0,0,0)
(0,0,0)
(0,0,0)
(0,0,0)
(0,0,0)
(0,0,0)
(0,0,0)
(0,0,0)
(0,0,0)
(0,0,0)
(0,0,0)
(0,0,0)
(0,0,0)
(0,0,0)
(0,0,0)
(0,0,0)
(0,0,0)
(0,0,0)
(0,0,0)
(0,0,0)
(0,0,0)
(0,0,0)
(0,0,0)
(0,0,0)
(0,0,0)
(0,0,0)
(0,0,0)
(0,0,0)
(0,0,0)
(0,0,0)
(0,0,0)
(0,0,0)
(0,0,0)
(0,0,0)
(0,0,0)
(0,0,0)
(0,0,0)
(0,0,0)
(0,0,0)
(0,0,0)
(0,0,0)
(0,0,0)
(0,0,0)
(0,0,0)
(0,0,0)
(0,0,0)
(0,0,0)
(0,0,0)
(0,0,0)
(0,0,0)
(0,0,0)
(0,0,0)
(0,0,0)
(0,0,0)
(0,0,0)
(0,0,0)
(0,0,0)
(0,0,0)
(0,0,0)
(0,0,0)
(0,0,0)
(0,0,0)
(0,0,0)
(0,0,0)
(0,0,0)
(0,0,0)
(0,0,0)
(0,0,0)
(0,0,0)
(0,0,0)
(0,0,0)
(0,0,0)
(0,0,0)
(0,0,0)
(0,0,0)
(0,0,0)
(0,0,0)
(0,0,0)
(0,0,0)
(0,0,0)
(0,0,0)
(0,0,0)
(0,0,0)
(0,0,0)
(0,0,0)
(0,0,0)
(0,0,0)
(0,0,0)
(0,0,0)
(0,0,0)
(0,0,0)
(0,0,0)
(0,0,0)
(0,0,0)
(0,0,0)
(0,0,0)
(0,0,0)
(0,0,0)
(0,0,0)
(0,0,0)
(0,0,0)
(0,0,0)
(0,0,0)
(0,0,0)
(0,0,0)
(0,0,0)
(0,0,0)
(0,0,0)
(0,0,0)
(0,0,0)
(0,0,0)
(0,0,0)
(0,0,0)
(0,0,0)
(0,0,0)
(0,0,0)
(0,0,0)
(0,0,0)
(0,0,0)
(0,0,0)
(0,0,0)
(0,0,0)
(0,0,0)
(0,0,0)
(0,0,0)
(0,0,0)
(0,0,0)
(0,0,0)
(0,0,0)
(0,0,0)
(0,0,0)
(0,0,0)
(0,0,0)
(0,0,0)
(0,0,0)
(0,0,0)
(0,0,0)
(0,0,0)
(0,0,0)
(0,0,0)
(0,0,0)
(0,0,0)
(0,0,0)
(0,0,0)
(0,0,0)
(0,0,0)
(0,0,0)
(0,0,0)
(0,0,0)
(0,0,0)
(0,0,0)
(0,0,0)
(0,0,0)
(0,0,0)
(0,0,0)
(0,0,0)
(0,0,0)
(0,0,0)
(0,0,0)
(0,0,0)
(0,0,0)
(0,0,0)
(0,0,0)
(0,0,0)
(0,0,0)
(0,0,0)
(0,0,0)
(0,0,0)
(0,0,0)
(0,0,0)
(0,0,0)
(0,0,0)
(0,0,0)
(0,0,0)
(0,0,0)
(0,0,0)
(0,0,0)
(0,0,0)
(0,0,0)
(0,0,0)
(0,0,0)
(0,0,0)
(0,0,0)
(0,0,0)
(0,0,0)
(0,0,0)
(0,0,0)
(0,0,0)
(0,0,0)
(0,0,0)
(0,0,0)
(0,0,0)
(0,0,0)
(0,0,0)
(0,0,0)
(0,0,0)
(0,0,0)
(0,0,0)
(0,0,0)
(0,0,0)
(0,0,0)
(0,0,0)
(0,0,0)
(0,0,0)
(0,0,0)
(0,0,0)
(0,0,0)
(0,0,0)
(0,0,0)
(0,0,0)
(0,0,0)
(0,0,0)
(0,0,0)
(0,0,0)
(0,0,0)
(0,0,0)
(0,0,0)
(0,0,0)
(0,0,0)
(0,0,0)
(0,0,0)
(0,0,0)
(0,0,0)
(0,0,0)
(0,0,0)
(0,0,0)
(0,0,0)
(0,0,0)
(0,0,0)
(0,0,0)
(0,0,0)
(0,0,0)
(0,0,0)
(0,0,0)
(0,0,0)
(0,0,0)
(0,0,0)
(0,0,0)
(0,0,0)
(0,0,0)
(0,0,0)
(0,0,0)
(0,0,0)
(0,0,0)
(0,0,0)
(0,0,0)
(0,0,0)
(0,0,0)
(0,0,0)
(0,0,0)
(0,0,0)
(0,0,0)
(0,0,0)
(0,0,0)
(0,0,0)
(0,0,0)
(0,0,0)
(0,0,0)
(0,0,0)
(0,0,0)
(0,0,0)
(0,0,0)
(0,0,0)
(0,0,0)
(0,0,0)
(0,0,0)
(0,0,0)
(0,0,0)
(0,0,0)
(0,0,0)
(0,0,0)
(0,0,0)
(0,0,0)
(0,0,0)
(0,0,0)
(0,0,0)
(0,0,0)
(0,0,0)
(0,0,0)
(0,0,0)
(0,0,0)
(0,0,0)
(0,0,0)
(0,0,0)
(0,0,0)
(0,0,0)
(0,0,0)
(0,0,0)
(0,0,0)
(0,0,0)
(0,0,0)
(0,0,0)
(0,0,0)
(0,0,0)
(0,0,0)
(0,0,0)
(0,0,0)
(0,0,0)
(0,0,0)
(0,0,0)
(0,0,0)
(0,0,0)
(0,0,0)
(0,0,0)
(0,0,0)
(0,0,0)
(0,0,0)
(0,0,0)
(0,0,0)
(0,0,0)
(0,0,0)
(0,0,0)
(0,0,0)
(0,0,0)
(0,0,0)
(0,0,0)
(0,0,0)
(0,0,0)
(0,0,0)
(0,0,0)
(0,0,0)
(0,0,0)
(0,0,0)
(0,0,0)
(0,0,0)
(0,0,0)
(0,0,0)
(0,0,0)
(0,0,0)
(0,0,0)
(0,0,0)
(0,0,0)
(0,0,0)
(0,0,0)
(0,0,0)
(0,0,0)
(0,0,0)
(4.15226224240468e-13,-1.03845748085964e-11,1.12930935629975e-11)
(5.62310576097138e-13,-2.21906016992577e-11,1.05483589427519e-11)
(3.44598552816871e-13,-3.82725777195517e-11,9.58426306987114e-12)
(5.94318177248156e-13,-6.21946272172151e-11,8.61668210351131e-12)
(7.88193003959255e-13,-9.79436889561336e-11,6.88112329656741e-12)
(2.94079751687776e-14,-1.54640424202685e-10,4.77845750139597e-12)
(-6.5465524546484e-13,-2.47123591878452e-10,2.68296175576461e-12)
(-2.49184128701899e-13,-4.02842907893982e-10,1.35076531967329e-12)
(1.14042613196779e-12,-6.6272609442602e-10,8.2723630935575e-13)
(1.87292819469732e-12,-1.02438331939651e-09,4.14913425817119e-13)
(0,0,0)
(0,0,0)
(0,0,0)
(0,0,0)
(0,0,0)
(0,0,0)
(7.92668707608471e-13,-9.67131765966885e-12,2.30440276970385e-11)
(1.50061868405055e-12,-2.11799855341132e-11,2.22340145207007e-11)
(1.31089210179609e-12,-3.70638788911321e-11,2.07207255010802e-11)
(1.52055307279239e-12,-6.02198236232094e-11,1.85586169496205e-11)
(8.49010403956915e-13,-9.54650261843225e-11,1.52142592971268e-11)
(-3.37144579625267e-13,-1.52339486812704e-10,1.11940418344697e-11)
(-8.43223835049582e-13,-2.45936802567354e-10,7.18347183450233e-12)
(-3.48908066013634e-13,-4.02731020449396e-10,4.41271912120976e-12)
(1.73179135229534e-12,-6.62762504865348e-10,2.4579684154806e-12)
(3.02026828931545e-12,-1.0247143139343e-09,1.13504985254315e-12)
(0,0,0)
(0,0,0)
(0,0,0)
(0,0,0)
(0,0,0)
(0,0,0)
(1.13705516470431e-12,-8.38852032016866e-12,3.97640766273069e-11)
(1.81686117391323e-12,-1.90592540712284e-11,3.91478425755545e-11)
(1.78373012277987e-12,-3.43583546739196e-11,3.70452153570917e-11)
(1.96410593808411e-12,-5.65478288919165e-11,3.34621384099299e-11)
(7.66871801002202e-13,-9.1210061059929e-11,2.84767805123058e-11)
(-5.76683887751156e-13,-1.48424271353353e-10,2.23479039534353e-11)
(-6.32638207703575e-13,-2.43784785366512e-10,1.59765599427702e-11)
(-2.58533470846369e-13,-4.0210814502168e-10,1.12189317848927e-11)
(1.49387941754998e-12,-6.62460571072143e-10,7.30095547778417e-12)
(2.06482271144426e-12,-1.02448554763168e-09,3.74058280487633e-12)
(0,0,0)
(0,0,0)
(0,0,0)
(0,0,0)
(0,0,0)
(0,0,0)
(2.90463749397896e-13,-7.35629500583003e-12,6.51869320810833e-11)
(2.74034044815765e-14,-1.63882327447177e-11,6.42982842162878e-11)
(-8.32268971793089e-13,-3.00274794086892e-11,6.16240267754412e-11)
(-8.76640292531345e-13,-5.07246685255031e-11,5.69938733949544e-11)
(-1.13368790908093e-12,-8.41603643132707e-11,5.06276106181633e-11)
(-1.184073493519e-12,-1.41351861674967e-10,4.27750398604049e-11)
(-5.47583954609965e-13,-2.3900346927139e-10,3.44883193153091e-11)
(-7.90476764819733e-13,-3.99676115804775e-10,2.64433604538145e-11)
(-5.4266712119241e-13,-6.60244112156167e-10,1.84576006975452e-11)
(-1.21291691459129e-12,-1.02179719809365e-09,9.77174200073601e-12)
(0,0,0)
(0,0,0)
(0,0,0)
(0,0,0)
(0,0,0)
(0,0,0)
(-4.86591797074527e-13,-6.15398542819681e-12,1.01808039348132e-10)
(-1.58104557510094e-12,-1.34758787401885e-11,1.00716880605858e-10)
(-3.90670625553329e-12,-2.52275199819565e-11,9.82619969405836e-11)
(-5.37114335305351e-12,-4.37624328191014e-11,9.38848460709008e-11)
(-5.24882331858918e-12,-7.46129786807581e-11,8.73133880516552e-11)
(-3.0430540848855e-12,-1.30526751573982e-10,7.91743455029756e-11)
(-4.57659888003077e-13,-2.29681498263427e-10,7.03545624973803e-11)
(-5.68448884158965e-13,-3.93388947596524e-10,5.70652683418181e-11)
(-1.44842054725139e-12,-6.53768716236589e-10,4.0675612660868e-11)
(-2.88111742628686e-12,-1.01425780923868e-09,2.13583080203017e-11)
(0,0,0)
(0,0,0)
(0,0,0)
(0,0,0)
(0,0,0)
(0,0,0)
(-2.21011726644497e-12,-4.88038868861895e-12,1.59483362285104e-10)
(-5.05285377227257e-12,-1.07664561989888e-11,1.58019277055505e-10)
(-8.20206813484615e-12,-2.08483609583331e-11,1.55587637589955e-10)
(-9.73236667291815e-12,-3.66826033452847e-11,1.51733469441669e-10)
(-8.51060616056276e-12,-6.43951714790594e-11,1.45817394831487e-10)
(-4.81303610061273e-12,-1.18334453222584e-10,1.37434236273457e-10)
(-2.00661702992868e-12,-2.17674511760856e-10,1.25763317268653e-10)
(-2.04935161227852e-12,-3.80030414339772e-10,1.0588514698676e-10)
(-3.21609794454463e-12,-6.37503884741342e-10,7.70073628168386e-11)
(-4.70072705035508e-12,-9.95671316326662e-10,4.07697119182853e-11)
(0,0,0)
(0,0,0)
(0,0,0)
(0,0,0)
(0,0,0)
(0,0,0)
(-4.06234630577781e-12,-3.59606171662068e-12,2.51881557669801e-10)
(-8.46062588502494e-12,-8.36439869361552e-12,2.50780659631193e-10)
(-1.22711071960863e-11,-1.69329680812339e-11,2.48589329231229e-10)
(-1.27469332358352e-11,-3.00503366392516e-11,2.44891783536512e-10)
(-1.0684645146978e-11,-5.4333362602522e-11,2.39323050353074e-10)
(-6.67408381960602e-12,-1.04191512394863e-10,2.29921573275591e-10)
(-5.33594744500598e-12,-1.9938084552498e-10,2.1246794782453e-10)
(-5.0415587134403e-12,-3.54564626301823e-10,1.83623438020543e-10)
(-6.19088253144496e-12,-6.0439870383304e-10,1.37201639741167e-10)
(-8.42246865905701e-12,-9.57138783038682e-10,7.45336449587281e-11)
(0,0,0)
(0,0,0)
(0,0,0)
(0,0,0)
(0,0,0)
(0,0,0)
(-5.42395416783716e-12,-2.79631283594182e-12,4.06235409102728e-10)
(-1.02984766827478e-11,-6.45568889638132e-12,4.04935309305348e-10)
(-1.47033272882013e-11,-1.32564616862796e-11,4.02511335034819e-10)
(-1.61437616586106e-11,-2.39050931433013e-11,3.98474584067322e-10)
(-1.52186911712177e-11,-4.50831870788913e-11,3.92419954381164e-10)
(-1.17177298426388e-11,-8.90212928844489e-11,3.81180580188711e-10)
(-9.768664270304e-12,-1.71862103773466e-10,3.58256099102946e-10)
(-8.93177757163577e-12,-3.10314398042232e-10,3.15217692825348e-10)
(-9.258380465244e-12,-5.43816497621959e-10,2.43779666754627e-10)
(-1.05742842807859e-11,-8.84387405578875e-10,1.37996469959968e-10)
(0,0,0)
(0,0,0)
(0,0,0)
(0,0,0)
(0,0,0)
(0,0,0)
(-7.0311827404321e-12,-1.92097439468925e-12,6.63886720176478e-10)
(-1.23085536619576e-11,-4.51442475579234e-12,6.62789839598743e-10)
(-1.71873735023367e-11,-9.33395658790195e-12,6.60251821489207e-10)
(-1.89921347401072e-11,-1.73841845395572e-11,6.55336720356323e-10)
(-1.88997168017333e-11,-3.37254523098768e-11,6.4763942546104e-10)
(-1.70952855766761e-11,-6.69297662805618e-11,6.32971748585607e-10)
(-1.49114043339824e-11,-1.29340113231739e-10,6.02649820007176e-10)
(-1.32177607117976e-11,-2.3962548971679e-10,5.44049760114879e-10)
(-1.19586106518035e-11,-4.38734352689893e-10,4.39791471893099e-10)
(-1.20232768280128e-11,-7.47315045310965e-10,2.64428127010997e-10)
(0,0,0)
(0,0,0)
(0,0,0)
(0,0,0)
(0,0,0)
(0,0,0)
(-6.88510404612283e-12,-1.39176614204005e-12,1.02535470650077e-09)
(-1.28823033379113e-11,-2.71839303639801e-12,1.02411946311257e-09)
(-1.85108671136301e-11,-4.8838726009554e-12,1.02138851674437e-09)
(-2.07897776851391e-11,-9.27071018091225e-12,1.01601786519344e-09)
(-2.14861371910303e-11,-1.8458952576119e-11,1.00700327020184e-09)
(-2.06004756645645e-11,-3.65855921693487e-11,9.89313142020064e-10)
(-1.86776344398429e-11,-7.09194449675312e-11,9.53262371620071e-10)
(-1.73879662566662e-11,-1.35560215094843e-10,8.82521108345969e-10)
(-1.49269197267477e-11,-2.63302989670114e-10,7.46520354035904e-10)
(-1.40647796911896e-11,-4.83077976945633e-10,4.83117874844668e-10)
(0,0,0)
(0,0,0)
(0,0,0)
(0,0,0)
(0,0,0)
(0,0,0)
(0,0,0)
(0,0,0)
(0,0,0)
(0,0,0)
(0,0,0)
(0,0,0)
(0,0,0)
(0,0,0)
(0,0,0)
(0,0,0)
(0,0,0)
(0,0,0)
(0,0,0)
(0,0,0)
(0,0,0)
(0,0,0)
(0,0,0)
(0,0,0)
(0,0,0)
(0,0,0)
(0,0,0)
(0,0,0)
(0,0,0)
(0,0,0)
(0,0,0)
(0,0,0)
(0,0,0)
(0,0,0)
(0,0,0)
(0,0,0)
(0,0,0)
(0,0,0)
(0,0,0)
(0,0,0)
(0,0,0)
(0,0,0)
(0,0,0)
(0,0,0)
(0,0,0)
(0,0,0)
(0,0,0)
(0,0,0)
(0,0,0)
(0,0,0)
(0,0,0)
(0,0,0)
(0,0,0)
(0,0,0)
(0,0,0)
(0,0,0)
(0,0,0)
(0,0,0)
(0,0,0)
(0,0,0)
(0,0,0)
(0,0,0)
(0,0,0)
(0,0,0)
(0,0,0)
(0,0,0)
(0,0,0)
(0,0,0)
(0,0,0)
(0,0,0)
(0,0,0)
(0,0,0)
(0,0,0)
(0,0,0)
(0,0,0)
(0,0,0)
(0,0,0)
(0,0,0)
(0,0,0)
(0,0,0)
(0,0,0)
(0,0,0)
(0,0,0)
(0,0,0)
(0,0,0)
(0,0,0)
(0,0,0)
(0,0,0)
(0,0,0)
(0,0,0)
(0,0,0)
(0,0,0)
(0,0,0)
(0,0,0)
(0,0,0)
(0,0,0)
(0,0,0)
(0,0,0)
(0,0,0)
(0,0,0)
(0,0,0)
(0,0,0)
(4.46703695557439e-13,-1.93674849350926e-11,2.16949240222505e-11)
(5.15790283828191e-13,-4.17845307761345e-11,2.05335938625442e-11)
(1.03480690757909e-13,-7.10269935568024e-11,1.83698964432988e-11)
(3.55073390170487e-13,-1.13715278444966e-10,1.55789158319423e-11)
(4.12196027276474e-13,-1.76629803552351e-10,1.14894205663622e-11)
(-1.76033669131853e-13,-2.74856894684073e-10,6.72289934692863e-12)
(-5.09248120360846e-13,-4.3265440127242e-10,2.23836916525729e-12)
(1.62457436823182e-13,-7.03541716619339e-10,-2.41180827540705e-13)
(1.58915945442162e-12,-1.22253905071092e-09,-6.40244759680157e-13)
(2.6188361578229e-12,-2.41023101309037e-09,-3.85972706018677e-13)
(0,0,0)
(0,0,0)
(0,0,0)
(0,0,0)
(0,0,0)
(0,0,0)
(3.19884544445392e-13,-1.83505260193156e-11,4.51984988005327e-11)
(8.93176240799862e-13,-3.98744602026326e-11,4.34290492616622e-11)
(7.6747643602372e-13,-6.84496830260652e-11,3.95920288911755e-11)
(1.19291599398949e-12,-1.09861500164139e-10,3.36752396556581e-11)
(6.14262742232178e-13,-1.71963962655342e-10,2.56781683817701e-11)
(-2.41790039029409e-13,-2.70796667551442e-10,1.61438354878237e-11)
(-2.24488322752113e-13,-4.3123409738807e-10,6.92866551513601e-12)
(9.8296721237121e-13,-7.04515307562547e-10,2.43142106432461e-12)
(2.7527761225115e-12,-1.22405418122977e-09,8.84321775346093e-13)
(3.92655183929034e-12,-2.41201001061255e-09,4.08235094367452e-13)
(0,0,0)
(0,0,0)
(0,0,0)
(0,0,0)
(0,0,0)
(0,0,0)
(7.21063902119103e-13,-1.64256315237141e-11,7.59936197247331e-11)
(1.24846706586951e-12,-3.61039623050159e-11,7.41401843300962e-11)
(1.03593180473477e-12,-6.28004684471432e-11,6.89945117474479e-11)
(1.12630346929053e-12,-1.0196693476772e-10,6.03004233826405e-11)
(-1.53948386839035e-13,-1.62538614418539e-10,4.88412686006832e-11)
(-1.27774955546744e-12,-2.62110250515976e-10,3.42175766254983e-11)
(-6.56326144939129e-13,-4.2766010389654e-10,1.89704771621334e-11)
(1.22741361917263e-12,-7.05148156327125e-10,1.18948910684706e-11)
(2.83779317438101e-12,-1.2255773057115e-09,8.32628056836237e-12)
(3.117055978257e-12,-2.41355158311101e-09,4.60281013693679e-12)
(0,0,0)
(0,0,0)
(0,0,0)
(0,0,0)
(0,0,0)
(0,0,0)
(-2.31979634400207e-14,-1.43486388799145e-11,1.21329080313067e-10)
(-2.10693159203085e-13,-3.10789441880134e-11,1.18886278014152e-10)
(-1.0020750180467e-12,-5.43182591265012e-11,1.12842316490388e-10)
(-1.47261322213751e-12,-8.97876129374729e-11,1.02689789028047e-10)
(-2.82850278384116e-12,-1.46630338883962e-10,8.86996203628419e-11)
(-3.72246304938291e-12,-2.45473203861113e-10,7.05464252968142e-11)
(-1.82459610107539e-12,-4.18874224138595e-10,5.09637656554514e-11)
(9.08114783244711e-13,-7.04287579187945e-10,3.8998090240848e-11)
(1.66779565661868e-12,-1.22489425693623e-09,2.8379946743211e-11)
(1.01943623196165e-12,-2.41180079140216e-09,1.5337184746012e-11)
(0,0,0)
(0,0,0)
(0,0,0)
(0,0,0)
(0,0,0)
(0,0,0)
(-6.69029794378456e-13,-1.18992071478017e-11,1.87368268154745e-10)
(-1.83558445102728e-12,-2.5360666693148e-11,1.8441545209912e-10)
(-3.90871440947669e-12,-4.43538008633273e-11,1.78368156922132e-10)
(-5.87951480763578e-12,-7.44252568628279e-11,1.68841346712943e-10)
(-7.32758797158692e-12,-1.2481540154716e-10,1.55625657943871e-10)
(-6.41556943074586e-12,-2.19252904491623e-10,1.40195043831328e-10)
(8.24647765029949e-13,-3.98330306915407e-10,1.26962711566401e-10)
(2.46267354017069e-12,-6.97858275548533e-10,9.99368982896971e-11)
(1.60405259784626e-12,-1.21742085941705e-09,7.01761050418088e-11)
(-1.09302318463086e-13,-2.40127107644451e-09,3.65144978707055e-11)
(0,0,0)
(0,0,0)
(0,0,0)
(0,0,0)
(0,0,0)
(0,0,0)
(-2.03035900884414e-12,-8.80673544710669e-12,2.86272992233303e-10)
(-5.02327181210018e-12,-1.91155827852309e-11,2.83202604583804e-10)
(-8.26329286366262e-12,-3.43816105477595e-11,2.77871927324125e-10)
(-1.04485587687583e-11,-5.88620836298233e-11,2.70281827293226e-10)
(-1.01892564790587e-11,-1.02567943103484e-10,2.59699071454478e-10)
(-7.28505792356776e-12,-1.93277969886461e-10,2.46214761549369e-10)
(-4.22112983875686e-13,-3.79664108235257e-10,2.28844988999867e-10)
(1.36264451960587e-12,-6.7781015334055e-10,1.91072585845105e-10)
(-8.36279543579204e-14,-1.19095461585443e-09,1.37456816747382e-10)
(-2.46354841943076e-12,-2.36981555895165e-09,7.22979371644551e-11)
(0,0,0)
(0,0,0)
(0,0,0)
(0,0,0)
(0,0,0)
(0,0,0)
(-3.76119714785021e-12,-5.92314258354204e-12,4.41662336290383e-10)
(-8.17800528229289e-12,-1.37911096365815e-11,4.39703172317237e-10)
(-1.22500678963193e-11,-2.61534120184648e-11,4.35589494539514e-10)
(-1.33234435483548e-11,-4.5650986332384e-11,4.29653017097015e-10)
(-1.05333435930964e-11,-8.23349845595296e-11,4.21771140676324e-10)
(-4.39067787893882e-12,-1.6418899096343e-10,4.0938564397961e-10)
(-4.0101793925419e-12,-3.49142185902324e-10,3.77213311116814e-10)
(-2.86998869378592e-12,-6.33406173332237e-10,3.30722533940086e-10)
(-4.10509396008027e-12,-1.1325690125173e-09,2.44879598948786e-10)
(-6.6402011598041e-12,-2.30228635921122e-09,1.32208433151426e-10)
(0,0,0)
(0,0,0)
(0,0,0)
(0,0,0)
(0,0,0)
(0,0,0)
(-4.99919281170903e-12,-4.36042746064404e-12,7.08145624727003e-10)
(-9.81576655280727e-12,-1.01397235253603e-11,7.06299656326481e-10)
(-1.45890814190784e-11,-1.99145412149308e-11,7.02529238733139e-10)
(-1.66100405762024e-11,-3.64343471353234e-11,6.96842062192754e-10)
(-1.53370517478043e-11,-7.04398561275729e-11,6.88463756332422e-10)
(-1.08847753607319e-11,-1.46526386867346e-10,6.73337026899929e-10)
(-9.25224853439269e-12,-3.03689241976639e-10,6.37555227463009e-10)
(-8.18265982649655e-12,-5.50757769713262e-10,5.60761141858338e-10)
(-8.55732860250639e-12,-1.02363763821745e-09,4.32648467423902e-10)
(-9.65017458910038e-12,-2.17402490954022e-09,2.46308851183239e-10)
(0,0,0)
(0,0,0)
(0,0,0)
(0,0,0)
(0,0,0)
(0,0,0)
(-6.46351041534626e-12,-3.04578081635711e-12,1.22410533305361e-09)
(-1.1566567271815e-11,-6.86123789854727e-12,1.22216827119507e-09)
(-1.67223563563956e-11,-1.42206470242627e-11,1.21845962640487e-09)
(-1.94083142034611e-11,-2.72617355649301e-11,1.21128385588265e-09)
(-1.94985396600479e-11,-5.44011445045593e-11,1.19895643022689e-09)
(-1.71175311094731e-11,-1.12753503952948e-10,1.17560282470221e-09)
(-1.47320127058782e-11,-2.26462742756491e-10,1.12601715343986e-09)
(-1.30247471119748e-11,-4.23289431391033e-10,1.02418541897179e-09)
(-1.20266287894812e-11,-8.38782953631689e-10,8.4188798892226e-10)
(-1.18322181825835e-11,-1.92979098463049e-09,5.2658952663103e-10)
(0,0,0)
(0,0,0)
(0,0,0)
(0,0,0)
(0,0,0)
(0,0,0)
(-7.04162679996042e-12,-2.07782638681638e-12,2.41164198622799e-09)
(-1.28697500061087e-11,-3.89679035921481e-12,2.40897854505437e-09)
(-1.80240881636624e-11,-7.66701925975299e-12,2.40459007400732e-09)
(-2.1045892874453e-11,-1.4818529463161e-11,2.39607557561242e-09)
(-2.22549615853782e-11,-2.9927712547596e-11,2.38105639609785e-09)
(-2.11352974339346e-11,-6.18521691299983e-11,2.35183738459188e-09)
(-1.88558161333002e-11,-1.23274780285781e-10,2.29157067681539e-09)
(-1.69474270414071e-11,-2.40748157826013e-10,2.16989986413204e-09)
(-1.48274302056296e-11,-5.23851529816465e-10,1.92923173300445e-09)
(-1.40248817920482e-11,-1.40384766988429e-09,1.40470880634209e-09)
(0,0,0)
(0,0,0)
(0,0,0)
(0,0,0)
(0,0,0)
(0,0,0)
(0,0,0)
(0,0,0)
(0,0,0)
(0,0,0)
(0,0,0)
(0,0,0)
(0,0,0)
(0,0,0)
(0,0,0)
(0,0,0)
(0,0,0)
(0,0,0)
(0,0,0)
(0,0,0)
(0,0,0)
(0,0,0)
(0,0,0)
(0,0,0)
(0,0,0)
(0,0,0)
(0,0,0)
(0,0,0)
(0,0,0)
(0,0,0)
(0,0,0)
(0,0,0)
(0,0,0)
(0,0,0)
(0,0,0)
(0,0,0)
(0,0,0)
(0,0,0)
(0,0,0)
(0,0,0)
(0,0,0)
(0,0,0)
(0,0,0)
(0,0,0)
(0,0,0)
(0,0,0)
(0,0,0)
(0,0,0)
(0,0,0)
(0,0,0)
(0,0,0)
(0,0,0)
(0,0,0)
(0,0,0)
(0,0,0)
(0,0,0)
(0,0,0)
(0,0,0)
(0,0,0)
(0,0,0)
(0,0,0)
(0,0,0)
(0,0,0)
(0,0,0)
(0,0,0)
(0,0,0)
(0,0,0)
(0,0,0)
(0,0,0)
(0,0,0)
(0,0,0)
(0,0,0)
(0,0,0)
(0,0,0)
(0,0,0)
(0,0,0)
(0,0,0)
(0,0,0)
(0,0,0)
(0,0,0)
(0,0,0)
(0,0,0)
(0,0,0)
(0,0,0)
(0,0,0)
(0,0,0)
(0,0,0)
(0,0,0)
(0,0,0)
(0,0,0)
(0,0,0)
(0,0,0)
(0,0,0)
(0,0,0)
(0,0,0)
(0,0,0)
(0,0,0)
(0,0,0)
(0,0,0)
(0,0,0)
(0,0,0)
(0,0,0)
(5.91074939152753e-13,-2.64404538455669e-11,3.02601952219843e-11)
(7.69417129253514e-13,-5.72531290146244e-11,2.89025899657137e-11)
(3.17150772349757e-13,-9.6364190136576e-11,2.58077161391481e-11)
(5.90790374524267e-13,-1.50512557029292e-10,2.08218049196577e-11)
(5.12876349925196e-13,-2.27176641936675e-10,1.35215688521367e-11)
(2.48269380066684e-13,-3.41528789575704e-10,4.87558278378326e-12)
(5.49997987441168e-13,-5.10170071918726e-10,-2.57661831915756e-12)
(1.53511231195379e-12,-7.57518014139715e-10,-5.32543468002106e-12)
(2.85001792005055e-12,-1.11233355766604e-09,-4.20659928343858e-12)
(4.01186097309883e-12,-1.54435848110091e-09,-2.14890745811604e-12)
(0,0,0)
(0,0,0)
(0,0,0)
(0,0,0)
(0,0,0)
(0,0,0)
(1.64439587596223e-13,-2.52127370752383e-11,6.29423250323635e-11)
(9.59698713487782e-13,-5.41885984066737e-11,6.00816873729967e-11)
(1.03505109092784e-12,-9.14303562076949e-11,5.41531941204456e-11)
(1.29542187210304e-12,-1.43622989912492e-10,4.44592431037913e-11)
(7.23247399810529e-13,-2.19203126594082e-10,3.04625354513447e-11)
(2.86962897887349e-13,-3.35176822604197e-10,1.26904542800052e-11)
(6.98762636168845e-13,-5.09263318252199e-10,-4.50278680340255e-12)
(3.16291526657996e-12,-7.60817844851596e-10,-9.10558648860517e-12)
(4.75198728566995e-12,-1.11607424625388e-09,-6.50291611569499e-12)
(5.87635943236738e-12,-1.54767570417922e-09,-2.82670708830142e-12)
(0,0,0)
(0,0,0)
(0,0,0)
(0,0,0)
(0,0,0)
(0,0,0)
(4.97506651268962e-13,-2.29043590304698e-11,1.03823754707392e-10)
(1.3691215324496e-12,-4.88377929308903e-11,9.9887621659329e-11)
(1.24781084928566e-12,-8.22025904541127e-11,9.14615547910027e-11)
(4.0613642055562e-13,-1.30039937190923e-10,7.78052625602169e-11)
(-1.43853194659666e-12,-2.02427917712701e-10,5.77792252811784e-11)
(-2.66769674670654e-12,-3.19853687570737e-10,2.86678013269845e-11)
(-2.36661980933187e-12,-5.07329760170059e-10,-4.49071426632266e-12)
(3.9354469800022e-12,-7.67803413254133e-10,-8.38700253860631e-12)
(5.87821483155536e-12,-1.12336078815023e-09,-2.79379502326038e-12)
(5.96907440561424e-12,-1.55305666011747e-09,2.35885714798422e-13)
(0,0,0)
(0,0,0)
(0,0,0)
(0,0,0)
(0,0,0)
(0,0,0)
(-2.98273970817127e-14,-1.97090986175252e-11,1.61213025269405e-10)
(1.1499087052318e-13,-4.14390847041248e-11,1.56693731357174e-10)
(-8.14005819638011e-13,-6.9313616839036e-11,1.47028886568957e-10)
(-2.84480063264934e-12,-1.100060094762e-10,1.31220613644079e-10)
(-6.49024505434986e-12,-1.73718956837259e-10,1.06836870948976e-10)
(-1.03601027765708e-11,-2.87434691021421e-10,6.88145285461859e-11)
(-1.04028379094302e-11,-5.00944367336125e-10,1.6928586740473e-11)
(5.09695464119111e-12,-7.8107308617813e-10,1.59871951046391e-11)
(7.23716013547544e-12,-1.13315986607978e-09,1.86819776833099e-11)
(5.826906019027e-12,-1.55799408231828e-09,1.25660360624608e-11)
(0,0,0)
(0,0,0)
(0,0,0)
(0,0,0)
(0,0,0)
(0,0,0)
(-8.08685440140851e-13,-1.59278807760407e-11,2.42795837592174e-10)
(-2.0333731811069e-12,-3.2827491912157e-11,2.38055002110602e-10)
(-4.35409451724405e-12,-5.4009335229346e-11,2.28262714822805e-10)
(-8.22699927142524e-12,-8.45197333875159e-11,2.13111169854683e-10)
(-1.41444323011383e-11,-1.32585601412083e-10,1.91727673063041e-10)
(-1.9158171772034e-11,-2.25253822939795e-10,1.66801504026675e-10)
(9.1842623604815e-12,-4.46569189916659e-10,1.73592016863542e-10)
(1.21753445798495e-11,-7.95493129026448e-10,1.14928388288066e-10)
(8.79941620807757e-12,-1.13743169077225e-09,7.83652744148455e-11)
(4.94967805896109e-12,-1.55234763110429e-09,4.12029401400713e-11)
(0,0,0)
(0,0,0)
(0,0,0)
(0,0,0)
(0,0,0)
(0,0,0)
(-1.8435642226792e-12,-1.13380777745112e-11,3.5711627764926e-10)
(-5.01706770131142e-12,-2.33626948863714e-11,3.5304605119689e-10)
(-8.9013913618774e-12,-3.82913037752174e-11,3.45102753095671e-10)
(-1.30769002262669e-11,-5.90146495723778e-11,3.33609887897551e-10)
(-1.69379051186365e-11,-9.33439822675979e-11,3.18882265430914e-10)
(-1.90042642974642e-11,-1.77070469031785e-10,3.02269697051386e-10)
(6.82836783903374e-12,-4.4378122719429e-10,3.05136475097819e-10)
(1.05744336080857e-11,-7.84666906301981e-10,2.41143202048711e-10)
(6.68964829196985e-12,-1.11240098327223e-09,1.67967664040865e-10)
(2.30518900410197e-12,-1.51828179268732e-09,8.69513016891272e-11)
(0,0,0)
(0,0,0)
(0,0,0)
(0,0,0)
(0,0,0)
(0,0,0)
(-3.36474829588969e-12,-7.21996219144055e-12,5.21563637453061e-10)
(-7.71571361776653e-12,-1.5503512277916e-11,5.18908661379085e-10)
(-1.2552461257087e-11,-2.54980804465979e-11,5.13459049953043e-10)
(-1.4658206324683e-11,-3.8081863742605e-11,5.07270165487916e-10)
(-1.00429753282519e-11,-5.67042035556635e-11,5.04580109085919e-10)
(1.01190508883352e-11,-1.09408857230285e-10,5.08796077537788e-10)
(-2.9723461418709e-12,-4.15386984793097e-10,4.44504001693383e-10)
(3.24542677657613e-13,-7.35605450209833e-10,4.25594363498628e-10)
(-3.65302461914065e-13,-1.04254041337488e-09,2.96892572980331e-10)
(-2.6932176796062e-12,-1.43802240724502e-09,1.53289532669565e-10)
(0,0,0)
(0,0,0)
(0,0,0)
(0,0,0)
(0,0,0)
(0,0,0)
(-4.46787105460844e-12,-4.60547680355997e-12,7.61839481628363e-10)
(-9.32383458606533e-12,-1.02351181999522e-11,7.59778724953343e-10)
(-1.45957990702059e-11,-1.78317398156437e-11,7.55558995887193e-10)
(-1.74043462853315e-11,-3.04123930681572e-11,7.5150462339399e-10)
(-1.62490339390395e-11,-5.7987708885716e-11,7.49806463434616e-10)
(-8.87585883804644e-12,-1.38910496009505e-10,7.50723512369612e-10)
(-9.68466215028641e-12,-3.76762186316145e-10,7.30953784232405e-10)
(-7.5383237148414e-12,-6.09488984984407e-10,6.23179024410143e-10)
(-7.07239694769304e-12,-9.03243710467738e-10,4.5583423134565e-10)
(-7.57524831482113e-12,-1.28879872767919e-09,2.46532103480649e-10)
(0,0,0)
(0,0,0)
(0,0,0)
(0,0,0)
(0,0,0)
(0,0,0)
(-5.49440298697419e-12,-2.7540805186298e-12,1.11105381828787e-09)
(-1.08223700213609e-11,-6.28653146726181e-12,1.10910146131909e-09)
(-1.61002135974463e-11,-1.2773085057611e-11,1.10520028685629e-09)
(-1.95240946499434e-11,-2.49421112727566e-11,1.09936258010138e-09)
(-2.06183660918338e-11,-5.25158790031955e-11,1.09047726057999e-09)
(-1.84331946701153e-11,-1.20550376151425e-10,1.07249929043588e-09)
(-1.60882407081487e-11,-2.64646567782379e-10,1.02414081984731e-09)
(-1.32685906290079e-11,-4.41560133820752e-10,9.00345404135392e-10)
(-1.16595903122179e-11,-6.94904833272822e-10,6.98130497929893e-10)
(-1.11860062981318e-11,-1.04373248845045e-09,4.01613373311433e-10)
(0,0,0)
(0,0,0)
(0,0,0)
(0,0,0)
(0,0,0)
(0,0,0)
(-6.45601201438564e-12,-1.61738506064153e-12,1.54163848944496e-09)
(-1.23780693181208e-11,-3.38766571110353e-12,1.53903107622009e-09)
(-1.71766090284322e-11,-7.1783718889223e-12,1.53404316994193e-09)
(-2.08452428228139e-11,-1.44010417021442e-11,1.52554921321634e-09)
(-2.29636626268112e-11,-3.07766611608611e-11,1.51151949702764e-09)
(-2.27207587884012e-11,-6.81973558900785e-11,1.48251328942451e-09)