/*--------------------------------*- C++ -*----------------------------------*\
| =========                 |                                                 |
| \\      /  F ield         | foam-extend: Open Source CFD                    |
|  \\    /   O peration     | Version:     4.0                                |
|   \\  /    A nd           | Web:         http://www.foam-extend.org         |
|    \\/     M anipulation  |                                                 |
\*---------------------------------------------------------------------------*/
FoamFile
{
    version 2.0;
    format ascii;
    class volVectorField;
    location "1251";
    object      E;
}
// * * * * * * * * * * * * * * * * * * * * * * * * * * * * * * * * * * * * * //

dimensions      [0 1 -1 0 0 0 0];

internalField   nonuniform List<vector>
4096
(
(0,0,0)
(0,0,0)
(0,0,0)
(0,0,0)
(0,0,0)
(0,0,0)
(0,0,0)
(0,0,0)
(0,0,0)
(0,0,0)
(0,0,0)
(0,0,0)
(0,0,0)
(0,0,0)
(0,0,0)
(0,0,0)
(0,0,0)
(0,0,0)
(0,0,0)
(0,0,0)
(0,0,0)
(0,0,0)
(0,0,0)
(0,0,0)
(0,0,0)
(0,0,0)
(0,0,0)
(0,0,0)
(0,0,0)
(0,0,0)
(0,0,0)
(0,0,0)
(0,0,0)
(0,0,0)
(0,0,0)
(0,0,0)
(0,0,0)
(0,0,0)
(0,0,0)
(0,0,0)
(0,0,0)
(0,0,0)
(0,0,0)
(0,0,0)
(0,0,0)
(0,0,0)
(0,0,0)
(0,0,0)
(0,0,0)
(0,0,0)
(0,0,0)
(0,0,0)
(0,0,0)
(0,0,0)
(0,0,0)
(0,0,0)
(0,0,0)
(0,0,0)
(0,0,0)
(0,0,0)
(0,0,0)
(0,0,0)
(0,0,0)
(0,0,0)
(0,0,0)
(0,0,0)
(0,0,0)
(0,0,0)
(0,0,0)
(0,0,0)
(0,0,0)
(0,0,0)
(0,0,0)
(0,0,0)
(0,0,0)
(0,0,0)
(0,0,0)
(0,0,0)
(0,0,0)
(0,0,0)
(0,0,0)
(0,0,0)
(0,0,0)
(0,0,0)
(0,0,0)
(0,0,0)
(0,0,0)
(0,0,0)
(0,0,0)
(0,0,0)
(0,0,0)
(0,0,0)
(0,0,0)
(0,0,0)
(0,0,0)
(0,0,0)
(0,0,0)
(0,0,0)
(0,0,0)
(0,0,0)
(0,0,0)
(0,0,0)
(0,0,0)
(0,0,0)
(0,0,0)
(0,0,0)
(0,0,0)
(0,0,0)
(0,0,0)
(0,0,0)
(0,0,0)
(0,0,0)
(0,0,0)
(0,0,0)
(0,0,0)
(0,0,0)
(0,0,0)
(0,0,0)
(0,0,0)
(0,0,0)
(0,0,0)
(0,0,0)
(0,0,0)
(0,0,0)
(0,0,0)
(0,0,0)
(0,0,0)
(0,0,0)
(0,0,0)
(0,0,0)
(0,0,0)
(0,0,0)
(0,0,0)
(0,0,0)
(0,0,0)
(0,0,0)
(0,0,0)
(0,0,0)
(0,0,0)
(0,0,0)
(0,0,0)
(0,0,0)
(0,0,0)
(0,0,0)
(0,0,0)
(0,0,0)
(0,0,0)
(0,0,0)
(0,0,0)
(0,0,0)
(0,0,0)
(0,0,0)
(0,0,0)
(0,0,0)
(0,0,0)
(0,0,0)
(0,0,0)
(0,0,0)
(0,0,0)
(0,0,0)
(0,0,0)
(0,0,0)
(0,0,0)
(0,0,0)
(0,0,0)
(0,0,0)
(0,0,0)
(0,0,0)
(0,0,0)
(0,0,0)
(0,0,0)
(0,0,0)
(0,0,0)
(0,0,0)
(0,0,0)
(0,0,0)
(0,0,0)
(0,0,0)
(0,0,0)
(0,0,0)
(0,0,0)
(0,0,0)
(0,0,0)
(0,0,0)
(0,0,0)
(0,0,0)
(0,0,0)
(0,0,0)
(0,0,0)
(0,0,0)
(0,0,0)
(0,0,0)
(0,0,0)
(0,0,0)
(0,0,0)
(0,0,0)
(0,0,0)
(0,0,0)
(0,0,0)
(0,0,0)
(0,0,0)
(0,0,0)
(0,0,0)
(0,0,0)
(0,0,0)
(0,0,0)
(0,0,0)
(0,0,0)
(0,0,0)
(0,0,0)
(0,0,0)
(0,0,0)
(0,0,0)
(0,0,0)
(0,0,0)
(0,0,0)
(0,0,0)
(0,0,0)
(0,0,0)
(0,0,0)
(0,0,0)
(0,0,0)
(0,0,0)
(0,0,0)
(0,0,0)
(0,0,0)
(0,0,0)
(0,0,0)
(0,0,0)
(0,0,0)
(0,0,0)
(0,0,0)
(0,0,0)
(0,0,0)
(0,0,0)
(0,0,0)
(0,0,0)
(0,0,0)
(0,0,0)
(0,0,0)
(0,0,0)
(0,0,0)
(0,0,0)
(0,0,0)
(0,0,0)
(0,0,0)
(0,0,0)
(0,0,0)
(0,0,0)
(0,0,0)
(0,0,0)
(0,0,0)
(0,0,0)
(0,0,0)
(0,0,0)
(0,0,0)
(0,0,0)
(0,0,0)
(0,0,0)
(0,0,0)
(0,0,0)
(0,0,0)
(0,0,0)
(0,0,0)
(0,0,0)
(0,0,0)
(0,0,0)
(0,0,0)
(0,0,0)
(0,0,0)
(0,0,0)
(0,0,0)
(0,0,0)
(0,0,0)
(0,0,0)
(0,0,0)
(0,0,0)
(0,0,0)
(0,0,0)
(0,0,0)
(0,0,0)
(0,0,0)
(0,0,0)
(0,0,0)
(0,0,0)
(0,0,0)
(0,0,0)
(0,0,0)
(0,0,0)
(0,0,0)
(0,0,0)
(0,0,0)
(0,0,0)
(0,0,0)
(0,0,0)
(0,0,0)
(0,0,0)
(0,0,0)
(0,0,0)
(0,0,0)
(0,0,0)
(0,0,0)
(0,0,0)
(0,0,0)
(0,0,0)
(0,0,0)
(0,0,0)
(0,0,0)
(0,0,0)
(0,0,0)
(0,0,0)
(0,0,0)
(0,0,0)
(0,0,0)
(0,0,0)
(0,0,0)
(0,0,0)
(0,0,0)
(0,0,0)
(0,0,0)
(0,0,0)
(0,0,0)
(0,0,0)
(0,0,0)
(0,0,0)
(0,0,0)
(0,0,0)
(0,0,0)
(0,0,0)
(0,0,0)
(0,0,0)
(0,0,0)
(0,0,0)
(0,0,0)
(0,0,0)
(0,0,0)
(0,0,0)
(0,0,0)
(0,0,0)
(0,0,0)
(0,0,0)
(0,0,0)
(0,0,0)
(0,0,0)
(0,0,0)
(0,0,0)
(0,0,0)
(0,0,0)
(0,0,0)
(0,0,0)
(0,0,0)
(0,0,0)
(0,0,0)
(0,0,0)
(0,0,0)
(0,0,0)
(0,0,0)
(0,0,0)
(0,0,0)
(0,0,0)
(0,0,0)
(0,0,0)
(0,0,0)
(0,0,0)
(0,0,0)
(0,0,0)
(0,0,0)
(0,0,0)
(0,0,0)
(0,0,0)
(0,0,0)
(0,0,0)
(0,0,0)
(0,0,0)
(0,0,0)
(0,0,0)
(0,0,0)
(0,0,0)
(0,0,0)
(0,0,0)
(0,0,0)
(0,0,0)
(0,0,0)
(0,0,0)
(0,0,0)
(0,0,0)
(0,0,0)
(0,0,0)
(0,0,0)
(0,0,0)
(0,0,0)
(0,0,0)
(0,0,0)
(0,0,0)
(0,0,0)
(0,0,0)
(0,0,0)
(0,0,0)
(0,0,0)
(0,0,0)
(0,0,0)
(0,0,0)
(0,0,0)
(0,0,0)
(0,0,0)
(0,0,0)
(0,0,0)
(0,0,0)
(0,0,0)
(0,0,0)
(0,0,0)
(0,0,0)
(0,0,0)
(0,0,0)
(0,0,0)
(0,0,0)
(0,0,0)
(0,0,0)
(0,0,0)
(0,0,0)
(0,0,0)
(0,0,0)
(0,0,0)
(0,0,0)
(0,0,0)
(0,0,0)
(0,0,0)
(0,0,0)
(0,0,0)
(0,0,0)
(0,0,0)
(0,0,0)
(0,0,0)
(0,0,0)
(0,0,0)
(0,0,0)
(0,0,0)
(0,0,0)
(0,0,0)
(0,0,0)
(0,0,0)
(0,0,0)
(0,0,0)
(0,0,0)
(0,0,0)
(0,0,0)
(0,0,0)
(0,0,0)
(0,0,0)
(0,0,0)
(0,0,0)
(0,0,0)
(0,0,0)
(0,0,0)
(0,0,0)
(0,0,0)
(0,0,0)
(0,0,0)
(0,0,0)
(0,0,0)
(0,0,0)
(0,0,0)
(0,0,0)
(0,0,0)
(0,0,0)
(0,0,0)
(0,0,0)
(0,0,0)
(0,0,0)
(0,0,0)
(0,0,0)
(0,0,0)
(0,0,0)
(0,0,0)
(0,0,0)
(0,0,0)
(0,0,0)
(0,0,0)
(0,0,0)
(0,0,0)
(0,0,0)
(0,0,0)
(0,0,0)
(0,0,0)
(0,0,0)
(0,0,0)
(0,0,0)
(0,0,0)
(0,0,0)
(0,0,0)
(0,0,0)
(0,0,0)
(0,0,0)
(0,0,0)
(0,0,0)
(0,0,0)
(0,0,0)
(0,0,0)
(0,0,0)
(0,0,0)
(0,0,0)
(0,0,0)
(0,0,0)
(0,0,0)
(0,0,0)
(0,0,0)
(0,0,0)
(0,0,0)
(0,0,0)
(0,0,0)
(0,0,0)
(0,0,0)
(0,0,0)
(0,0,0)
(0,0,0)
(0,0,0)
(0,0,0)
(0,0,0)
(0,0,0)
(0,0,0)
(0,0,0)
(0,0,0)
(0,0,0)
(0,0,0)
(0,0,0)
(0,0,0)
(0,0,0)
(0,0,0)
(0,0,0)
(0,0,0)
(0,0,0)
(0,0,0)
(0,0,0)
(0,0,0)
(0,0,0)
(0,0,0)
(0,0,0)
(0,0,0)
(0,0,0)
(0,0,0)
(0,0,0)
(0,0,0)
(0,0,0)
(0,0,0)
(0,0,0)
(0,0,0)
(0,0,0)
(0,0,0)
(0,0,0)
(0,0,0)
(0,0,0)
(0,0,0)
(0,0,0)
(0,0,0)
(0,0,0)
(0,0,0)
(0,0,0)
(0,0,0)
(0,0,0)
(0,0,0)
(0,0,0)
(0,0,0)
(0,0,0)
(0,0,0)
(0,0,0)
(0,0,0)
(0,0,0)
(0,0,0)
(0,0,0)
(0,0,0)
(0,0,0)
(0,0,0)
(0,0,0)
(0,0,0)
(0,0,0)
(0,0,0)
(0,0,0)
(0,0,0)
(0,0,0)
(0,0,0)
(0,0,0)
(0,0,0)
(0,0,0)
(0,0,0)
(0,0,0)
(0,0,0)
(0,0,0)
(0,0,0)
(0,0,0)
(0,0,0)
(0,0,0)
(0,0,0)
(0,0,0)
(0,0,0)
(0,0,0)
(0,0,0)
(0,0,0)
(0,0,0)
(0,0,0)
(0,0,0)
(0,0,0)
(0,0,0)
(0,0,0)
(0,0,0)
(0,0,0)
(0,0,0)
(0,0,0)
(0,0,0)
(0,0,0)
(0,0,0)
(0,0,0)
(0,0,0)
(0,0,0)
(0,0,0)
(0,0,0)
(0,0,0)
(0,0,0)
(0,0,0)
(0,0,0)
(0,0,0)
(0,0,0)
(0,0,0)
(0,0,0)
(0,0,0)
(0,0,0)
(0,0,0)
(0,0,0)
(0,0,0)
(0,0,0)
(0,0,0)
(0,0,0)
(0,0,0)
(0,0,0)
(0,0,0)
(0,0,0)
(0,0,0)
(0,0,0)
(0,0,0)
(0,0,0)
(0,0,0)
(0,0,0)
(0,0,0)
(0,0,0)
(0,0,0)
(0,0,0)
(0,0,0)
(0,0,0)
(0,0,0)
(0,0,0)
(0,0,0)
(0,0,0)
(0,0,0)
(0,0,0)
(0,0,0)
(0,0,0)
(0,0,0)
(0,0,0)
(0,0,0)
(0,0,0)
(0,0,0)
(0,0,0)
(0,0,0)
(0,0,0)
(0,0,0)
(0,0,0)
(0,0,0)
(0,0,0)
(0,0,0)
(0,0,0)
(0,0,0)
(0,0,0)
(0,0,0)
(0,0,0)
(0,0,0)
(0,0,0)
(0,0,0)
(0,0,0)
(0,0,0)
(0,0,0)
(0,0,0)
(0,0,0)
(0,0,0)
(0,0,0)
(0,0,0)
(0,0,0)
(0,0,0)
(0,0,0)
(0,0,0)
(0,0,0)
(0,0,0)
(0,0,0)
(0,0,0)
(0,0,0)
(0,0,0)
(0,0,0)
(0,0,0)
(0,0,0)
(0,0,0)
(0,0,0)
(0,0,0)
(0,0,0)
(0,0,0)
(0,0,0)
(0,0,0)
(0,0,0)
(0,0,0)
(0,0,0)
(0,0,0)
(0,0,0)
(0,0,0)
(0,0,0)
(0,0,0)
(0,0,0)
(0,0,0)
(0,0,0)
(0,0,0)
(0,0,0)
(0,0,0)
(0,0,0)
(0,0,0)
(0,0,0)
(0,0,0)
(0,0,0)
(0,0,0)
(0,0,0)
(0,0,0)
(0,0,0)
(0,0,0)
(0,0,0)
(0,0,0)
(0,0,0)
(0,0,0)
(0,0,0)
(0,0,0)
(0,0,0)
(0,0,0)
(0,0,0)
(0,0,0)
(0,0,0)
(0,0,0)
(0,0,0)
(0,0,0)
(0,0,0)
(0,0,0)
(0,0,0)
(0,0,0)
(0,0,0)
(0,0,0)
(0,0,0)
(0,0,0)
(0,0,0)
(0,0,0)
(0,0,0)
(0,0,0)
(0,0,0)
(0,0,0)
(0,0,0)
(0,0,0)
(0,0,0)
(0,0,0)
(0,0,0)
(0,0,0)
(0,0,0)
(0,0,0)
(0,0,0)
(0,0,0)
(0,0,0)
(0,0,0)
(0,0,0)
(0,0,0)
(0,0,0)
(0,0,0)
(0,0,0)
(0,0,0)
(0,0,0)
(0,0,0)
(0,0,0)
(0,0,0)
(0,0,0)
(0,0,0)
(0,0,0)
(0,0,0)
(0,0,0)
(0,0,0)
(0,0,0)
(0,0,0)
(0,0,0)
(0,0,0)
(0,0,0)
(0,0,0)
(0,0,0)
(0,0,0)
(0,0,0)
(0,0,0)
(0,0,0)
(0,0,0)
(0,0,0)
(0,0,0)
(0,0,0)
(0,0,0)
(0,0,0)
(0,0,0)
(0,0,0)
(0,0,0)
(0,0,0)
(0,0,0)
(0,0,0)
(0,0,0)
(0,0,0)
(0,0,0)
(0,0,0)
(0,0,0)
(0,0,0)
(0,0,0)
(0,0,0)
(0,0,0)
(0,0,0)
(0,0,0)
(0,0,0)
(-79717.4131480469,42634.5755251749,37082.8376228719)
(-84326.084409821,40897.5477198424,80511.3743128505)
(-94975.4304945004,37208.8408802904,138277.963927061)
(-115054.379716253,31433.4991801041,221898.844463211)
(-151195.881845472,23635.4840977907,349459.242210899)
(-216095.342341377,14682.4788083646,550872.105743899)
(-333694.94581823,6588.42446664613,877978.627095516)
(-546351.504713891,1658.1551691263,1422671.97664027)
(-901112.383149725,-4.84374417884543,2323789.20353424)
(-1255565.69217071,-170.779871198443,3579525.67557615)
(0,0,0)
(0,0,0)
(0,0,0)
(0,0,0)
(0,0,0)
(0,0,0)
(-84281.4913945513,91532.0108963478,35384.056023378)
(-88929.6250524241,88266.9337843513,76944.2950112963)
(-99739.3109398995,81267.4311029414,132625.015728542)
(-120294.995818374,70125.3212370815,214228.189489942)
(-157465.658346431,54734.9611144951,340594.370819667)
(-223945.314056477,36434.2795803284,542787.884104185)
(-342836.300001609,19193.9264153781,873018.68215703)
(-554664.518322972,8310.24244166168,1421031.11320744)
(-906665.278625609,4024.89864400684,2323666.64944492)
(-1258163.7591286,2023.16549086101,3579636.46321138)
(0,0,0)
(0,0,0)
(0,0,0)
(0,0,0)
(0,0,0)
(0,0,0)
(-94828.7329604465,154205.195305475,32155.5485513182)
(-99535.2732268611,149808.766235907,70148.9893266236)
(-110666.79015764,140342.442137482,121740.768449727)
(-132238.981875923,124969.712900426,199135.358662308)
(-171801.516973185,103060.373666552,322611.463083436)
(-242425.522117993,75707.9235548646,525763.341226893)
(-365413.375856158,48120.6865981598,862249.956900273)
(-575426.919123266,29199.1030020891,1416788.01546308)
(-920044.275461304,19212.6219106925,2321644.56765777)
(-1264238.42384035,10403.1368273557,3577503.02016161)
(0,0,0)
(0,0,0)
(0,0,0)
(0,0,0)
(0,0,0)
(0,0,0)
(-114429.136161721,240861.55133129,27772.7801359066)
(-119235.844413257,235945.573972711,60871.8168123608)
(-130791.444452792,225340.903881958,106664.79952067)
(-153826.919885692,207883.811619161,177577.620687623)
(-197301.531594474,182324.94165851,295614.584290142)
(-275851.291030123,148769.720035288,498404.078839837)
(-408616.529385652,111655.584620448,843485.710203213)
(-615597.623089239,81395.8313989823,1406886.60489553)
(-944544.907859257,57814.1280613198,2312830.00660412)
(-1274924.66297729,31092.6720522605,3567065.13435659)
(0,0,0)
(0,0,0)
(0,0,0)
(0,0,0)
(0,0,0)
(0,0,0)
(-149497.745354166,367463.489690193,22895.8069952629)
(-154278.883254138,362655.000625753,50465.2635963584)
(-166069.380889436,352346.339915722,89529.2084520296)
(-190354.765371736,335361.648647871,152406.13679506)
(-237898.159387305,310181.179723825,262448.058117055)
(-326270.947146406,275973.64645338,461515.078845354)
(-474421.79571603,234216.10183635,813376.357345487)
(-676785.009517784,188093.35194748,1383463.8463148)
(-980169.035735904,135192.165185191,2286254.84492688)
(-1290377.06646874,71653.4214123041,3536071.16203559)
(0,0,0)
(0,0,0)
(0,0,0)
(0,0,0)
(0,0,0)
(0,0,0)
(-212816.797347854,562132.789735295,18147.4973027517)
(-217353.704249078,557849.647907733,40306.554269849)
(-228760.498703964,548672.570978659,72740.8219108762)
(-252805.189129793,533398.272034006,127509.387654531)
(-300866.099963748,509982.98863332,228573.678708784)
(-390954.537893507,475520.140639415,419981.722416263)
(-539583.243874048,426310.529008444,767470.539118241)
(-732775.929970866,357571.106505495,1330768.71453107)
(-1018754.21943828,261824.916175695,2222890.18297889)
(-1309821.03574711,139767.723663871,3464596.91647435)
(0,0,0)
(0,0,0)
(0,0,0)
(0,0,0)
(0,0,0)
(0,0,0)
(-329130.386547971,877400.149228484,13863.0270547834)
(-333142.508919183,873699.027587076,31156.1562946212)
(-343381.609376559,865703.243734969,57507.0929148739)
(-365361.081692146,852043.747015399,104222.69962563)
(-410002.610440711,829886.618519731,194321.680179931)
(-494647.485455873,793516.556401503,370972.749873709)
(-634122.140377411,732481.108639036,698924.310620531)
(-809774.484403987,631060.486214955,1235209.41531505)
(-1076219.3221235,472170.940088307,2101082.71352588)
(-1341526.28821254,257250.018377832,3325126.7070245)
(0,0,0)
(0,0,0)
(0,0,0)
(0,0,0)
(0,0,0)
(0,0,0)
(-541877.419486898,1409126.95069863,10150.6180167444)
(-545088.672854563,1405752.84206672,23185.476391667)
(-553340.449391563,1398305.54270076,43923.6268174488)
(-571232.495652776,1385012.46230356,82187.4071820551)
(-607920.168601171,1361839.07259753,158155.121705425)
(-678280.021805391,1319793.81868411,310157.88122821)
(-795088.719512644,1240037.94557411,597689.763805765)
(-937289.657147417,1089516.06090146,1076523.8462667)
(-1180613.3260843,842859.856716995,1886448.25572231)
(-1402173.20041366,477731.182667016,3068140.29184673)
(0,0,0)
(0,0,0)
(0,0,0)
(0,0,0)
(0,0,0)
(0,0,0)
(-898116.137593336,2300495.33726471,6747.75102724337)
(-900323.894362098,2297082.06471651,15742.422739566)
(-905943.984407808,2289277.17509046,30714.7747576388)
(-917957.717546031,2274544.77771198,59140.1768952524)
(-942187.471606425,2246883.67997652,116283.041122694)
(-987726.015516976,2193234.44011283,230568.435210939)
(-1064189.16022851,2087453.9558902,447341.585123359)
(-1177770.20925857,1884510.5649626,830117.290320786)
(-1373117.3381137,1524513.44839591,1521581.03675554)
(-1507935.91941091,916600.087738195,2590648.05109528)
(0,0,0)
(0,0,0)
(0,0,0)
(0,0,0)
(0,0,0)
(0,0,0)
(-1254210.00990727,3551319.14135696,3386.20581500552)
(-1255314.41443597,3547721.52814469,8061.15682279519)
(-1258117.12692396,3539367.46523939,16087.9935978606)
(-1264006.52038872,3523096.3844903,31542.907208272)
(-1275732.10607404,3491451.55112597,62707.1421328792)
(-1297671.24012222,3428685.98599023,124926.836377684)
(-1335936.5445028,3303736.61967167,244580.717099002)
(-1400402.12397974,3059102.99326959,470390.412771709)
(-1507580.67453765,2588600.22586054,913884.309844712)
(-1518281.92249182,1674512.27582656,1674254.04424818)
(0,0,0)
(0,0,0)
(0,0,0)
(0,0,0)
(0,0,0)
(0,0,0)
(0,0,0)
(0,0,0)
(0,0,0)
(0,0,0)
(0,0,0)
(0,0,0)
(0,0,0)
(0,0,0)
(0,0,0)
(0,0,0)
(0,0,0)
(0,0,0)
(0,0,0)
(0,0,0)
(0,0,0)
(0,0,0)
(0,0,0)
(0,0,0)
(0,0,0)
(0,0,0)
(0,0,0)
(0,0,0)
(0,0,0)
(0,0,0)
(0,0,0)
(0,0,0)
(0,0,0)
(0,0,0)
(0,0,0)
(0,0,0)
(0,0,0)
(0,0,0)
(0,0,0)
(0,0,0)
(0,0,0)
(0,0,0)
(0,0,0)
(0,0,0)
(0,0,0)
(0,0,0)
(0,0,0)
(0,0,0)
(0,0,0)
(0,0,0)
(0,0,0)
(0,0,0)
(0,0,0)
(0,0,0)
(0,0,0)
(0,0,0)
(0,0,0)
(0,0,0)
(0,0,0)
(0,0,0)
(0,0,0)
(0,0,0)
(0,0,0)
(0,0,0)
(0,0,0)
(0,0,0)
(0,0,0)
(0,0,0)
(0,0,0)
(0,0,0)
(0,0,0)
(0,0,0)
(0,0,0)
(0,0,0)
(0,0,0)
(0,0,0)
(0,0,0)
(0,0,0)
(0,0,0)
(0,0,0)
(0,0,0)
(0,0,0)
(0,0,0)
(0,0,0)
(0,0,0)
(0,0,0)
(0,0,0)
(0,0,0)
(0,0,0)
(0,0,0)
(0,0,0)
(0,0,0)
(0,0,0)
(0,0,0)
(0,0,0)
(0,0,0)
(0,0,0)
(0,0,0)
(0,0,0)
(0,0,0)
(0,0,0)
(0,0,0)
(11775799.5355143,37996.1865835979,32559.2509544766)
(11768110.6367535,36219.7878924349,69975.1280991058)
(11750410.9273134,32379.2515633608,118281.904928254)
(11717410.6034368,26136.1335143889,185753.174461209)
(11658757.1209958,17330.1268550566,284542.430965277)
(11554399.2775596,6821.94100454902,433298.256260038)
(11362796.3320446,-2565.85597250031,665445.220570097)
(10983908.1893282,-6678.87980470298,1067936.79253305)
(10129092.3051499,-5542.93683264384,1969347.42726645)
(7807492.86042501,-2733.30078116719,4835094.56165231)
(0,0,0)
(0,0,0)
(0,0,0)
(0,0,0)
(0,0,0)
(0,0,0)
(11768006.4323765,80992.9820737193,30787.6669392606)
(11760303.4610106,77625.6096796737,66221.145289436)
(11742468.8948271,70300.5428105503,112164.034475666)
(11708841.2310259,58137.267712108,177099.059634037)
(11648538.3211463,40363.2737661505,274134.319430604)
(11541206.9322072,17952.5628776278,423923.837494256)
(11346673.7145898,-3358.49246363782,661278.845594454)
(10969393.5143577,-12427.9622642397,1069042.28157372)
(10120059.3201472,-9310.79122167826,1972157.92339031)
(7803530.29157656,-3995.73851771579,4837798.69662202)
(0,0,0)
(0,0,0)
(0,0,0)
(0,0,0)
(0,0,0)
(0,0,0)
(11750198.2678494,134583.621620528,27454.7458437987)
(11742493.4290929,130088.409674169,59035.6297300046)
(11724338.630997,120199.914679905,100203.222906428)
(11689249.141531,103345.464466764,159579.288945302)
(11624738.9992575,77512.5541747232,251961.87850635)
(11508564.2556126,42260.4841582567,402736.565695496)
(11302877.3531159,4930.23215030022,652229.498309982)
(10929237.2193595,-10949.0381726508,1072158.82193614)
(10096697.986397,-5269.07254003575,1977447.22759653)
(7793821.84180857,-261.047112401294,4841724.65674278)
(0,0,0)
(0,0,0)
(0,0,0)
(0,0,0)
(0,0,0)
(0,0,0)
(11717554.490473,205702.07750451,22970.3036816897)
(11709821.7413502,200786.968259867,49286.545533027)
(11691225.1277502,189954.735993602,83587.5382167685)
(11653867.1660372,171261.916276989,134049.386684163)
(11581667.8726588,141676.444519325,216988.478286675)
(11445575.785712,98340.9588092846,365553.313093925)
(11205644.7580378,45861.8404602822,636432.803560945)
(10837858.6358878,20211.0052531374,1077888.88735851)
(10049522.7548665,22185.2801178862,1982439.25817516)
(7775700.22124776,15641.8639703842,4841983.84906782)
(0,0,0)
(0,0,0)
(0,0,0)
(0,0,0)
(0,0,0)
(0,0,0)
(11660168.3229808,304009.974664142,18098.4207058094)
(11652607.8265654,299448.441202709,38622.6241438661)
(11633893.6098147,289524.156470996,65162.5991628332)
(11594564.6441586,272782.225666089,104795.266443763)
(11513531.6651579,247125.785242197,173988.48737613)
(11347570.4744606,211253.774009288,313306.636769606)
(11030845.6295328,169009.418098975,610964.020082477)
(10668412.5630208,132034.557654553,1080015.28134291)
(9975538.16408979,96548.0743331633,1976017.67350224)
(7748722.49194206,52182.9913026824,4826449.37395963)
(0,0,0)
(0,0,0)
(0,0,0)
(0,0,0)
(0,0,0)
(0,0,0)
(11557948.5278157,445745.979857106,13571.0558439191)
(11550903.5057053,442005.055784491,28829.6175081145)
(11533076.2227597,433993.014764476,48596.4239513792)
(11494467.7315691,420791.520420892,79386.5946981926)
(11412475.1942153,400809.069277487,138434.402684257)
(11241700.1739745,371783.03795251,271322.813073505)
(10920890.0216334,331688.808858074,574242.54300739)
(10574373.1613928,280468.007294572,1044732.3882041)
(9912495.60792864,204282.802012802,1931820.21935796)
(7717798.67074822,108028.055842389,4774427.83452343)
(0,0,0)
(0,0,0)
(0,0,0)
(0,0,0)
(0,0,0)
(0,0,0)
(11368240.6035763,664641.993868729,9805.38206458175)
(11362122.309112,661751.545520983,20866.4604972723)
(11346335.9763361,655729.414023136,35484.8617264157)
(11311274.7390001,646163.033616696,59549.9140387992)
(11234822.2764029,631964.177470234,109642.305202836)
(11071525.1095798,609870.374808681,231454.759511412)
(10760384.5124865,571495.712138734,523213.589567213)
(10447719.7992829,503523.491325582,968736.208049733)
(9819301.59096965,367766.558743645,1835803.92442614)
(7665115.8525913,196595.924792112,4666666.30087309)
(0,0,0)
(0,0,0)
(0,0,0)
(0,0,0)
(0,0,0)
(0,0,0)
(10989046.4431811,1052882.7418793,6907.77552196456)
(10984207.8157896,1050525.50382731,14909.7147718818)
(10971636.8961885,1045704.49859029,26029.670825104)
(10943303.7179218,1038247.86469699,45481.012370683)
(10880312.7285011,1027528.23879023,87756.4401487624)
(10741798.7286259,1010326.5700897,193293.880636872)
(10469430.0104605,970912.575019159,455430.673983621)
(10265591.7898876,848984.788996666,833160.315477887)
(9631191.68327101,650324.438781675,1664869.81228488)
(7543118.34687118,371936.343526509,4470310.23246605)
(0,0,0)
(0,0,0)
(0,0,0)
(0,0,0)
(0,0,0)
(0,0,0)
(10131991.5993849,1944304.42697483,4542.96412662566)
(10128694.817812,1941994.3240706,10127.8179097278)
(10120275.9815702,1937015.02493094,18669.7117914978)
(10101774.0219569,1928382.69191287,34875.5312730381)
(10062361.2292397,1913224.51621382,70702.9392037012)
(9982149.56657154,1883184.67086467,154041.64254063)
(9837558.57159646,1815596.63666872,333682.235266545)
(9634540.2787025,1661754.0070494,634674.915453197)
(9061285.79943257,1389966.2186824,1386702.38420664)
(7171991.57208449,906187.314140981,4098596.30829712)
(0,0,0)
(0,0,0)
(0,0,0)
(0,0,0)
(0,0,0)
(0,0,0)
(7808470.13550712,4805404.5179874,2292.14977340806)
(7806833.95981637,4802935.96631507,5274.51947702055)
(7802704.7167042,4797383.31773621,10156.7692439665)
(7793835.23165609,4786991.16450685,19778.9308056603)
(7775515.43637954,4767096.23407729,40732.056689086)
(7739466.86910733,4726247.56524947,86603.4392752457)
(7672739.27270361,4639550.037873,180046.607064983)
(7544973.82185562,4459387.95132131,363109.103158127)
(7172289.13864776,4096138.49622824,903139.398627294)
(5831753.26031906,3192779.43436903,3192584.48178875)
(0,0,0)
(0,0,0)
(0,0,0)
(0,0,0)
(0,0,0)
(0,0,0)
(0,0,0)
(0,0,0)
(0,0,0)
(0,0,0)
(0,0,0)
(0,0,0)
(0,0,0)
(0,0,0)
(0,0,0)
(0,0,0)
(0,0,0)
(0,0,0)
(0,0,0)
(0,0,0)
(0,0,0)
(0,0,0)
(0,0,0)
(0,0,0)
(0,0,0)
(0,0,0)
(0,0,0)
(0,0,0)
(0,0,0)
(0,0,0)
(0,0,0)
(0,0,0)
(0,0,0)
(0,0,0)
(0,0,0)
(0,0,0)
(0,0,0)
(0,0,0)
(0,0,0)
(0,0,0)
(0,0,0)
(0,0,0)
(0,0,0)
(0,0,0)
(0,0,0)
(0,0,0)
(0,0,0)
(0,0,0)
(0,0,0)
(0,0,0)
(0,0,0)
(0,0,0)
(0,0,0)
(0,0,0)
(0,0,0)
(0,0,0)
(0,0,0)
(0,0,0)
(0,0,0)
(0,0,0)
(0,0,0)
(0,0,0)
(0,0,0)
(0,0,0)
(0,0,0)
(0,0,0)
(0,0,0)
(0,0,0)
(0,0,0)
(0,0,0)
(0,0,0)
(0,0,0)
(0,0,0)
(0,0,0)
(0,0,0)
(0,0,0)
(0,0,0)
(0,0,0)
(0,0,0)
(0,0,0)
(0,0,0)
(0,0,0)
(0,0,0)
(0,0,0)
(0,0,0)
(0,0,0)
(0,0,0)
(0,0,0)
(0,0,0)
(0,0,0)
(0,0,0)
(0,0,0)
(0,0,0)
(0,0,0)
(0,0,0)
(0,0,0)
(0,0,0)
(0,0,0)
(0,0,0)
(0,0,0)
(0,0,0)
(0,0,0)
(-205288.524999454,30127.0098417019,24888.6644716319)
(-213773.157305298,28332.88665953,52367.1856705129)
(-232962.122156842,24336.7213668835,85331.1275734605)
(-267842.604908165,17486.2147275595,127025.734990473)
(-327432.649585983,7103.78779084303,180039.331581019)
(-426892.206734257,-6314.51231360508,241572.94198818)
(-589644.145870524,-18644.4845378885,286585.518240792)
(-847467.066497951,-21193.6641794178,213082.052046015)
(-1217115.27677404,-14558.0976372629,-352224.654593221)
(-1492027.66867846,-6663.54986989231,-2972112.96182024)
(0,0,0)
(0,0,0)
(0,0,0)
(0,0,0)
(0,0,0)
(0,0,0)
(-214184.806813202,63161.6609633212,23084.2018676496)
(-222527.871467001,59749.8351785083,48426.1996258347)
(-241505.824312279,52089.6278269802,78575.6261046967)
(-276417.326247565,38493.6002115936,116754.411693763)
(-336954.935890576,16586.0618377753,166693.008483323)
(-439165.355625525,-14582.2667209089,229260.664522936)
(-605739.701215146,-47030.9669168295,283988.17650637)
(-861028.964530756,-52517.8990995219,219662.504114527)
(-1223929.81595749,-32617.8682988736,-344360.975319526)
(-1494457.76931447,-13646.130895778,-2965462.71960307)
(0,0,0)
(0,0,0)
(0,0,0)
(0,0,0)
(0,0,0)
(0,0,0)
(-234241.113489703,101802.61361732,19726.0424846496)
(-242292.365403407,97317.8611992127,40871.4247597882)
(-260907.472625035,87010.9898493077,65123.7801590738)
(-296137.776985465,67902.1552699044,95029.7574167752)
(-359820.138983137,34406.620693467,135695.950601407)
(-472593.734382478,-20713.6650402408,196912.952715444)
(-659574.654785828,-92252.414439802,278514.021939668)
(-908100.446953651,-102290.764042116,239552.166994909)
(-1244591.02933829,-52421.4026890729,-325427.669079928)
(-1501099.31451074,-18357.7910096253,-2951867.23884721)
(0,0,0)
(0,0,0)
(0,0,0)
(0,0,0)
(0,0,0)
(0,0,0)
(-270006.684985887,148030.041618552,15261.3612572625)
(-277666.952372971,143309.217629034,30686.3123501234)
(-295761.718715241,132413.316816439,46198.4456480038)
(-331692.392040054,111801.917642088,61785.8551525618)
(-402457.094568964,73421.1116479049,80823.945225497)
(-546174.111695032,260.951713497281,125526.839678401)
(-826770.43844295,-128959.063763278,268576.299282188)
(-1062181.60730643,-149236.3419996,289489.734233512)
(-1296356.50185134,-51767.497068416,-291357.300869649)
(-1515311.45229714,-11303.498941034,-2933472.30559381)
(0,0,0)
(0,0,0)
(0,0,0)
(0,0,0)
(0,0,0)
(0,0,0)
(-329996.048101166,201547.523232022,10574.5032680852)
(-337036.298760255,197519.70915322,19935.7508691114)
(-354146.174948465,188516.057543848,25800.4087043686)
(-390104.450464501,172504.736364014,23694.2984051779)
(-469296.388003821,145918.209406038,7952.86760832261)
(-672126.77145493,105313.883597237,-3475.20456036624)
(-1335194.1802321,59036.8666746011,248496.288566246)
(-1583498.27979773,37971.4375524232,387126.965632334)
(-1397951.98147,33503.8094334047,-250726.581510045)
(-1538636.78746326,21261.0201978501,-2922004.20744396)
(0,0,0)
(0,0,0)
(0,0,0)
(0,0,0)
(0,0,0)
(0,0,0)
(-429013.500586977,255888.729466476,6548.43596778794)
(-435178.623410444,253061.631852861,11016.2561835387)
(-450497.795114191,247099.33325157,9934.61214929948)
(-483949.49533197,237465.824921562,-2681.63570768421)
(-560998.960089778,223036.638797488,-32398.2969944576)
(-763433.977052589,201493.566936834,-49516.2155074343)
(-1394502.71832975,171064.555092488,227776.449837372)
(-1622551.53562495,153712.944301249,382887.253905894)
(-1445432.12588052,111000.156712457,-262753.745764465)
(-1561960.81357688,55282.5407626083,-2943088.16820451)
(0,0,0)
(0,0,0)
(0,0,0)
(0,0,0)
(0,0,0)
(0,0,0)
(-590954.87727393,285345.482836088,3666.34128013293)
(-596020.785248543,283736.386261933,5062.29503123673)
(-608895.837762788,280928.740608464,392.31557276342)
(-638071.486423084,278106.489689489,-16974.5099724154)
(-708841.442670115,277385.472794822,-53732.0110971229)
(-907102.670266724,280071.959607904,-79755.0101220781)
(-1565389.31702753,280494.718886691,210516.269397383)
(-1775827.01399877,321369.878789608,340333.761990288)
(-1516806.8710258,179622.990982133,-318252.996484339)
(-1600327.03062481,74571.4529012504,-2998171.41160735)
(0,0,0)
(0,0,0)
(0,0,0)
(0,0,0)
(0,0,0)
(0,0,0)
(-849475.551946651,195728.741873642,2066.34988967057)
(-853310.834191201,194937.998215642,2311.00171635904)
(-863146.180666224,194287.78322044,-2337.35024132733)
(-886032.894476547,196627.593460709,-17594.2278146573)
(-944609.208309801,209500.935696461,-50860.1401057519)
(-1126543.22899729,250637.702553068,-79156.311628124)
(-1845843.2617127,338998.42934661,251540.863884843)
(-1504173.8118046,217870.964946914,198732.99321935)
(-1573765.90110355,80377.5834783792,-423136.401102663)
(-1659757.9360298,791.854919171057,-3072552.90641994)
(0,0,0)
(0,0,0)
(0,0,0)
(0,0,0)
(0,0,0)
(0,0,0)
(-1220319.94790034,-379325.742689372,1293.64564786481)
(-1222857.47348625,-380002.932922139,1714.48188339407)
(-1229187.18663645,-380693.722040889,86.7691509308764)
(-1243242.06029621,-379695.610710151,-4646.33062546884)
(-1275499.65223204,-373751.675224042,-9605.22443361424)
(-1352667.48438717,-359604.98414918,9382.12702690953)
(-1521392.488316,-349336.895145552,130596.125231077)
(-1576487.88895907,-427927.262324953,61350.1339640571)
(-1721400.61714492,-499096.242114128,-502562.010066409)
(-1748594.30409674,-434086.59007595,-3073170.07509041)
(0,0,0)
(0,0,0)
(0,0,0)
(0,0,0)
(0,0,0)
(0,0,0)
(-1494539.90892473,-3003072.45736111,684.372903204924)
(-1495772.66460204,-3003934.15545065,1149.83364965321)
(-1498797.08813499,-3005340.92183889,1226.45208649566)
(-1505277.39147474,-3006833.80484269,1404.88314939882)
(-1519134.98366993,-3008404.82340593,4636.06518033601)
(-1548190.52347799,-3013201.71102651,19817.7984425374)
(-1601889.9200512,-3033179.88294752,52217.5927989415)
(-1661585.3646046,-3085564.20706627,-9658.66219996378)
(-1749110.36226871,-3076043.84199763,-437383.947600402)
(-1687951.4439969,-2638850.76327758,-2638987.45628318)
(0,0,0)
(0,0,0)
(0,0,0)
(0,0,0)
(0,0,0)
(0,0,0)
(0,0,0)
(0,0,0)
(0,0,0)
(0,0,0)
(0,0,0)
(0,0,0)
(0,0,0)
(0,0,0)
(0,0,0)
(0,0,0)
(0,0,0)
(0,0,0)
(0,0,0)
(0,0,0)
(0,0,0)
(0,0,0)
(0,0,0)
(0,0,0)
(0,0,0)
(0,0,0)
(0,0,0)
(0,0,0)
(0,0,0)
(0,0,0)
(0,0,0)
(0,0,0)
(0,0,0)
(0,0,0)
(0,0,0)
(0,0,0)
(0,0,0)
(0,0,0)
(0,0,0)
(0,0,0)
(0,0,0)
(0,0,0)
(0,0,0)
(0,0,0)
(0,0,0)
(0,0,0)
(0,0,0)
(0,0,0)
(0,0,0)
(0,0,0)
(0,0,0)
(0,0,0)
(0,0,0)
(0,0,0)
(0,0,0)
(0,0,0)
(0,0,0)
(0,0,0)
(0,0,0)
(0,0,0)
(0,0,0)
(0,0,0)
(0,0,0)
(0,0,0)
(0,0,0)
(0,0,0)
(0,0,0)
(0,0,0)
(0,0,0)
(0,0,0)
(0,0,0)
(0,0,0)
(0,0,0)
(0,0,0)
(0,0,0)
(0,0,0)
(0,0,0)
(0,0,0)
(0,0,0)
(0,0,0)
(0,0,0)
(0,0,0)
(0,0,0)
(0,0,0)
(0,0,0)
(0,0,0)
(0,0,0)
(0,0,0)
(0,0,0)
(0,0,0)
(0,0,0)
(0,0,0)
(0,0,0)
(0,0,0)
(0,0,0)
(0,0,0)
(0,0,0)
(0,0,0)
(0,0,0)
(0,0,0)
(0,0,0)
(0,0,0)
(-242782.406608161,21085.6050953831,16408.2765133246)
(-249997.921757209,19433.7789530504,33199.2620121851)
(-265860.016537384,15644.5977867039,50452.5586060254)
(-293508.532701048,8788.49394520356,67329.9924537021)
(-338036.888449838,-2475.05780154472,80409.2891191041)
(-406511.008837577,-18567.8939961501,78595.9852185757)
(-505020.65106388,-34702.465532237,28674.9559441708)
(-627349.054816201,-34761.1391608972,-156681.91657668)
(-725171.203463542,-21360.2263769448,-627265.763510222)
(-630161.369591333,-9060.67996969891,-1480071.38262767)
(0,0,0)
(0,0,0)
(0,0,0)
(0,0,0)
(0,0,0)
(0,0,0)
(-250877.802672034,43012.0913316566,14766.5096225592)
(-257679.022168138,39877.7326646016,29473.7066121407)
(-272660.989942202,32594.4622494797,43679.0077792883)
(-298828.609958485,18715.4404024311,56163.3450329788)
(-341348.611258823,-6299.47784063359,64381.440440314)
(-407900.731886702,-47959.3321453464,62508.2548506936)
(-505786.739637681,-100770.853418604,28623.6811596036)
(-624363.713232273,-99530.7271636029,-143271.982136165)
(-720382.406885947,-53231.6983619679,-614947.919222683)
(-627232.62611503,-20239.8954907832,-1470993.84690106)
(0,0,0)
(0,0,0)
(0,0,0)
(0,0,0)
(0,0,0)
(0,0,0)
(-268759.092687561,65839.5125466579,11690.5579828594)
(-274765.630384789,61783.5383801431,22258.0172486968)
(-287992.292809552,52047.4660423159,29889.8336403752)
(-311119.26230372,32285.8936404826,31300.8657205812)
(-349385.790253338,-8275.2200531601,22842.2592033055)
(-413224.258964813,-94271.3714907111,9784.82313099564)
(-521101.357865415,-259357.71096537,29898.383757355)
(-624514.658312683,-256267.330100745,-96950.8019464735)
(-708704.46156194,-104107.653130789,-581961.414954011)
(-620013.10049872,-32533.3319994786,-1450754.19245735)
(0,0,0)
(0,0,0)
(0,0,0)
(0,0,0)
(0,0,0)
(0,0,0)
(-299533.158727164,87713.1271677069,7652.85912023175)
(-304463.47954097,83637.4946904123,12595.429977965)
(-315138.112913528,73792.6663359911,10226.6238825789)
(-333361.304390173,53242.9577387706,-9061.52786559123)
(-363325.875870236,6499.76476834654,-62967.731385821)
(-422566.431838151,-125675.214687117,-155171.568046303)
(-637139.537169419,-637250.681777061,33090.5014918489)
(-670264.936451349,-670408.892502593,55315.39303862)
(-681564.537604827,-153252.803957706,-510331.420380972)
(-605450.501487587,-34587.8670310741,-1418137.83615892)
(0,0,0)
(0,0,0)
(0,0,0)
(0,0,0)
(0,0,0)
(0,0,0)
(-348124.461292449,102273.041616078,3568.4987429128)
(-351772.580868041,99119.1517359006,2823.12380521004)
(-359239.758887219,91921.0105288592,-10211.6364489021)
(-369974.48849554,78476.1030551623,-55574.7437342543)
(-377551.288050935,54120.3668438854,-194940.445762682)
(-340171.17344191,14053.5980942529,-666624.856557074)
(-8.59150463984417e-05,-2.25684619112081e-05,5.56086895083865e-05)