/*--------------------------------*- C++ -*----------------------------------*\
| =========                 |                                                 |
| \\      /  F ield         | foam-extend: Open Source CFD                    |
|  \\    /   O peration     | Version:     4.0                                |
|   \\  /    A nd           | Web:         http://www.foam-extend.org         |
|    \\/     M anipulation  |                                                 |
\*---------------------------------------------------------------------------*/
FoamFile
{
    version 2.0;
    format ascii;
    class volVectorField;
    location "853";
    object      E;
}
// * * * * * * * * * * * * * * * * * * * * * * * * * * * * * * * * * * * * * //

dimensions      [0 1 -1 0 0 0 0];

internalField   nonuniform List<vector>
4096
(
(0,0,0)
(0,0,0)
(0,0,0)
(0,0,0)
(0,0,0)
(0,0,0)
(0,0,0)
(0,0,0)
(0,0,0)
(0,0,0)
(0,0,0)
(0,0,0)
(0,0,0)
(0,0,0)
(0,0,0)
(0,0,0)
(0,0,0)
(0,0,0)
(0,0,0)
(0,0,0)
(0,0,0)
(0,0,0)
(0,0,0)
(0,0,0)
(0,0,0)
(0,0,0)
(0,0,0)
(0,0,0)
(0,0,0)
(0,0,0)
(0,0,0)
(0,0,0)
(0,0,0)
(0,0,0)
(0,0,0)
(0,0,0)
(0,0,0)
(0,0,0)
(0,0,0)
(0,0,0)
(0,0,0)
(0,0,0)
(0,0,0)
(0,0,0)
(0,0,0)
(0,0,0)
(0,0,0)
(0,0,0)
(0,0,0)
(0,0,0)
(0,0,0)
(0,0,0)
(0,0,0)
(0,0,0)
(0,0,0)
(0,0,0)
(0,0,0)
(0,0,0)
(0,0,0)
(0,0,0)
(0,0,0)
(0,0,0)
(0,0,0)
(0,0,0)
(0,0,0)
(0,0,0)
(0,0,0)
(0,0,0)
(0,0,0)
(0,0,0)
(0,0,0)
(0,0,0)
(0,0,0)
(0,0,0)
(0,0,0)
(0,0,0)
(0,0,0)
(0,0,0)
(0,0,0)
(0,0,0)
(0,0,0)
(0,0,0)
(0,0,0)
(0,0,0)
(0,0,0)
(0,0,0)
(0,0,0)
(0,0,0)
(0,0,0)
(0,0,0)
(0,0,0)
(0,0,0)
(0,0,0)
(0,0,0)
(0,0,0)
(0,0,0)
(0,0,0)
(0,0,0)
(0,0,0)
(0,0,0)
(0,0,0)
(0,0,0)
(0,0,0)
(0,0,0)
(0,0,0)
(0,0,0)
(0,0,0)
(0,0,0)
(0,0,0)
(0,0,0)
(0,0,0)
(0,0,0)
(0,0,0)
(0,0,0)
(0,0,0)
(0,0,0)
(0,0,0)
(0,0,0)
(0,0,0)
(0,0,0)
(0,0,0)
(0,0,0)
(0,0,0)
(0,0,0)
(0,0,0)
(0,0,0)
(0,0,0)
(0,0,0)
(0,0,0)
(0,0,0)
(0,0,0)
(0,0,0)
(0,0,0)
(0,0,0)
(0,0,0)
(0,0,0)
(0,0,0)
(0,0,0)
(0,0,0)
(0,0,0)
(0,0,0)
(0,0,0)
(0,0,0)
(0,0,0)
(0,0,0)
(0,0,0)
(0,0,0)
(0,0,0)
(0,0,0)
(0,0,0)
(0,0,0)
(0,0,0)
(0,0,0)
(0,0,0)
(0,0,0)
(0,0,0)
(0,0,0)
(0,0,0)
(0,0,0)
(0,0,0)
(0,0,0)
(0,0,0)
(0,0,0)
(0,0,0)
(0,0,0)
(0,0,0)
(0,0,0)
(0,0,0)
(0,0,0)
(0,0,0)
(0,0,0)
(0,0,0)
(0,0,0)
(0,0,0)
(0,0,0)
(0,0,0)
(0,0,0)
(0,0,0)
(0,0,0)
(0,0,0)
(0,0,0)
(0,0,0)
(0,0,0)
(0,0,0)
(0,0,0)
(0,0,0)
(0,0,0)
(0,0,0)
(0,0,0)
(0,0,0)
(0,0,0)
(0,0,0)
(0,0,0)
(0,0,0)
(0,0,0)
(0,0,0)
(0,0,0)
(0,0,0)
(0,0,0)
(0,0,0)
(0,0,0)
(0,0,0)
(0,0,0)
(0,0,0)
(0,0,0)
(0,0,0)
(0,0,0)
(0,0,0)
(0,0,0)
(0,0,0)
(0,0,0)
(0,0,0)
(0,0,0)
(0,0,0)
(0,0,0)
(0,0,0)
(0,0,0)
(0,0,0)
(0,0,0)
(0,0,0)
(0,0,0)
(0,0,0)
(0,0,0)
(0,0,0)
(0,0,0)
(0,0,0)
(0,0,0)
(0,0,0)
(0,0,0)
(0,0,0)
(0,0,0)
(0,0,0)
(0,0,0)
(0,0,0)
(0,0,0)
(0,0,0)
(0,0,0)
(0,0,0)
(0,0,0)
(0,0,0)
(0,0,0)
(0,0,0)
(0,0,0)
(0,0,0)
(0,0,0)
(0,0,0)
(0,0,0)
(0,0,0)
(0,0,0)
(0,0,0)
(0,0,0)
(0,0,0)
(0,0,0)
(0,0,0)
(0,0,0)
(0,0,0)
(0,0,0)
(0,0,0)
(0,0,0)
(0,0,0)
(0,0,0)
(0,0,0)
(0,0,0)
(0,0,0)
(0,0,0)
(0,0,0)
(0,0,0)
(0,0,0)
(0,0,0)
(0,0,0)
(0,0,0)
(0,0,0)
(0,0,0)
(0,0,0)
(0,0,0)
(0,0,0)
(0,0,0)
(0,0,0)
(0,0,0)
(0,0,0)
(0,0,0)
(0,0,0)
(0,0,0)
(0,0,0)
(0,0,0)
(0,0,0)
(0,0,0)
(0,0,0)
(0,0,0)
(0,0,0)
(0,0,0)
(0,0,0)
(0,0,0)
(0,0,0)
(0,0,0)
(0,0,0)
(0,0,0)
(0,0,0)
(0,0,0)
(0,0,0)
(0,0,0)
(0,0,0)
(0,0,0)
(0,0,0)
(0,0,0)
(0,0,0)
(0,0,0)
(0,0,0)
(0,0,0)
(0,0,0)
(0,0,0)
(0,0,0)
(0,0,0)
(0,0,0)
(0,0,0)
(0,0,0)
(0,0,0)
(0,0,0)
(0,0,0)
(0,0,0)
(0,0,0)
(0,0,0)
(0,0,0)
(0,0,0)
(0,0,0)
(0,0,0)
(0,0,0)
(0,0,0)
(0,0,0)
(0,0,0)
(0,0,0)
(0,0,0)
(0,0,0)
(0,0,0)
(0,0,0)
(0,0,0)
(0,0,0)
(0,0,0)
(0,0,0)
(0,0,0)
(0,0,0)
(0,0,0)
(0,0,0)
(0,0,0)
(0,0,0)
(0,0,0)
(0,0,0)
(0,0,0)
(0,0,0)
(0,0,0)
(0,0,0)
(0,0,0)
(0,0,0)
(0,0,0)
(0,0,0)
(0,0,0)
(0,0,0)
(0,0,0)
(0,0,0)
(0,0,0)
(0,0,0)
(0,0,0)
(0,0,0)
(0,0,0)
(0,0,0)
(0,0,0)
(0,0,0)
(0,0,0)
(0,0,0)
(0,0,0)
(0,0,0)
(0,0,0)
(0,0,0)
(0,0,0)
(0,0,0)
(0,0,0)
(0,0,0)
(0,0,0)
(0,0,0)
(0,0,0)
(0,0,0)
(0,0,0)
(0,0,0)
(0,0,0)
(0,0,0)
(0,0,0)
(0,0,0)
(0,0,0)
(0,0,0)
(0,0,0)
(0,0,0)
(0,0,0)
(0,0,0)
(0,0,0)
(0,0,0)
(0,0,0)
(0,0,0)
(0,0,0)
(0,0,0)
(0,0,0)
(0,0,0)
(0,0,0)
(0,0,0)
(0,0,0)
(0,0,0)
(0,0,0)
(0,0,0)
(0,0,0)
(0,0,0)
(0,0,0)
(0,0,0)
(0,0,0)
(0,0,0)
(0,0,0)
(0,0,0)
(0,0,0)
(0,0,0)
(0,0,0)
(0,0,0)
(0,0,0)
(0,0,0)
(0,0,0)
(0,0,0)
(0,0,0)
(0,0,0)
(0,0,0)
(0,0,0)
(0,0,0)
(0,0,0)
(0,0,0)
(0,0,0)
(0,0,0)
(0,0,0)
(0,0,0)
(0,0,0)
(0,0,0)
(0,0,0)
(0,0,0)
(0,0,0)
(0,0,0)
(0,0,0)
(0,0,0)
(0,0,0)
(0,0,0)
(0,0,0)
(0,0,0)
(0,0,0)
(0,0,0)
(0,0,0)
(0,0,0)
(0,0,0)
(0,0,0)
(0,0,0)
(0,0,0)
(0,0,0)
(0,0,0)
(0,0,0)
(0,0,0)
(0,0,0)
(0,0,0)
(0,0,0)
(0,0,0)
(0,0,0)
(0,0,0)
(0,0,0)
(0,0,0)
(0,0,0)
(0,0,0)
(0,0,0)
(0,0,0)
(0,0,0)
(0,0,0)
(0,0,0)
(0,0,0)
(0,0,0)
(0,0,0)
(0,0,0)
(0,0,0)
(0,0,0)
(0,0,0)
(0,0,0)
(0,0,0)
(0,0,0)
(0,0,0)
(0,0,0)
(0,0,0)
(0,0,0)
(0,0,0)
(0,0,0)
(0,0,0)
(0,0,0)
(0,0,0)
(0,0,0)
(0,0,0)
(0,0,0)
(0,0,0)
(0,0,0)
(0,0,0)
(0,0,0)
(0,0,0)
(0,0,0)
(0,0,0)
(0,0,0)
(0,0,0)
(0,0,0)
(0,0,0)
(0,0,0)
(0,0,0)
(0,0,0)
(0,0,0)
(0,0,0)
(0,0,0)
(0,0,0)
(0,0,0)
(0,0,0)
(0,0,0)
(0,0,0)
(0,0,0)
(0,0,0)
(0,0,0)
(0,0,0)
(0,0,0)
(0,0,0)
(0,0,0)
(0,0,0)
(0,0,0)
(0,0,0)
(0,0,0)
(0,0,0)
(0,0,0)
(0,0,0)
(0,0,0)
(0,0,0)
(0,0,0)
(0,0,0)
(0,0,0)
(0,0,0)
(0,0,0)
(0,0,0)
(0,0,0)
(0,0,0)
(0,0,0)
(0,0,0)
(0,0,0)
(0,0,0)
(0,0,0)
(0,0,0)
(0,0,0)
(0,0,0)
(0,0,0)
(0,0,0)
(0,0,0)
(0,0,0)
(0,0,0)
(0,0,0)
(0,0,0)
(0,0,0)
(0,0,0)
(0,0,0)
(0,0,0)
(0,0,0)
(0,0,0)
(0,0,0)
(0,0,0)
(0,0,0)
(0,0,0)
(0,0,0)
(0,0,0)
(0,0,0)
(0,0,0)
(0,0,0)
(0,0,0)
(0,0,0)
(0,0,0)
(0,0,0)
(0,0,0)
(0,0,0)
(0,0,0)
(0,0,0)
(0,0,0)
(0,0,0)
(0,0,0)
(0,0,0)
(0,0,0)
(0,0,0)
(0,0,0)
(0,0,0)
(0,0,0)
(0,0,0)
(0,0,0)
(0,0,0)
(0,0,0)
(0,0,0)
(0,0,0)
(0,0,0)
(0,0,0)
(0,0,0)
(0,0,0)
(0,0,0)
(0,0,0)
(0,0,0)
(0,0,0)
(0,0,0)
(0,0,0)
(0,0,0)
(0,0,0)
(0,0,0)
(0,0,0)
(0,0,0)
(0,0,0)
(0,0,0)
(0,0,0)
(0,0,0)
(0,0,0)
(0,0,0)
(0,0,0)
(0,0,0)
(0,0,0)
(0,0,0)
(0,0,0)
(0,0,0)
(0,0,0)
(0,0,0)
(0,0,0)
(0,0,0)
(0,0,0)
(0,0,0)
(0,0,0)
(0,0,0)
(0,0,0)
(0,0,0)
(0,0,0)
(0,0,0)
(0,0,0)
(0,0,0)
(0,0,0)
(0,0,0)
(0,0,0)
(0,0,0)
(0,0,0)
(0,0,0)
(0,0,0)
(0,0,0)
(0,0,0)
(0,0,0)
(0,0,0)
(0,0,0)
(0,0,0)
(0,0,0)
(0,0,0)
(0,0,0)
(0,0,0)
(0,0,0)
(0,0,0)
(0,0,0)
(0,0,0)
(0,0,0)
(0,0,0)
(0,0,0)
(0,0,0)
(0,0,0)
(0,0,0)
(0,0,0)
(0,0,0)
(0,0,0)
(0,0,0)
(0,0,0)
(0,0,0)
(0,0,0)
(0,0,0)
(0,0,0)
(0,0,0)
(0,0,0)
(0,0,0)
(0,0,0)
(0,0,0)
(0,0,0)
(0,0,0)
(0,0,0)
(0,0,0)
(0,0,0)
(0,0,0)
(0,0,0)
(0,0,0)
(0,0,0)
(0,0,0)
(0,0,0)
(0,0,0)
(0,0,0)
(0,0,0)
(0,0,0)
(0,0,0)
(0,0,0)
(0,0,0)
(0,0,0)
(0,0,0)
(0,0,0)
(0,0,0)
(0,0,0)
(0,0,0)
(0,0,0)
(0,0,0)
(0,0,0)
(0,0,0)
(0,0,0)
(0,0,0)
(0,0,0)
(0,0,0)
(0,0,0)
(0,0,0)
(0,0,0)
(0,0,0)
(0,0,0)
(0,0,0)
(0,0,0)
(0,0,0)
(0,0,0)
(0,0,0)
(0,0,0)
(0,0,0)
(0,0,0)
(0,0,0)
(0,0,0)
(0,0,0)
(0,0,0)
(0,0,0)
(0,0,0)
(0,0,0)
(0,0,0)
(0,0,0)
(0,0,0)
(0,0,0)
(0,0,0)
(0,0,0)
(0,0,0)
(0,0,0)
(0,0,0)
(0,0,0)
(0,0,0)
(0,0,0)
(0,0,0)
(0,0,0)
(0,0,0)
(0,0,0)
(0,0,0)
(0,0,0)
(0,0,0)
(0,0,0)
(0,0,0)
(0,0,0)
(0,0,0)
(0,0,0)
(0,0,0)
(0,0,0)
(0,0,0)
(0,0,0)
(0,0,0)
(0,0,0)
(0,0,0)
(0,0,0)
(0,0,0)
(0,0,0)
(0,0,0)
(0,0,0)
(0,0,0)
(0,0,0)
(0,0,0)
(0,0,0)
(0,0,0)
(0,0,0)
(0,0,0)
(0,0,0)
(0,0,0)
(0,0,0)
(0,0,0)
(0,0,0)
(0,0,0)
(0,0,0)
(0,0,0)
(0,0,0)
(0,0,0)
(0,0,0)
(0,0,0)
(0,0,0)
(0,0,0)
(0,0,0)
(0,0,0)
(0,0,0)
(0,0,0)
(0,0,0)
(0,0,0)
(0,0,0)
(0,0,0)
(0,0,0)
(0,0,0)
(0,0,0)
(0,0,0)
(0,0,0)
(0,0,0)
(0,0,0)
(0,0,0)
(0,0,0)
(0,0,0)
(0,0,0)
(0,0,0)
(0,0,0)
(0,0,0)
(0,0,0)
(0,0,0)
(0,0,0)
(0,0,0)
(0,0,0)
(0,0,0)
(0,0,0)
(0,0,0)
(0,0,0)
(0,0,0)
(0,0,0)
(0,0,0)
(-62073.053788534,33065.7237947129,29007.329993821)
(-65690.6263746174,31751.14360767,62946.8127607686)
(-73986.6315116061,28919.5990918699,108013.845180505)
(-89696.2513257346,24505.277037437,173204.819468805)
(-117990.872039101,18510.7995849535,272684.891922959)
(-168710.676674722,11589.4209081554,429806.147689511)
(-260618.184604251,5237.34984576328,685186.982448032)
(-426734.559081746,1328.07567534577,1110593.46585443)
(-703911.05317559,5.6534548113143,1814498.86557526)
(-980853.198003246,-127.884268921915,2795479.94784743)
(0,0,0)
(0,0,0)
(0,0,0)
(0,0,0)
(0,0,0)
(0,0,0)
(-65678.5835386249,71099.0551411209,27645.2521922163)
(-69302.4522568906,68585.5978265043,60113.2502302756)
(-77718.9966468003,63198.6551607126,103553.19080823)
(-93777.2217011493,54676.8801366139,167158.809410206)
(-122871.981435489,42812.3109756358,265729.279455011)
(-174840.977766607,28643.1311365556,423516.546993223)
(-267750.864841019,15154.8149822572,681349.946697717)
(-433213.909203672,6555.778046326,1109336.15353038)
(-708248.13997316,3161.99936707179,1814427.94759134)
(-982890.964928197,1573.17219826665,2795617.85605226)
(0,0,0)
(0,0,0)
(0,0,0)
(0,0,0)
(0,0,0)
(0,0,0)
(-73883.0562424243,119914.064300593,25068.0470829522)
(-77572.3957855551,116531.176296856,54694.8643981562)
(-86272.5547337481,109246.55772693,94919.516565691)
(-103124.553548907,97464.978780606,155255.971470608)
(-134068.65088126,80570.8225842952,251566.110743209)
(-189254.500458218,59332.4024723658,410131.339865617)
(-285355.311074059,37741.3815325911,672900.084389344)
(-449410.167615592,22837.4195716441,1106028.61047959)
(-718679.461800707,14975.9414713542,1812894.13017608)
(-987635.488701365,8071.86213236934,2794030.92894333)
(0,0,0)
(0,0,0)
(0,0,0)
(0,0,0)
(0,0,0)
(0,0,0)
(-89203.3363013895,187540.695082025,21576.7055199577)
(-92933.3633001304,183730.611289904,47310.6338270413)
(-101970.874058855,175558.091295671,82969.974317149)
(-119979.935630176,162164.493380337,138250.39534759)
(-153966.506329772,142431.656517306,230356.067744355)
(-215331.114335856,116345.847654785,388673.736897785)
(-319072.590490471,87290.1399693898,658197.56895147)
(-480773.76227428,63510.6860346909,1098298.06476267)
(-737805.603105586,45034.7791282691,1806044.8302113)
(-995981.88196649,24192.0777890127,2785906.49652125)
(0,0,0)
(0,0,0)
(0,0,0)
(0,0,0)
(0,0,0)
(0,0,0)
(-116602.590390324,286419.442213993,17723.8432583544)
(-120323.428800127,282708.468421311,39069.4149270741)
(-129544.785269625,274739.915201022,69432.3762913475)
(-148522.666945171,261662.28195837,118457.254658489)
(-185652.42647734,242178.687675298,204362.649977842)
(-254669.887611971,215567.783227597,359810.602016987)
(-370401.006014705,182863.440506494,634638.307494592)
(-528501.408094523,146722.037133971,1079928.36448986)
(-765595.910506683,105368.678272114,1785190.37585275)
(-1008029.55389779,55812.270688645,2761599.73685092)
(0,0,0)
(0,0,0)
(0,0,0)
(0,0,0)
(0,0,0)
(0,0,0)
(-166101.158223238,438527.849208571,13992.7512286611)
(-169644.709879628,435241.002457105,31104.9270724947)
(-178585.291022322,428135.82006754,56294.3132282979)
(-197387.440715265,416350.418866704,98993.6170352267)
(-234878.904175693,398164.811434985,177886.397451233)
(-305184.400304643,371300.971948623,327337.609034859)
(-421256.415225344,332793.425105746,598664.039660977)
(-572204.201388054,278988.543557611,1038601.73462537)
(-795732.034755952,204175.793184229,1735526.65446924)
(-1023211.90814452,108973.351327893,2705577.48197443)
(0,0,0)
(0,0,0)
(0,0,0)
(0,0,0)
(0,0,0)
(0,0,0)
(-256992.259556044,684841.058215944,10679.0505486727)
(-260142.188028728,682011.859438006,24050.381596497)
(-268185.281764011,675864.80468697,44506.678741083)
(-285367.664891479,665349.533943765,80875.2285555027)
(-320189.071271481,648074.741819365,151154.369442605)
(-386246.108168124,619662.155052246,289039.294507098)
(-495161.368513133,571919.191780341,545074.896345639)
(-632432.356422431,492603.296875682,963892.499449993)
(-840689.483756434,368474.857601513,1640282.91878908)
(-1048015.78016591,200737.977171913,2596534.07311103)
(0,0,0)
(0,0,0)
(0,0,0)
(0,0,0)
(0,0,0)
(0,0,0)
(-423196.487616178,1100209.52261677,7828.02321534204)
(-425733.772182385,1097654.85451849,17918.8003172421)
(-432211.921127644,1091989.0684739,34006.4576579625)
(-446187.098491569,1081775.74133365,63767.3487596292)
(-474822.199857335,1063698.76957769,122965.520858631)
(-529761.964923519,1030811.00593901,241578.634895385)
(-620967.424023914,968414.857924204,466050.392775419)
(-732094.236999831,850749.181015442,839998.745635508)
(-922245.395053955,658082.242901024,1472636.75538995)
(-1095394.61480982,372979.539610294,2395789.80776133)
(0,0,0)
(0,0,0)
(0,0,0)
(0,0,0)
(0,0,0)
(0,0,0)
(-701557.516723071,1796532.78462131,5234.25471852063)
(-703293.540104336,1793964.64011804,12218.0092233236)
(-707689.750298107,1788074.03755557,23822.7904397276)
(-717077.433205752,1776755.13546678,45920.8295123612)
(-735988.358831287,1755198.3217902,90409.6361311587)
(-771556.919911261,1713188.11062164,179589.451359778)
(-831262.996869603,1630462.18772852,348805.118425064)
(-920011.490308475,1471859.22519049,647706.564558491)
(-1072675.79832521,1190672.41665157,1187792.18913313)
(-1178065.9318193,715858.117712533,2022979.5428502)
(0,0,0)
(0,0,0)
(0,0,0)
(0,0,0)
(0,0,0)
(0,0,0)
(-979816.185322692,2773712.66896559,2636.30097839755)
(-980694.501642059,2771018.15050482,6277.29223367225)
(-982879.779630835,2764726.85866649,12504.2507536196)
(-987485.321837249,2752204.01436571,24540.6936919517)
(-996628.354816687,2727558.7570715,48808.6132273469)
(-1013751.98729839,2678420.85004566,97327.8611017109)
(-1043629.90427941,2580725.60014424,190694.352965386)
(-1094005.01619735,2389548.02748214,367010.566871046)
(-1177791.89661004,2022010.66277369,713464.217358962)
(-1186197.02028758,1307999.57021434,1307519.78514474)
(0,0,0)
(0,0,0)
(0,0,0)
(0,0,0)
(0,0,0)
(0,0,0)
(0,0,0)
(0,0,0)
(0,0,0)
(0,0,0)
(0,0,0)
(0,0,0)
(0,0,0)
(0,0,0)
(0,0,0)
(0,0,0)
(0,0,0)
(0,0,0)
(0,0,0)
(0,0,0)
(0,0,0)
(0,0,0)
(0,0,0)
(0,0,0)
(0,0,0)
(0,0,0)
(0,0,0)
(0,0,0)
(0,0,0)
(0,0,0)
(0,0,0)
(0,0,0)
(0,0,0)
(0,0,0)
(0,0,0)
(0,0,0)
(0,0,0)
(0,0,0)
(0,0,0)
(0,0,0)
(0,0,0)
(0,0,0)
(0,0,0)
(0,0,0)
(0,0,0)
(0,0,0)
(0,0,0)
(0,0,0)
(0,0,0)
(0,0,0)
(0,0,0)
(0,0,0)
(0,0,0)
(0,0,0)
(0,0,0)
(0,0,0)
(0,0,0)
(0,0,0)
(0,0,0)
(0,0,0)
(0,0,0)
(0,0,0)
(0,0,0)
(0,0,0)
(0,0,0)
(0,0,0)
(0,0,0)
(0,0,0)
(0,0,0)
(0,0,0)
(0,0,0)
(0,0,0)
(0,0,0)
(0,0,0)
(0,0,0)
(0,0,0)
(0,0,0)
(0,0,0)
(0,0,0)
(0,0,0)
(0,0,0)
(0,0,0)
(0,0,0)
(0,0,0)
(0,0,0)
(0,0,0)
(0,0,0)
(0,0,0)
(0,0,0)
(0,0,0)
(0,0,0)
(0,0,0)
(0,0,0)
(0,0,0)
(0,0,0)
(0,0,0)
(0,0,0)
(0,0,0)
(0,0,0)
(0,0,0)
(0,0,0)
(0,0,0)
(9200616.90565349,29496.6725712068,25418.9971737818)
(9194560.77223702,28137.3984900188,54635.8292590897)
(9180737.34201274,25173.8729798543,92343.6119418303)
(9154895.65488638,20392.4079114119,144964.927005242)
(9108949.99218895,13628.8873997264,222000.804564441)
(9027368.93399111,5495.1084830299,338031.714602463)
(8877635.66687088,-1870.51969334334,519254.012007621)
(8581665.61751225,-5152.24615360957,833611.710754125)
(7913837.00596464,-4316.13167502237,1537785.41247586)
(6099997.54378287,-2125.68239010285,3776665.98226682)
(0,0,0)
(0,0,0)
(0,0,0)
(0,0,0)
(0,0,0)
(0,0,0)
(9194479.04518041,62915.691772969,24028.9812662135)
(9188452.13405866,60332.8040588526,51684.6185688409)
(9174523.86023652,54695.4067265835,87525.8571257426)
(9148223.98262141,45371.4265767133,138151.263324818)
(9101015.47783774,31650.1894553639,213848.131182947)
(9017098.19384164,14267.5883620987,330742.108882573)
(8865071.14979225,-2406.17782573922,516061.381568772)
(8570351.20903067,-9599.476886735,834549.123254541)
(7906776.85121255,-7232.49354737357,1540046.12312809)
(6096891.78179409,-3109.05416291595,3778852.3773655)
(0,0,0)
(0,0,0)
(0,0,0)
(0,0,0)
(0,0,0)
(0,0,0)
(9180589.87043585,104666.472208451,21381.9220731963)
(9174543.99079626,101208.764265974,45995.2044712666)
(9160339.41106774,93603.9340450532,78080.3405383138)
(9132921.07068067,80643.6078984352,124368.16417403)
(9082467.8075803,60651.9533259684,196435.571028774)
(8991679.91346567,33234.5942202974,314139.780433665)
(8830958.01136126,4046.98704487645,508978.922314716)
(8539056.69456413,-8460.2340342544,836978.446469597)
(7888565.15450948,-4091.75287935154,1544198.71867832)
(6089312.10836154,-223.154169951637,3781970.85080948)
(0,0,0)
(0,0,0)
(0,0,0)
(0,0,0)
(0,0,0)
(0,0,0)
(9155071.63366426,160180.484508906,17816.6469208438)
(9149048.25683195,156377.103401229,38272.3168405365)
(9134503.39619458,148027.247595704,64980.3622234359)
(9105301.04279762,133630.419558745,104318.201322363)
(9048862.23873112,110692.461378923,169054.577395459)
(8942543.36654767,76942.2308194596,285078.08909975)
(8755101.4430435,35928.4854971185,496628.186300546)
(8467748.33125885,15814.7571360725,841436.730784072)
(7851743.68009137,17305.8704274435,1548095.45346724)
(6075155.23031744,12180.8153801463,3782160.00082027)
(0,0,0)
(0,0,0)
(0,0,0)
(0,0,0)
(0,0,0)
(0,0,0)
(9110194.37821029,237001.34020081,13987.8048944542)
(9104290.90466634,233475.43138793,29880.7726282362)
(9089661.47538624,225800.984163967,50506.4045911276)
(9058936.32515025,212881.004503763,81402.4567376515)
(8995640.62079082,192963.80123151,135443.698803901)
(8866039.83201912,165021.581306411,244260.257872872)
(8618714.63549113,131981.415648952,476697.31540219)
(8335551.10836376,103055.619289106,843009.565977891)
(7794036.75849791,75317.7131853388,1542970.68340225)
(6054113.29558489,40692.2322195757,3769922.04626719)
(0,0,0)
(0,0,0)
(0,0,0)
(0,0,0)
(0,0,0)
(0,0,0)
(9030264.73276195,347785.081533912,10455.9968686584)
(9024764.03476814,344893.54282959,22234.7699661906)
(9010809.1834742,338681.828806523,37565.0800141103)
(8980631.30705228,328489.178631599,61543.7873057834)
(8916634.06334194,312953.002069949,107647.248136673)
(8783357.39941764,290316.358238132,211416.30066966)
(8532909.85168491,258941.145156382,447895.933438977)
(8262239.03785869,218845.044740027,815268.897928247)
(7744852.90990467,159334.219724069,1508273.07591586)
(6029986.02212052,84249.4231623734,3729123.58389508)
(0,0,0)
(0,0,0)
(0,0,0)
(0,0,0)
(0,0,0)
(0,0,0)
(8882024.09562628,518812.276149402,7562.07938918433)
(8877232.67262458,516594.338158722,16092.052593707)
(8864842.65567095,511955.285829904,27396.2873223835)
(8837426.35138906,504608.479393801,46088.5994666319)
(8777756.7161976,493554.125578966,85147.3176755103)
(8650331.51068401,476269.768549059,180221.917699426)
(8407443.14263231,446202.66685287,407961.514044445)
(8163148.32755814,393014.293372166,755817.210618757)
(7671929.75725005,286972.197224351,1433165.62129896)
(5988767.90759525,153391.781998913,3644845.20388831)
(0,0,0)
(0,0,0)
(0,0,0)
(0,0,0)
(0,0,0)
(0,0,0)
(8585769.25428269,822102.821053975,5349.34238358987)
(8581979.45698066,820325.14103367,11510.9395325884)
(8572104.91546047,816670.760685543,20084.2572757726)
(8549952.20156093,810986.880305412,35172.1854987263)
(8500772.97811582,802628.853034624,68107.9092568281)
(8392658.39303686,789101.983609202,150460.965423324)
(8180059.75468042,758188.148536583,355053.934222189)
(8020690.49862402,662897.786444304,649991.334713135)
(7524901.68355907,507724.479111021,1299697.60340033)
(5893430.99857178,290382.534447429,3491486.86675718)
(0,0,0)
(0,0,0)
(0,0,0)
(0,0,0)
(0,0,0)
(0,0,0)
(7916117.49604065,1518479.65375157,3553.78372564083)
(7913555.0457505,1516767.33907623,7868.62901527131)
(7906946.82149116,1513058.1521664,14450.2949321188)
(7892463.81002962,1506483.03034662,27018.530842459)
(7861706.83267762,1494645.28878272,54912.5327724117)
(7799086.87664786,1471040.87950456,119935.469504902)
(7686192.87535406,1418131.68713776,260141.687867069)
(7527535.80565178,1297929.79569383,495168.011844307)
(7079581.73479067,1085635.72038936,1082604.86663707)
(5603436.64975522,707796.426086789,3201294.02261009)
(0,0,0)
(0,0,0)
(0,0,0)
(0,0,0)
(0,0,0)
(0,0,0)
(6100743.44688118,3753711.16768767,1814.48304696596)
(6099459.83760797,3751902.9111219,4130.20093824005)
(6096210.09165716,3747800.73951936,7903.37148421409)
(6089252.58787756,3739869.78758418,15384.3337188746)
(6074972.65383695,3724330.6774016,31703.5656333649)
(6046841.6398756,3692300.91308314,67455.5340678592)
(5994737.71758902,3624472.70802412,140352.520500024)
(5894904.78287408,3483681.94244586,283296.203863539)
(5603663.79584509,3199904.72933852,705177.131646226)
(4556284.2293447,2494252.05437259,2493845.88291509)
(0,0,0)
(0,0,0)
(0,0,0)
(0,0,0)
(0,0,0)
(0,0,0)
(0,0,0)
(0,0,0)
(0,0,0)
(0,0,0)
(0,0,0)
(0,0,0)
(0,0,0)
(0,0,0)
(0,0,0)
(0,0,0)
(0,0,0)
(0,0,0)
(0,0,0)
(0,0,0)
(0,0,0)
(0,0,0)
(0,0,0)
(0,0,0)
(0,0,0)
(0,0,0)
(0,0,0)
(0,0,0)
(0,0,0)
(0,0,0)
(0,0,0)
(0,0,0)
(0,0,0)
(0,0,0)
(0,0,0)
(0,0,0)
(0,0,0)
(0,0,0)
(0,0,0)
(0,0,0)
(0,0,0)
(0,0,0)
(0,0,0)
(0,0,0)
(0,0,0)
(0,0,0)
(0,0,0)
(0,0,0)
(0,0,0)
(0,0,0)
(0,0,0)
(0,0,0)
(0,0,0)
(0,0,0)
(0,0,0)
(0,0,0)
(0,0,0)
(0,0,0)
(0,0,0)
(0,0,0)
(0,0,0)
(0,0,0)
(0,0,0)
(0,0,0)
(0,0,0)
(0,0,0)
(0,0,0)
(0,0,0)
(0,0,0)
(0,0,0)
(0,0,0)
(0,0,0)
(0,0,0)
(0,0,0)
(0,0,0)
(0,0,0)
(0,0,0)
(0,0,0)
(0,0,0)
(0,0,0)
(0,0,0)
(0,0,0)
(0,0,0)
(0,0,0)
(0,0,0)
(0,0,0)
(0,0,0)
(0,0,0)
(0,0,0)
(0,0,0)
(0,0,0)
(0,0,0)
(0,0,0)
(0,0,0)
(0,0,0)
(0,0,0)
(0,0,0)
(0,0,0)
(0,0,0)
(0,0,0)
(0,0,0)
(0,0,0)
(-159825.638610777,23412.9040158482,19424.011061407)
(-166502.507095157,22036.1137487057,40845.5474579123)
(-181556.22777582,18942.0390606291,66591.4489989)
(-208898.410717191,13634.3146814693,99145.5707340661)
(-255610.614450059,5586.53740377799,140514.010782323)
(-333383.164224294,-4823.56053016242,188484.040340993)
(-460595.911756408,-14448.2106988874,223558.200480212)
(-661974.179783035,-16480.4920650385,166072.860653638)
(-950712.38917943,-11327.030631517,-275656.342757775)
(-1165530.48622589,-5173.10337500473,-2322560.83856094)
(0,0,0)
(0,0,0)
(0,0,0)
(0,0,0)
(0,0,0)
(0,0,0)
(-166859.965346266,49120.489475078,18025.7958804357)
(-173390.364773669,46510.9564938069,37787.8227806521)
(-188251.859931083,40578.8179946802,61321.1348272524)
(-215595.589471984,30047.6404308543,91121.7519843239)
(-263009.63265275,13026.8545480772,130100.916143527)
(-342931.147192482,-11206.7785347265,178907.845995263)
(-473128.854786353,-36538.7806366527,221592.791324575)
(-672541.425342739,-40900.0914588318,171299.395904789)
(-956026.013109714,-25390.7680628877,-269439.631528463)
(-1167413.94955464,-10606.1164352812,-2317306.51630646)
(0,0,0)
(0,0,0)
(0,0,0)
(0,0,0)
(0,0,0)
(0,0,0)
(-182522.487121857,79274.1552296963,15353.0626161352)
(-188842.442496624,75811.1367797121,31833.6864361069)
(-203427.11723539,67827.1023935914,50746.3011533167)
(-230989.902086162,53019.8653080299,74079.419855957)
(-280818.732166343,26973.8120266849,105813.372937076)
(-368958.826141391,-15963.6097849621,153603.31460739)
(-515066.219641016,-71822.4195539439,217305.555339976)
(-709234.201354821,-79726.414841669,186817.145454688)
(-972146.192272743,-40830.9821689147,-254636.922843981)
(-1172608.34321776,-14292.3828636046,-2306635.83402336)
(0,0,0)
(0,0,0)
(0,0,0)
(0,0,0)
(0,0,0)
(0,0,0)
(-210467.631050591,115393.441280703,11814.349476896)
(-216453.244789375,111725.555169204,23795.8035217027)
(-230631.856552668,103274.070591748,35878.4588838101)
(-258740.125227896,87297.1911750543,48036.671855267)
(-314076.674908611,57426.5239854971,62917.2443492412)
(-426340.182148624,373.659786441384,97857.8942871636)
(-645480.756448805,-100506.011673561,209518.056712091)
(-829444.610243346,-116365.991281807,225744.945467447)
(-1012525.27006569,-40342.7960440449,-228079.9196873)
(-1183711.49963375,-8794.59982330247,-2292316.60196344)
(0,0,0)
(0,0,0)
(0,0,0)
(0,0,0)
(0,0,0)
(0,0,0)
(-257386.052403176,157232.116884006,8136.12582318776)
(-262896.205486107,154096.781115064,15346.3808428188)
(-276309.628546305,147093.830894808,19892.0952852828)
(-304417.684824024,134679.433598998,18258.2336486492)
(-366286.076654918,113986.959323774,6018.86656911444)
(-524640.193038506,82328.1647471697,-2861.24252099483)
(-1042212.10353337,46173.6614763486,193780.194166597)
(-1236232.79848054,29781.7627886915,301810.717753382)
(-1091732.86933578,26185.2946137075,-196553.374257566)
(-1201905.81360005,16610.020330394,-2283544.51441322)
(0,0,0)
(0,0,0)
(0,0,0)
(0,0,0)
(0,0,0)
(0,0,0)
(-334842.218950763,199732.125443015,5001.31396675868)
(-339656.648735882,197522.897546861,8390.25185202691)
(-351688.286783025,192871.295858074,7504.62795899015)
(-377842.668696194,185405.766555035,-2353.35843562479)
(-437985.203037842,174164.353909346,-25517.1158283719)
(-595942.334790102,157356.324854511,-38851.170914957)
(-1088410.32284946,133530.043893574,177506.992015159)
(-1266174.5050381,119871.135293839,298225.533219866)
(-1128682.07154995,86535.7717158759,-206195.591614694)
(-1220091.56303031,43108.7403144038,-2300222.35563482)
(0,0,0)
(0,0,0)
(0,0,0)
(0,0,0)
(0,0,0)
(0,0,0)
(-461430.70698382,222768.566632648,2812.7322334588)
(-465395.195917559,221529.842391552,3828.026743943)
(-475538.484058818,219362.793052956,112.04009180654)
(-498368.531825567,217205.224800658,-13498.1641261796)
(-553595.434272576,216625.392722515,-42212.6816561438)
(-708276.436856189,218674.162456764,-62528.2009051638)
(-1222020.47043487,218901.323910464,163958.50295819)
(-1386243.91050378,250674.604428342,264941.6426986)
(-1184646.06832114,140056.777168369,-249609.166369671)
(-1250137.58500026,58117.5591578931,-2343318.12180467)
(0,0,0)
(0,0,0)
(0,0,0)
(0,0,0)
(0,0,0)
(0,0,0)
(-663411.689221981,152735.871189019,1608.00976127447)
(-666416.696488193,152172.464210953,1755.9122237402)
(-674185.499218523,151746.586377792,-1943.09560903736)
(-692102.818106082,153634.077287034,-13922.5576154691)
(-737827.30856303,163638.181905017,-39940.6893060455)
(-879795.311090902,195625.42036027,-62043.872268779)
(-1441044.5010697,264445.218893826,195910.859311066)
(-1174697.30550231,169884.08132232,154483.557356457)
(-1229327.67431083,62546.3983152522,-331382.335107422)
(-1296629.86186452,495.770882397979,-2401305.31558253)
(0,0,0)
(0,0,0)
(0,0,0)
(0,0,0)
(0,0,0)
(0,0,0)
(-953182.500702045,-296614.510879997,1044.74962474993)
(-955146.693623984,-297046.985616886,1360.30964004088)
(-960156.301796722,-297427.515403695,31.9055224327852)
(-971189.093248714,-296551.207762804,-3735.53533632535)
(-996353.396575317,-291960.989655468,-7681.76370985815)
(-1056588.47670477,-281065.976012463,7079.35682850282)
(-1188331.2335151,-273170.082565904,101613.137970391)
(-1231434.98387935,-334544.839115724,47407.2187525493)
(-1344744.0890793,-390110.024914868,-393216.163334366)
(-1366062.69724659,-339228.459743816,-2401598.21489325)
(0,0,0)
(0,0,0)
(0,0,0)
(0,0,0)
(0,0,0)
(0,0,0)
(-1167469.4117787,-2346595.97229557,588.690888511186)
(-1168437.21913647,-2347113.50264213,946.635471172886)
(-1170859.37434958,-2347985.41086205,968.367749360874)
(-1175975.33009578,-2349020.01400864,1059.46278152264)
(-1186765.54878344,-2350300.05163127,3531.09819074325)
(-1209441.80716303,-2354174.21165384,15317.1516837569)
(-1251394.82057423,-2369871.77524534,40545.7533395281)
(-1298023.245268,-2410825.6057924,-7851.08102872084)
(-1366464.10266256,-2403402.53150463,-342036.30511827)
(-1318718.27378468,-2061762.76293909,-2062105.12798053)
(0,0,0)
(0,0,0)
(0,0,0)
(0,0,0)
(0,0,0)
(0,0,0)
(0,0,0)
(0,0,0)
(0,0,0)
(0,0,0)
(0,0,0)
(0,0,0)
(0,0,0)
(0,0,0)
(0,0,0)
(0,0,0)
(0,0,0)
(0,0,0)
(0,0,0)
(0,0,0)
(0,0,0)
(0,0,0)
(0,0,0)
(0,0,0)
(0,0,0)
(0,0,0)
(0,0,0)
(0,0,0)
(0,0,0)
(0,0,0)
(0,0,0)
(0,0,0)
(0,0,0)
(0,0,0)
(0,0,0)
(0,0,0)
(0,0,0)
(0,0,0)
(0,0,0)
(0,0,0)
(0,0,0)
(0,0,0)
(0,0,0)
(0,0,0)
(0,0,0)
(0,0,0)
(0,0,0)
(0,0,0)
(0,0,0)
(0,0,0)
(0,0,0)
(0,0,0)
(0,0,0)
(0,0,0)
(0,0,0)
(0,0,0)
(0,0,0)
(0,0,0)
(0,0,0)
(0,0,0)
(0,0,0)
(0,0,0)
(0,0,0)
(0,0,0)
(0,0,0)
(0,0,0)
(0,0,0)
(0,0,0)
(0,0,0)
(0,0,0)
(0,0,0)
(0,0,0)
(0,0,0)
(0,0,0)
(0,0,0)
(0,0,0)
(0,0,0)
(0,0,0)
(0,0,0)
(0,0,0)
(0,0,0)
(0,0,0)
(0,0,0)
(0,0,0)
(0,0,0)
(0,0,0)
(0,0,0)
(0,0,0)
(0,0,0)
(0,0,0)
(0,0,0)
(0,0,0)
(0,0,0)
(0,0,0)
(0,0,0)
(0,0,0)
(0,0,0)
(0,0,0)
(0,0,0)
(0,0,0)
(0,0,0)
(0,0,0)
(-189076.500106,16441.5304732882,12809.3310219364)
(-194754.025032267,15161.4224652616,25899.4264937847)
(-207263.987735782,12211.2332235897,39395.9532301594)
(-228978.081825473,6858.00046100398,52617.6238774357)
(-263949.146670044,-1910.46768825972,62866.6237856832)
(-317548.549959452,-14418.5628890083,61450.5724098516)
(-394549.195382288,-26995.480963909,22399.3369996423)
(-490039.644848351,-27084.5549926603,-122450.64294238)
(-566430.587200966,-16635.7044747942,-490096.740446043)
(-492200.567553395,-7037.88151793895,-1156388.77760062)
(0,0,0)
(0,0,0)
(0,0,0)
(0,0,0)
(0,0,0)
(0,0,0)
(-195455.75538371,33519.5255527597,11517.7949579731)
(-200794.75289337,31105.6685202659,22977.9370226657)
(-212569.944323917,25418.4275411368,34088.8270979525)
(-233123.086899314,14587.769159823,43886.5558264621)
(-266494.564856899,-4881.88593275731,50342.9062751092)
(-318576.486673249,-37310.8924479134,48880.575314788)
(-395088.165447956,-78513.5244001319,22357.9294126216)
(-487701.779936431,-77610.7269148839,-111955.544071457)
(-562683.900790221,-41472.3376403973,-480461.023225351)
(-489893.629739016,-15733.4123388292,-1149285.81222011)
(0,0,0)
(0,0,0)
(0,0,0)
(0,0,0)
(0,0,0)
(0,0,0)
(-209431.785135243,51372.3902244675,9056.43334168097)
(-214179.03620693,48203.9679277984,17294.7276444505)
(-224579.705204799,40597.9973003186,23267.7458546756)
(-242728.129966772,25179.4171736845,24414.3257214258)
(-272730.966851393,-6416.84364891327,17861.51812263)
(-322650.262934463,-73453.9663898365,7696.028857615)
(-406937.330971219,-202287.249018192,23340.8648058854)
(-487777.034412772,-199921.417341608,-75805.6117094437)
(-553562.194426499,-81144.3136299296,-454717.633566162)
(-484276.692048444,-25315.3903212074,-1133467.30675312)
(0,0,0)
(0,0,0)
(0,0,0)
(0,0,0)
(0,0,0)
(0,0,0)
(-233483.683265898,68526.198895139,5862.24354463867)
(-237387.887472972,65307.8170901778,9693.03706585929)
(-245802.168201382,57594.9558660937,7866.39014880067)
(-260092.667390885,41552.9107761334,-7154.5612906602)
(-283581.103110563,5105.46486161444,-49172.441599231)
(-329861.953406598,-98021.469173382,-121083.167557719)
(-497366.606800907,-497281.853955778,25797.2877319631)
(-523441.902512405,-523127.619392733,43000.7820521529)
(-532317.57054236,-119481.655902387,-398869.575198716)
(-472912.554598956,-26912.4115504092,-1108071.4990043)
(0,0,0)
(0,0,0)
(0,0,0)
(0,0,0)
(0,0,0)
(0,0,0)
(-271524.847038972,79977.0830459463,2687.91048498965)
(-274426.416593067,77482.3577578229,2043.58092430423)
(-280347.691765444,71802.923415526,-8126.32340598815)
(-288768.159387467,61267.0836018753,-43490.021668286)
(-294735.036582586,42250.9734669578,-152186.570345964)
(-265556.336297054,10984.6746534884,-520276.570914288)
(7.97073901346822e-05,2.23405957131154e-05,-5.2772096378333e-05)