/*--------------------------------*- C++ -*----------------------------------*\
| =========                 |                                                 |
| \\      /  F ield         | foam-extend: Open Source CFD                    |
|  \\    /   O peration     | Version:     4.0                                |
|   \\  /    A nd           | Web:         http://www.foam-extend.org         |
|    \\/     M anipulation  |                                                 |
\*---------------------------------------------------------------------------*/
FoamFile
{
    version 2.0;
    format ascii;
    class volVectorField;
    location "259";
    object      H;
}
// * * * * * * * * * * * * * * * * * * * * * * * * * * * * * * * * * * * * * //

dimensions      [0 1 -1 0 0 0 0];

internalField   nonuniform List<vector>
4096
(
(0,0,0)
(0,0,0)
(0,0,0)
(0,0,0)
(0,0,0)
(0,0,0)
(0,0,0)
(0,0,0)
(0,0,0)
(0,0,0)
(0,0,0)
(0,0,0)
(0,0,0)
(0,0,0)
(0,0,0)
(0,0,0)
(0,0,0)
(0,0,0)
(0,0,0)
(0,0,0)
(0,0,0)
(0,0,0)
(0,0,0)
(0,0,0)
(0,0,0)
(0,0,0)
(0,0,0)
(0,0,0)
(0,0,0)
(0,0,0)
(0,0,0)
(0,0,0)
(0,0,0)
(0,0,0)
(0,0,0)
(0,0,0)
(0,0,0)
(0,0,0)
(0,0,0)
(0,0,0)
(0,0,0)
(0,0,0)
(0,0,0)
(0,0,0)
(0,0,0)
(0,0,0)
(0,0,0)
(0,0,0)
(0,0,0)
(0,0,0)
(0,0,0)
(0,0,0)
(0,0,0)
(0,0,0)
(0,0,0)
(0,0,0)
(0,0,0)
(0,0,0)
(0,0,0)
(0,0,0)
(0,0,0)
(0,0,0)
(0,0,0)
(0,0,0)
(0,0,0)
(0,0,0)
(0,0,0)
(0,0,0)
(0,0,0)
(0,0,0)
(0,0,0)
(0,0,0)
(0,0,0)
(0,0,0)
(0,0,0)
(0,0,0)
(0,0,0)
(0,0,0)
(0,0,0)
(0,0,0)
(0,0,0)
(0,0,0)
(0,0,0)
(0,0,0)
(0,0,0)
(0,0,0)
(0,0,0)
(0,0,0)
(0,0,0)
(0,0,0)
(0,0,0)
(0,0,0)
(0,0,0)
(0,0,0)
(0,0,0)
(0,0,0)
(0,0,0)
(0,0,0)
(0,0,0)
(0,0,0)
(0,0,0)
(0,0,0)
(0,0,0)
(0,0,0)
(0,0,0)
(0,0,0)
(0,0,0)
(0,0,0)
(0,0,0)
(0,0,0)
(0,0,0)
(0,0,0)
(0,0,0)
(0,0,0)
(0,0,0)
(0,0,0)
(0,0,0)
(0,0,0)
(0,0,0)
(0,0,0)
(0,0,0)
(0,0,0)
(0,0,0)
(0,0,0)
(0,0,0)
(0,0,0)
(0,0,0)
(0,0,0)
(0,0,0)
(0,0,0)
(0,0,0)
(0,0,0)
(0,0,0)
(0,0,0)
(0,0,0)
(0,0,0)
(0,0,0)
(0,0,0)
(0,0,0)
(0,0,0)
(0,0,0)
(0,0,0)
(0,0,0)
(0,0,0)
(0,0,0)
(0,0,0)
(0,0,0)
(0,0,0)
(0,0,0)
(0,0,0)
(0,0,0)
(0,0,0)
(0,0,0)
(0,0,0)
(0,0,0)
(0,0,0)
(0,0,0)
(0,0,0)
(0,0,0)
(0,0,0)
(0,0,0)
(0,0,0)
(0,0,0)
(0,0,0)
(0,0,0)
(0,0,0)
(0,0,0)
(0,0,0)
(0,0,0)
(0,0,0)
(0,0,0)
(0,0,0)
(0,0,0)
(0,0,0)
(0,0,0)
(0,0,0)
(0,0,0)
(0,0,0)
(0,0,0)
(0,0,0)
(0,0,0)
(0,0,0)
(0,0,0)
(0,0,0)
(0,0,0)
(0,0,0)
(0,0,0)
(0,0,0)
(0,0,0)
(0,0,0)
(0,0,0)
(0,0,0)
(0,0,0)
(0,0,0)
(0,0,0)
(0,0,0)
(0,0,0)
(0,0,0)
(0,0,0)
(0,0,0)
(0,0,0)
(0,0,0)
(0,0,0)
(0,0,0)
(0,0,0)
(0,0,0)
(0,0,0)
(0,0,0)
(0,0,0)
(0,0,0)
(0,0,0)
(0,0,0)
(0,0,0)
(0,0,0)
(0,0,0)
(0,0,0)
(0,0,0)
(0,0,0)
(0,0,0)
(0,0,0)
(0,0,0)
(0,0,0)
(0,0,0)
(0,0,0)
(0,0,0)
(0,0,0)
(0,0,0)
(0,0,0)
(0,0,0)
(0,0,0)
(0,0,0)
(0,0,0)
(0,0,0)
(0,0,0)
(0,0,0)
(0,0,0)
(0,0,0)
(0,0,0)
(0,0,0)
(0,0,0)
(0,0,0)
(0,0,0)
(0,0,0)
(0,0,0)
(0,0,0)
(0,0,0)
(0,0,0)
(0,0,0)
(0,0,0)
(0,0,0)
(0,0,0)
(0,0,0)
(0,0,0)
(0,0,0)
(0,0,0)
(0,0,0)
(0,0,0)
(0,0,0)
(0,0,0)
(0,0,0)
(0,0,0)
(0,0,0)
(0,0,0)
(0,0,0)
(0,0,0)
(0,0,0)
(0,0,0)
(0,0,0)
(0,0,0)
(0,0,0)
(0,0,0)
(0,0,0)
(0,0,0)
(0,0,0)
(0,0,0)
(0,0,0)
(0,0,0)
(0,0,0)
(0,0,0)
(0,0,0)
(0,0,0)
(0,0,0)
(0,0,0)
(0,0,0)
(0,0,0)
(0,0,0)
(0,0,0)
(0,0,0)
(0,0,0)
(0,0,0)
(0,0,0)
(0,0,0)
(0,0,0)
(0,0,0)
(0,0,0)
(0,0,0)
(0,0,0)
(0,0,0)
(0,0,0)
(0,0,0)
(0,0,0)
(0,0,0)
(0,0,0)
(0,0,0)
(0,0,0)
(0,0,0)
(0,0,0)
(0,0,0)
(0,0,0)
(0,0,0)
(0,0,0)
(0,0,0)
(0,0,0)
(0,0,0)
(0,0,0)
(0,0,0)
(0,0,0)
(0,0,0)
(0,0,0)
(0,0,0)
(0,0,0)
(0,0,0)
(0,0,0)
(0,0,0)
(0,0,0)
(0,0,0)
(0,0,0)
(0,0,0)
(0,0,0)
(0,0,0)
(0,0,0)
(0,0,0)
(0,0,0)
(0,0,0)
(0,0,0)
(0,0,0)
(0,0,0)
(0,0,0)
(0,0,0)
(0,0,0)
(0,0,0)
(0,0,0)
(0,0,0)
(0,0,0)
(0,0,0)
(0,0,0)
(0,0,0)
(0,0,0)
(0,0,0)
(0,0,0)
(0,0,0)
(0,0,0)
(0,0,0)
(0,0,0)
(0,0,0)
(0,0,0)
(0,0,0)
(0,0,0)
(0,0,0)
(0,0,0)
(0,0,0)
(0,0,0)
(0,0,0)
(0,0,0)
(0,0,0)
(0,0,0)
(0,0,0)
(0,0,0)
(0,0,0)
(0,0,0)
(0,0,0)
(0,0,0)
(0,0,0)
(0,0,0)
(0,0,0)
(0,0,0)
(0,0,0)
(0,0,0)
(0,0,0)
(0,0,0)
(0,0,0)
(0,0,0)
(0,0,0)
(0,0,0)
(0,0,0)
(0,0,0)
(0,0,0)
(0,0,0)
(0,0,0)
(0,0,0)
(0,0,0)
(0,0,0)
(0,0,0)
(0,0,0)
(0,0,0)
(0,0,0)
(0,0,0)
(0,0,0)
(0,0,0)
(0,0,0)
(0,0,0)
(0,0,0)
(0,0,0)
(0,0,0)
(0,0,0)
(0,0,0)
(0,0,0)
(0,0,0)
(0,0,0)
(0,0,0)
(0,0,0)
(0,0,0)
(0,0,0)
(0,0,0)
(0,0,0)
(0,0,0)
(0,0,0)
(0,0,0)
(0,0,0)
(0,0,0)
(0,0,0)
(0,0,0)
(0,0,0)
(0,0,0)
(0,0,0)
(0,0,0)
(0,0,0)
(0,0,0)
(0,0,0)
(0,0,0)
(0,0,0)
(0,0,0)
(0,0,0)
(0,0,0)
(0,0,0)
(0,0,0)
(0,0,0)
(0,0,0)
(0,0,0)
(0,0,0)
(0,0,0)
(0,0,0)
(0,0,0)
(0,0,0)
(0,0,0)
(0,0,0)
(0,0,0)
(0,0,0)
(0,0,0)
(0,0,0)
(0,0,0)
(0,0,0)
(0,0,0)
(0,0,0)
(0,0,0)
(0,0,0)
(0,0,0)
(0,0,0)
(0,0,0)
(0,0,0)
(0,0,0)
(0,0,0)
(0,0,0)
(0,0,0)
(0,0,0)
(0,0,0)
(0,0,0)
(0,0,0)
(0,0,0)
(0,0,0)
(0,0,0)
(0,0,0)
(0,0,0)
(0,0,0)
(0,0,0)
(0,0,0)
(0,0,0)
(0,0,0)
(0,0,0)
(0,0,0)
(0,0,0)
(0,0,0)
(0,0,0)
(0,0,0)
(0,0,0)
(0,0,0)
(0,0,0)
(0,0,0)
(0,0,0)
(0,0,0)
(0,0,0)
(0,0,0)
(0,0,0)
(0,0,0)
(0,0,0)
(0,0,0)
(0,0,0)
(0,0,0)
(0,0,0)
(0,0,0)
(0,0,0)
(0,0,0)
(0,0,0)
(0,0,0)
(0,0,0)
(0,0,0)
(0,0,0)
(0,0,0)
(0,0,0)
(0,0,0)
(0,0,0)
(0,0,0)
(0,0,0)
(0,0,0)
(0,0,0)
(0,0,0)
(0,0,0)
(0,0,0)
(0,0,0)
(0,0,0)
(0,0,0)
(0,0,0)
(0,0,0)
(0,0,0)
(0,0,0)
(0,0,0)
(0,0,0)
(0,0,0)
(0,0,0)
(0,0,0)
(0,0,0)
(0,0,0)
(0,0,0)
(0,0,0)
(0,0,0)
(0,0,0)
(0,0,0)
(0,0,0)
(0,0,0)
(0,0,0)
(0,0,0)
(0,0,0)
(0,0,0)
(0,0,0)
(0,0,0)
(0,0,0)
(0,0,0)
(0,0,0)
(0,0,0)
(0,0,0)
(0,0,0)
(0,0,0)
(0,0,0)
(0,0,0)
(0,0,0)
(0,0,0)
(0,0,0)
(0,0,0)
(0,0,0)
(0,0,0)
(0,0,0)
(0,0,0)
(0,0,0)
(0,0,0)
(0,0,0)
(0,0,0)
(0,0,0)
(0,0,0)
(0,0,0)
(0,0,0)
(0,0,0)
(0,0,0)
(0,0,0)
(0,0,0)
(0,0,0)
(0,0,0)
(0,0,0)
(0,0,0)
(0,0,0)
(0,0,0)
(0,0,0)
(0,0,0)
(0,0,0)
(0,0,0)
(0,0,0)
(0,0,0)
(0,0,0)
(0,0,0)
(0,0,0)
(0,0,0)
(0,0,0)
(0,0,0)
(0,0,0)
(0,0,0)
(0,0,0)
(0,0,0)
(0,0,0)
(0,0,0)
(0,0,0)
(0,0,0)
(0,0,0)
(0,0,0)
(0,0,0)
(0,0,0)
(0,0,0)
(0,0,0)
(0,0,0)
(0,0,0)
(0,0,0)
(0,0,0)
(0,0,0)
(0,0,0)
(0,0,0)
(0,0,0)
(0,0,0)
(0,0,0)
(0,0,0)
(0,0,0)
(0,0,0)
(0,0,0)
(0,0,0)
(0,0,0)
(0,0,0)
(0,0,0)
(0,0,0)
(0,0,0)
(0,0,0)
(0,0,0)
(0,0,0)
(0,0,0)
(0,0,0)
(0,0,0)
(0,0,0)
(0,0,0)
(0,0,0)
(0,0,0)
(0,0,0)
(0,0,0)
(0,0,0)
(0,0,0)
(0,0,0)
(0,0,0)
(0,0,0)
(0,0,0)
(0,0,0)
(0,0,0)
(0,0,0)
(0,0,0)
(0,0,0)
(0,0,0)
(0,0,0)
(0,0,0)
(0,0,0)
(0,0,0)
(0,0,0)
(0,0,0)
(0,0,0)
(0,0,0)
(0,0,0)
(0,0,0)
(0,0,0)
(0,0,0)
(0,0,0)
(0,0,0)
(0,0,0)
(0,0,0)
(0,0,0)
(0,0,0)
(0,0,0)
(0,0,0)
(0,0,0)
(0,0,0)
(0,0,0)
(0,0,0)
(0,0,0)
(0,0,0)
(0,0,0)
(0,0,0)
(0,0,0)
(0,0,0)
(0,0,0)
(0,0,0)
(0,0,0)
(0,0,0)
(0,0,0)
(0,0,0)
(0,0,0)
(0,0,0)
(0,0,0)
(0,0,0)
(0,0,0)
(0,0,0)
(0,0,0)
(0,0,0)
(0,0,0)
(0,0,0)
(0,0,0)
(0,0,0)
(0,0,0)
(0,0,0)
(0,0,0)
(0,0,0)
(0,0,0)
(0,0,0)
(0,0,0)
(0,0,0)
(0,0,0)
(0,0,0)
(0,0,0)
(0,0,0)
(0,0,0)
(0,0,0)
(0,0,0)
(0,0,0)
(0,0,0)
(0,0,0)
(0,0,0)
(0,0,0)
(0,0,0)
(0,0,0)
(0,0,0)
(0,0,0)
(0,0,0)
(0,0,0)
(0,0,0)
(0,0,0)
(0,0,0)
(0,0,0)
(0,0,0)
(0,0,0)
(0,0,0)
(0,0,0)
(0,0,0)
(0,0,0)
(0,0,0)
(0,0,0)
(0,0,0)
(0,0,0)
(0,0,0)
(0,0,0)
(0,0,0)
(0,0,0)
(0,0,0)
(0,0,0)
(0,0,0)
(0,0,0)
(0,0,0)
(0,0,0)
(0,0,0)
(0,0,0)
(0,0,0)
(0,0,0)
(0,0,0)
(0,0,0)
(0,0,0)
(0,0,0)
(0,0,0)
(0,0,0)
(0,0,0)
(0,0,0)
(0,0,0)
(0,0,0)
(0,0,0)
(0,0,0)
(0,0,0)
(0,0,0)
(0,0,0)
(0,0,0)
(0,0,0)
(0,0,0)
(0,0,0)
(0,0,0)
(0,0,0)
(0,0,0)
(0,0,0)
(0,0,0)
(0,0,0)
(0,0,0)
(0,0,0)
(0,0,0)
(0,0,0)
(0,0,0)
(0,0,0)
(0,0,0)
(0,0,0)
(0,0,0)
(0,0,0)
(0,0,0)
(0,0,0)
(0,0,0)
(0,0,0)
(0,0,0)
(0,0,0)
(0,0,0)
(0,0,0)
(0,0,0)
(0,0,0)
(0,0,0)
(0,0,0)
(0,0,0)
(0,0,0)
(0,0,0)
(0,0,0)
(0,0,0)
(0,0,0)
(0,0,0)
(0,0,0)
(0,0,0)
(0,0,0)
(0,0,0)
(0,0,0)
(0,0,0)
(0,0,0)
(0,0,0)
(0,0,0)
(0,0,0)
(0,0,0)
(0,0,0)
(0,0,0)
(9.45890707372828e-13,1.14587947667731e-11,-1.50279221543506e-11)
(1.99191604219624e-12,2.58366753108526e-11,-1.44073345869201e-11)
(2.4916385637956e-12,4.48635334864972e-11,-1.28625355783104e-11)
(1.93199647306586e-12,7.29876180269079e-11,-1.07811892129736e-11)
(1.11657808384883e-13,1.1724401673105e-10,-8.67078449621375e-12)
(-8.17084537136203e-13,1.8761114715597e-10,-6.55504160894389e-12)
(-5.98161165533773e-13,3.0100343113169e-10,-4.40205168376053e-12)
(-1.19306908592699e-12,4.8789561815414e-10,-2.72677532997639e-12)
(-2.00681033171914e-12,7.96799222662492e-10,-1.77764239753281e-12)
(-2.17226704575793e-12,1.22585381722737e-09,-8.41405387003368e-13)
(0,0,0)
(0,0,0)
(0,0,0)
(0,0,0)
(0,0,0)
(0,0,0)
(2.24971830718685e-12,1.10676292539407e-11,-3.27706177804367e-11)
(3.42882175146202e-12,2.48814056183638e-11,-3.12616921677416e-11)
(3.54286556771553e-12,4.38491219017116e-11,-2.83126618490891e-11)
(2.83150522511851e-12,7.16359964442399e-11,-2.43248525779357e-11)
(1.26159332242803e-12,1.15378291901493e-10,-1.96029090748093e-11)
(-2.503245517887e-13,1.85721048517703e-10,-1.43524935877099e-11)
(-1.03696700090036e-12,2.99781395559297e-10,-9.58826221142835e-12)
(-3.56110357608357e-12,4.87609610332274e-10,-6.18068344803169e-12)
(-6.21236391480274e-12,7.97010186816069e-10,-4.13760949640567e-12)
(-7.27490337702849e-12,1.22637291364847e-09,-2.19298862234574e-12)
(0,0,0)
(0,0,0)
(0,0,0)
(0,0,0)
(0,0,0)
(0,0,0)
(3.76658923091186e-12,1.00910864287874e-11,-5.42328456514514e-11)
(5.38604042641373e-12,2.28159254254568e-11,-5.19847926654275e-11)
(4.97170581597464e-12,4.13195465387475e-11,-4.81509921685407e-11)
(3.92593574189719e-12,6.8037278621777e-11,-4.26937003532978e-11)
(2.69112988800293e-12,1.10713554651488e-10,-3.58221114458568e-11)
(9.26519950815272e-13,1.81331595885643e-10,-2.79326971945273e-11)
(-1.06637486767362e-12,2.97295282713241e-10,-2.0373209084985e-11)
(-5.16492249488465e-12,4.87010683360286e-10,-1.45443600132531e-11)
(-9.03606496547062e-12,7.9661975959358e-10,-1.00809697343303e-11)
(-1.11903388538127e-11,1.22576001522682e-09,-5.3294981974931e-12)
(0,0,0)
(0,0,0)
(0,0,0)
(0,0,0)
(0,0,0)
(0,0,0)
(4.0609435864064e-12,8.68674758579004e-12,-8.36480062814945e-11)
(6.21884172473591e-12,2.02948214254206e-11,-8.10620674325571e-11)
(6.57282460384943e-12,3.73914194899791e-11,-7.6942089647924e-11)
(6.09143991465981e-12,6.20462621778399e-11,-7.10864381576703e-11)
(4.90621686096805e-12,1.02828997806271e-10,-6.33251961271469e-11)
(2.66952785307794e-12,1.73115578044084e-10,-5.42095432996216e-11)
(-9.02888860781579e-13,2.91503052320326e-10,-4.40315823795977e-11)
(-6.32765694465761e-12,4.83968166425189e-10,-3.38166327513694e-11)
(-1.07857344137728e-11,7.93431284814062e-10,-2.37106711941101e-11)
(-1.33218098750964e-11,1.22188922341852e-09,-1.23726578517218e-11)
(0,0,0)
(0,0,0)
(0,0,0)
(0,0,0)
(0,0,0)
(0,0,0)
(3.26845367573585e-12,7.09969466394068e-12,-1.27208222585322e-10)
(6.09025108471517e-12,1.73617502400698e-11,-1.24869620664475e-10)
(7.7378851717023e-12,3.21702382746327e-11,-1.20914600113896e-10)
(8.26126548082954e-12,5.40158979906861e-11,-1.1565401329001e-10)
(7.44284026266786e-12,9.22055975787716e-11,-1.08491864838248e-10)
(4.13896864218132e-12,1.60443668593347e-10,-9.94467852222769e-11)
(-1.82531387255078e-12,2.8005041328473e-10,-8.83384516819906e-11)
(-7.56975218936941e-12,4.755351185679e-10,-7.11990786478139e-11)
(-1.19759516553038e-11,7.84210404684062e-10,-5.06714084421329e-11)
(-1.45183353064527e-11,1.21130116867276e-09,-2.65611234621821e-11)
(0,0,0)
(0,0,0)
(0,0,0)
(0,0,0)
(0,0,0)
(0,0,0)
(3.20684537579803e-12,5.66137741023263e-12,-1.93665003070393e-10)
(5.97702601192816e-12,1.4096666530203e-11,-1.92005246048283e-10)
(7.93528238518015e-12,2.64911519031527e-11,-1.88903310512836e-10)
(9.47069522555089e-12,4.55188494888386e-11,-1.84517365178602e-10)
(9.24346481517082e-12,8.03592287400874e-11,-1.77961897872101e-10)
(4.79296832213669e-12,1.45882824514424e-10,-1.68474412343546e-10)
(-1.4116371209849e-12,2.65549620788743e-10,-1.54133719230095e-10)
(-6.34406646639782e-12,4.58809843149497e-10,-1.29455011556683e-10)
(-9.87066940460115e-12,7.63210594800374e-10,-9.42508849766762e-11)
(-1.14537192295022e-11,1.18698656076235e-09,-5.01939077393261e-11)
(0,0,0)
(0,0,0)
(0,0,0)
(0,0,0)
(0,0,0)
(0,0,0)
(3.13779654875192e-12,4.66234252675255e-12,-3.01835466399541e-10)
(5.92383496244592e-12,1.11120954033484e-11,-3.00633288388242e-10)
(8.51429131360627e-12,2.09324683848139e-11,-2.98411415788567e-10)
(1.10101113400739e-11,3.70858229721924e-11,-2.94783175747798e-10)
(1.11781206250343e-11,6.79313253440002e-11,-2.88474864923289e-10)
(6.35910292921273e-12,1.28200687691337e-10,-2.77272487984194e-10)
(1.88982584259715e-12,2.42366574700476e-10,-2.56111782887513e-10)
(-1.76305159547226e-12,4.26709148719411e-10,-2.21228663666885e-10)
(-4.57876320350364e-12,7.22123612847642e-10,-1.65358582763201e-10)
(-5.63187557424036e-12,1.13959422113137e-09,-9.00963681762763e-11)
(0,0,0)
(0,0,0)
(0,0,0)
(0,0,0)
(0,0,0)
(0,0,0)
(2.69929650435366e-12,3.91488586915517e-12,-4.83865372196063e-10)
(5.88674035273515e-12,8.62396262561336e-12,-4.82648002011719e-10)
(9.09932061779514e-12,1.61684150058083e-11,-4.80720647465384e-10)
(1.18596735109414e-11,2.96097507606391e-11,-4.76957948275106e-10)
(1.18900542696504e-11,5.65895336402603e-11,-4.69773711456931e-10)
(8.32936804974711e-12,1.09670827936351e-10,-4.56049143709914e-10)
(5.46786455011179e-12,2.08379742831036e-10,-4.2841101027742e-10)
(3.41569558948962e-12,3.72112951835361e-10,-3.76594018631226e-10)
(9.11976162335833e-13,6.48343868425755e-10,-2.91187777449066e-10)
(-7.17484855948862e-16,1.05136364243684e-09,-1.650631864805e-10)
(0,0,0)
(0,0,0)
(0,0,0)
(0,0,0)
(0,0,0)
(0,0,0)
(1.84898786491563e-12,2.88134859101117e-12,-7.88506996256231e-10)
(5.78004479547125e-12,6.09855074990425e-12,-7.87568652572145e-10)
(9.07899483087398e-12,1.13408967294237e-11,-7.85545547385949e-10)
(1.1964750038707e-11,2.133046304789e-11,-7.81120987031375e-10)
(1.27260491687649e-11,4.22270842174805e-11,-7.72219619002011e-10)
(1.11813402904162e-11,8.25215556898712e-11,-7.53995136037105e-10)
(9.34144560085578e-12,1.56726046244542e-10,-7.17338479661396e-10)
(7.92537272665017e-12,2.8721728874727e-10,-6.47286378643606e-10)
(6.49168215146698e-12,5.22769596952363e-10,-5.232167609148e-10)
(6.57033171507281e-12,8.87000558152862e-10,-3.14375436778862e-10)
(0,0,0)
(0,0,0)
(0,0,0)
(0,0,0)
(0,0,0)
(0,0,0)
(1.43621128283415e-12,1.46109139806301e-12,-1.21674171142791e-09)
(6.22560345972311e-12,3.10512977802748e-12,-1.215787714342e-09)
(9.53024375974964e-12,5.70619748971626e-12,-1.21303104055977e-09)
(1.23275457044876e-11,1.11354836217842e-11,-1.20785417773372e-09)
(1.36336910245985e-11,2.29079443243238e-11,-1.1977669980925e-09)
(1.32240512024699e-11,4.50316142527807e-11,-1.1759951996762e-09)
(1.19978984661773e-11,8.59891042676529e-11,-1.1325497168338e-09)
(1.06607859845396e-11,1.62768382039882e-10,-1.04798468070415e-09)
(1.03088341887449e-11,3.13718016455241e-10,-8.86183606208378e-10)
(1.17675028534615e-11,5.7259587881796e-10,-5.72858978072673e-10)
(0,0,0)
(0,0,0)
(0,0,0)
(0,0,0)
(0,0,0)
(0,0,0)
(0,0,0)
(0,0,0)
(0,0,0)
(0,0,0)
(0,0,0)
(0,0,0)
(0,0,0)
(0,0,0)
(0,0,0)
(0,0,0)
(0,0,0)
(0,0,0)
(0,0,0)
(0,0,0)
(0,0,0)
(0,0,0)
(0,0,0)
(0,0,0)
(0,0,0)
(0,0,0)
(0,0,0)
(0,0,0)
(0,0,0)
(0,0,0)
(0,0,0)
(0,0,0)
(0,0,0)
(0,0,0)
(0,0,0)
(0,0,0)
(0,0,0)
(0,0,0)
(0,0,0)
(0,0,0)
(0,0,0)
(0,0,0)
(0,0,0)
(0,0,0)
(0,0,0)
(0,0,0)
(0,0,0)
(0,0,0)
(0,0,0)
(0,0,0)
(0,0,0)
(0,0,0)
(0,0,0)
(0,0,0)
(0,0,0)
(0,0,0)
(0,0,0)
(0,0,0)
(0,0,0)
(0,0,0)
(0,0,0)
(0,0,0)
(0,0,0)
(0,0,0)
(0,0,0)
(0,0,0)
(0,0,0)
(0,0,0)
(0,0,0)
(0,0,0)
(0,0,0)
(0,0,0)
(0,0,0)
(0,0,0)
(0,0,0)
(0,0,0)
(0,0,0)
(0,0,0)
(0,0,0)
(0,0,0)
(0,0,0)
(0,0,0)
(0,0,0)
(0,0,0)
(0,0,0)
(0,0,0)
(0,0,0)
(0,0,0)
(0,0,0)
(0,0,0)
(0,0,0)
(0,0,0)
(0,0,0)
(0,0,0)
(0,0,0)
(0,0,0)
(0,0,0)
(0,0,0)
(0,0,0)
(0,0,0)
(0,0,0)
(0,0,0)
(7.16468652774126e-13,2.32419749312991e-11,-2.82984364000048e-11)
(1.40238672607519e-12,5.02878751198627e-11,-2.6886399085273e-11)
(1.42470378324081e-12,8.55730126738053e-11,-2.42335167919339e-11)
(1.17321333897524e-12,1.37025997117082e-10,-2.03286526354722e-11)
(-1.3836024933383e-13,2.16885329927272e-10,-1.55629331610954e-11)
(-1.07997582403415e-12,3.38574774144629e-10,-1.00692050203751e-11)
(-1.05140194691066e-12,5.30762699781735e-10,-4.90713201576101e-12)
(-1.85619419652677e-12,8.55378881158434e-10,-1.94713889893348e-12)
(-3.15401149583618e-12,1.47305799088349e-09,-7.83380979386791e-13)
(-3.532768854008e-12,2.88160438581998e-09,-2.8036038615182e-13)
(0,0,0)
(0,0,0)
(0,0,0)
(0,0,0)
(0,0,0)
(0,0,0)
(1.71733551964493e-12,2.20066584986861e-11,-6.02121290618903e-11)
(2.54527162571612e-12,4.80536303354683e-11,-5.76304433867161e-11)
(2.08463165952675e-12,8.23345435696096e-11,-5.25083293625789e-11)
(1.70827954445301e-12,1.3323224985871e-10,-4.48279787625902e-11)
(6.75915085330539e-13,2.12120606527236e-10,-3.46544176798931e-11)
(-6.2510329603008e-13,3.3412700383761e-10,-2.22756323082795e-11)
(-1.9584329182305e-12,5.28633122622273e-10,-1.08743083324867e-11)
(-5.00525055569909e-12,8.55203826269105e-10,-5.21226232828963e-12)
(-7.76655756632789e-12,1.47351604456517e-09,-3.29359949898064e-12)
(-8.85499357770297e-12,2.88223728426546e-09,-1.99696280220703e-12)
(0,0,0)
(0,0,0)
(0,0,0)
(0,0,0)
(0,0,0)
(0,0,0)
(2.92287508788502e-12,1.98601302514778e-11,-9.99267294774446e-11)
(4.07334392956376e-12,4.35383697168557e-11,-9.61376551272747e-11)
(3.44254104949959e-12,7.54270599283244e-11,-8.89259496580252e-11)
(3.04536327839168e-12,1.24066296229737e-10,-7.82831091715306e-11)
(2.68627248189394e-12,2.00456365021052e-10,-6.33352964377594e-11)
(1.5830496828238e-12,3.23169484170633e-10,-4.43013151223523e-11)
(-1.10299354647797e-12,5.23638567733162e-10,-2.54034308010892e-11)
(-6.58579583866992e-12,8.55027976847562e-10,-1.61598639373551e-11)
(-1.05990617227682e-11,1.47373648057507e-09,-1.15903030550646e-11)
(-1.26490452429835e-11,2.88155941829301e-09,-6.60948369556088e-12)
(0,0,0)
(0,0,0)
(0,0,0)
(0,0,0)
(0,0,0)
(0,0,0)
(3.06205765931853e-12,1.72099193887347e-11,-1.54217567396927e-10)
(5.03193512545348e-12,3.78256918142915e-11,-1.50027298345104e-10)
(5.93835432894313e-12,6.59654715599836e-11,-1.4225352732445e-10)
(6.36056207129199e-12,1.09712213341844e-10,-1.30426151420047e-10)
(6.41396426094251e-12,1.81067080762691e-10,-1.13036212029056e-10)
(5.16347638379643e-12,3.02773270548997e-10,-9.03723262541642e-11)
(3.34800546557088e-13,5.1237469675141e-10,-6.54976721225897e-11)
(-8.00057064463032e-12,8.53274629171177e-10,-4.94929587217631e-11)
(-1.29028676261279e-11,1.47201312967202e-09,-3.59886966607524e-11)
(-1.51064129810629e-11,2.87754333814533e-09,-1.95455550298167e-11)
(0,0,0)
(0,0,0)
(0,0,0)
(0,0,0)
(0,0,0)
(0,0,0)
(2.36816900859717e-12,1.44039572671327e-11,-2.32929607048945e-10)
(5.40031424400275e-12,3.16947666889559e-11,-2.29073148835657e-10)
(8.15638471929499e-12,5.48618869464297e-11,-2.2175044623063e-10)
(9.59616553091404e-12,9.15750563467167e-11,-2.1108352912541e-10)
(1.0244129485385e-11,1.54962934174157e-10,-1.95856211944203e-10)
(7.59147918080947e-12,2.70447799478542e-10,-1.77266444776169e-10)
(-4.46389441072171e-12,4.86040927461978e-10,-1.60455287120757e-10)
(-1.13721469766093e-11,8.43838254137277e-10,-1.24811197208973e-10)
(-1.50864267515603e-11,1.46123138925863e-09,-8.77971547780631e-11)
(-1.6764850858315e-11,2.86270377606361e-09,-4.60418176164813e-11)
(0,0,0)
(0,0,0)
(0,0,0)
(0,0,0)
(0,0,0)
(0,0,0)
(2.54612323716762e-12,1.13774967688804e-11,-3.48873385143568e-10)
(5.85966160333528e-12,2.4961437294925e-11,-3.45759559502532e-10)
(9.10802056928602e-12,4.31739581988128e-11,-3.3980540089667e-10)
(1.13482544356959e-11,7.27253065986249e-11,-3.31628660553309e-10)
(1.21838826827011e-11,1.27611906430864e-10,-3.1985068904821e-10)
(8.1344120317803e-12,2.38470054234274e-10,-3.03738897061582e-10)
(-2.90729870614983e-12,4.64664480897343e-10,-2.81722105277149e-10)
(-9.44749861633235e-12,8.18870636278659e-10,-2.3406671377484e-10)
(-1.28406646892586e-11,1.42729306805977e-09,-1.6824077221234e-10)
(-1.42552873378282e-11,2.82216246329781e-09,-8.88402133274783e-11)
(0,0,0)
(0,0,0)
(0,0,0)
(0,0,0)
(0,0,0)
(0,0,0)
(2.68307519504985e-12,8.70893869944761e-12,-5.31148488650708e-10)
(6.19009514050611e-12,1.8570843305278e-11,-5.29200756619268e-10)
(9.65010465184184e-12,3.2390188619566e-11,-5.25204516706433e-10)
(1.21778727271175e-11,5.59115993632735e-11,-5.1987358388995e-10)
(1.13175353896795e-11,1.02139909156899e-10,-5.12036067967666e-10)
(3.72825758752492e-12,2.01489745091219e-10,-4.97560850040037e-10)
(9.93538491398012e-13,4.24669328232269e-10,-4.57581300205382e-10)
(-3.03693561509486e-12,7.63281552353907e-10,-4.00409652144946e-10)
(-6.06123336852823e-12,1.35483943755939e-09,-2.95373641019166e-10)
(-7.49766505601418e-12,2.7382659679188e-09,-1.59099363560328e-10)
(0,0,0)
(0,0,0)
(0,0,0)
(0,0,0)
(0,0,0)
(0,0,0)
(2.51546359815356e-12,6.71194367239815e-12,-8.45258589137856e-10)
(6.48479768210925e-12,1.35859182606443e-11,-8.43817915714822e-10)
(1.01641397039016e-11,2.43404543585058e-11,-8.40833223615031e-10)
(1.2954724405516e-11,4.47943832724635e-11,-8.36083132004837e-10)
(1.25279359454129e-11,8.79873475930569e-11,-8.27589424392181e-10)
(7.84050686372886e-12,1.80189752889405e-10,-8.09998858889475e-10)
(5.30456949041585e-12,3.68372314839591e-10,-7.66107498885259e-10)
(2.90511749542291e-12,6.62241169879751e-10,-6.72448267024523e-10)
(3.61656667169756e-13,1.22226020170641e-09,-5.17311022460509e-10)
(-7.00819681356961e-13,2.58213054256004e-09,-2.94013809581069e-10)
(0,0,0)
(0,0,0)
(0,0,0)
(0,0,0)
(0,0,0)
(0,0,0)
(2.33090137377767e-12,4.6321954258696e-12,-1.45540895161173e-09)
(6.7503605811521e-12,9.4056995193001e-12,-1.45413799901862e-09)
(1.02891337160071e-11,1.73380938614932e-11,-1.45093391924446e-09)
(1.32583614354498e-11,3.35817748272247e-11,-1.44489048322192e-09)
(1.38207060970151e-11,6.85726547157329e-11,-1.43212128083587e-09)
(1.20146253517972e-11,1.3917017909312e-10,-1.40446664776294e-09)
(1.00262865599492e-11,2.74294117626956e-10,-1.34363828494188e-09)
(8.30466170523625e-12,5.08226428188445e-10,-1.22030561836764e-09)
(6.70193851264089e-12,1.00035029634919e-09,-1.00172828827785e-09)
(6.59957427117809e-12,2.28926142067678e-09,-6.25677658629075e-10)
(0,0,0)
(0,0,0)
(0,0,0)
(0,0,0)
(0,0,0)
(0,0,0)
(1.9433055949828e-12,2.39304012249231e-12,-2.86160542045558e-09)
(6.57405945551926e-12,5.09771376318403e-12,-2.86019313319158e-09)
(1.00595784234173e-11,9.39196635596769e-12,-2.85592440482072e-09)
(1.33758496850507e-11,1.83451550873266e-11,-2.84812964321623e-09)
(1.4769836932625e-11,3.81752718538523e-11,-2.83203264377478e-09)
(1.48101826128547e-11,7.65759942214165e-11,-2.79662713913712e-09)
(1.34219666041785e-11,1.49203657372013e-10,-2.7225574780798e-09)
(1.16280935286445e-11,2.88878310014503e-10,-2.57548339233452e-09)
(1.07022225082793e-11,6.24249009645003e-10,-2.28806212875482e-09)
(1.15044035987493e-11,1.66391962191471e-09,-1.66434422464129e-09)
(0,0,0)
(0,0,0)
(0,0,0)
(0,0,0)
(0,0,0)
(0,0,0)
(0,0,0)
(0,0,0)
(0,0,0)
(0,0,0)
(0,0,0)
(0,0,0)
(0,0,0)
(0,0,0)
(0,0,0)
(0,0,0)
(0,0,0)
(0,0,0)
(0,0,0)
(0,0,0)
(0,0,0)
(0,0,0)
(0,0,0)
(0,0,0)
(0,0,0)
(0,0,0)
(0,0,0)
(0,0,0)
(0,0,0)
(0,0,0)
(0,0,0)
(0,0,0)
(0,0,0)
(0,0,0)
(0,0,0)
(0,0,0)
(0,0,0)
(0,0,0)
(0,0,0)
(0,0,0)
(0,0,0)
(0,0,0)
(0,0,0)
(0,0,0)
(0,0,0)
(0,0,0)
(0,0,0)
(0,0,0)
(0,0,0)
(0,0,0)
(0,0,0)
(0,0,0)
(0,0,0)
(0,0,0)
(0,0,0)
(0,0,0)
(0,0,0)
(0,0,0)
(0,0,0)
(0,0,0)
(0,0,0)
(0,0,0)
(0,0,0)
(0,0,0)
(0,0,0)
(0,0,0)
(0,0,0)
(0,0,0)
(0,0,0)
(0,0,0)
(0,0,0)
(0,0,0)
(0,0,0)
(0,0,0)
(0,0,0)
(0,0,0)
(0,0,0)
(0,0,0)
(0,0,0)
(0,0,0)
(0,0,0)
(0,0,0)
(0,0,0)
(0,0,0)
(0,0,0)
(0,0,0)
(0,0,0)
(0,0,0)
(0,0,0)
(0,0,0)
(0,0,0)
(0,0,0)
(0,0,0)
(0,0,0)
(0,0,0)
(0,0,0)
(0,0,0)
(0,0,0)
(0,0,0)
(0,0,0)
(0,0,0)
(0,0,0)
(5.39747770539556e-13,3.34351667527782e-11,-4.0799527158117e-11)
(9.83749217167135e-13,7.00495680141061e-11,-3.8502594141844e-11)
(7.58308730927992e-13,1.1667464019952e-10,-3.41354391483243e-11)
(2.01241123043894e-13,1.82634745729744e-10,-2.77243481826823e-11)
(-8.67364990055095e-13,2.80819653180998e-10,-1.94171282406627e-11)
(-1.79427852170455e-12,4.22388013170473e-10,-9.47819922145449e-12)
(-1.88181790414868e-12,6.28796471435028e-10,-5.40820165272353e-13)
(-2.84489722678831e-12,9.27978569096041e-10,2.96115894162376e-12)
(-4.1150857707877e-12,1.35204402195787e-09,2.6634057087233e-12)
(-4.44602768556859e-12,1.86604369368642e-09,1.14330232044149e-12)
(0,0,0)
(0,0,0)
(0,0,0)
(0,0,0)
(0,0,0)
(0,0,0)
(1.28217809154807e-12,3.17449889658635e-11,-8.39266049172177e-11)
(1.93841822053541e-12,6.6748554116817e-11,-8.00850702343171e-11)
(1.31176470058315e-12,1.11154495053639e-10,-7.2244871584437e-11)
(7.00672090796139e-13,1.75310832778763e-10,-6.00264986284314e-11)
(-3.86287800308058e-14,2.71751912084625e-10,-4.26581607409936e-11)
(-1.06890760487268e-12,4.1488053025387e-10,-2.03325490369788e-11)
(-2.62592403341218e-12,6.27578606581376e-10,1.01650346908373e-12)
(-6.74806396338732e-12,9.30725758155799e-10,6.7877705686478e-12)
(-9.28363027303741e-12,1.35530660622136e-09,4.41539723817784e-12)
(-1.01740904073919e-11,1.86886455404853e-09,1.2844692965065e-12)
(0,0,0)
(0,0,0)
(0,0,0)
(0,0,0)
(0,0,0)
(0,0,0)
(1.78401160033681e-12,2.87304768541854e-11,-1.35734643790078e-10)
(2.57431636301317e-12,6.02750033686425e-11,-1.30320283900868e-10)
(2.2612889312559e-12,1.00165450794413e-10,-1.19512563942105e-10)
(2.45163343264984e-12,1.59581892035832e-10,-1.02635692449484e-10)
(3.04157542487964e-12,2.51268873935623e-10,-7.66763846073347e-11)
(3.08137898317196e-12,3.96014334571139e-10,-3.95069883858926e-11)
(9.17310571427553e-13,6.24750025781143e-10,2.08819586291685e-12)
(-9.40200904459118e-12,9.38007853730872e-10,7.19236287219671e-12)
(-1.38565301791634e-11,1.36231760847149e-09,1.00350252183037e-12)
(-1.52424487909066e-11,1.87370689883788e-09,-1.97735548440539e-12)
(0,0,0)
(0,0,0)
(0,0,0)
(0,0,0)
(0,0,0)
(0,0,0)
(1.6777507290877e-12,2.45168054978762e-11,-2.04782316624967e-10)
(3.3890892301401e-12,5.12311642390872e-11,-1.99181260727269e-10)
(5.21456303800147e-12,8.46877716918124e-11,-1.87519322674882e-10)
(7.10777967554655e-12,1.34952142378646e-10,-1.68298828432958e-10)
(9.85422507460254e-12,2.15395390933116e-10,-1.3718190529114e-10)
(1.26142933227269e-11,3.55357979492865e-10,-8.91961804364515e-11)
(1.06638564351189e-11,6.15338144050432e-10,-2.42018703523149e-11)
(-1.20684576718931e-11,9.52825285707877e-10,-2.21898323335716e-11)
(-1.856426884358e-11,1.37308899397266e-09,-2.50415325719859e-11)
(-1.98124059292137e-11,1.87784961245538e-09,-1.69024060466913e-11)
(0,0,0)
(0,0,0)
(0,0,0)
(0,0,0)
(0,0,0)
(0,0,0)
(1.53817129351928e-12,1.98147205783757e-11,-3.01261555611079e-10)
(4.8109410330351e-12,4.10162641467278e-11,-2.96457198113178e-10)
(9.17739636164435e-12,6.6301326252425e-11,-2.85738709265315e-10)
(1.32185980979027e-11,1.03315394543407e-10,-2.68342888024389e-10)
(1.90053900607453e-11,1.63760885423692e-10,-2.42304945899642e-10)
(2.27580667695748e-11,2.76189290904605e-10,-2.11544254212293e-10)
(-1.87315377579382e-11,5.41024730012261e-10,-2.24106805020159e-10)
(-2.34185715489494e-11,9.67514754851121e-10,-1.45489008429413e-10)
(-2.29034427142083e-11,1.37668688703107e-09,-9.93654723337104e-11)
(-2.22653557089602e-11,1.86901460090564e-09,-5.26058550112719e-11)
(0,0,0)
(0,0,0)
(0,0,0)
(0,0,0)
(0,0,0)
(0,0,0)
(2.10085566543694e-12,1.49915379289475e-11,-4.35258697521534e-10)
(6.29609698740637e-12,3.04522826553708e-11,-4.31589034383734e-10)
(1.17150498050435e-11,4.76621873783603e-11,-4.23372478526872e-10)
(1.63839901660318e-11,7.17689348600088e-11,-4.11066815885067e-10)
(2.15440879698365e-11,1.14501265437488e-10,-3.94271085048438e-10)
(2.30979293905363e-11,2.17309720147776e-10,-3.73516130067658e-10)
(-1.05675375434618e-11,5.49937230434308e-10,-3.75312120860024e-10)
(-1.96843562540049e-11,9.54907800911029e-10,-2.97116011482265e-10)
(-1.97875930737073e-11,1.34462735286363e-09,-2.07395263990561e-10)
(-1.91990052863283e-11,1.82476913430013e-09,-1.07624691304218e-10)
(0,0,0)
(0,0,0)
(0,0,0)
(0,0,0)
(0,0,0)
(0,0,0)
(2.73233819075286e-12,1.05638344568186e-11,-6.27766432539293e-10)
(7.17878027227818e-12,2.07209309585442e-11,-6.255619000281e-10)
(1.2368906096375e-11,3.16727680179301e-11,-6.2077876356875e-10)
(1.54575728957502e-11,4.57509925659595e-11,-6.16126783920885e-10)
(1.09948790258115e-11,6.86576883240639e-11,-6.15777592203142e-10)
(-1.49513000453641e-11,1.31909799313334e-10,-6.22184630977153e-10)
(1.18903823639312e-13,5.06257138693846e-10,-5.40515376469022e-10)
(-7.03256426669593e-12,8.9280747455875e-10,-5.20460654499632e-10)
(-9.75627497425052e-12,1.25748514367897e-09,-3.61934984781236e-10)
(-1.04616032576084e-11,1.72443708489457e-09,-1.86221473241294e-10)
(0,0,0)
(0,0,0)
(0,0,0)
(0,0,0)
(0,0,0)
(0,0,0)
(3.15453842159061e-12,7.17089978527072e-12,-9.12833608112848e-10)
(7.68032432374823e-12,1.36698897240562e-11,-9.11500657071783e-10)
(1.24164085906487e-11,2.26507806479061e-11,-9.08648537681126e-10)
(1.56736252382158e-11,3.77469284268011e-11,-9.06436764135062e-10)
(1.43520633198789e-11,7.18907118543278e-11,-9.06978339683856e-10)
(4.96872065587961e-12,1.69786599412536e-10,-9.10131584880073e-10)
(5.72353484244065e-12,4.59367856061175e-10,-8.86255128650321e-10)
(1.78261462256422e-12,7.39056165759223e-10,-7.55008314599481e-10)
(-1.02565085499827e-12,1.08706002852184e-09,-5.50096180330912e-10)
(-1.84550737918818e-12,1.5424447412463e-09,-2.96587583431471e-10)
(0,0,0)
(0,0,0)
(0,0,0)
(0,0,0)
(0,0,0)
(0,0,0)
(3.29910408407904e-12,4.68953551347443e-12,-1.32778179710364e-09)
(7.85426656314769e-12,9.0524984227089e-12,-1.3264525976894e-09)
(1.21918251989321e-11,1.68150022118711e-11,-1.3234920698513e-09)
(1.57257787893301e-11,3.18169826969994e-11,-1.319251818843e-09)
(1.65634558859923e-11,6.64484850761354e-11,-1.31114214934946e-09)
(1.37804474023611e-11,1.48957399568991e-10,-1.29133743834333e-09)
(1.17840802406813e-11,3.22990526862871e-10,-1.23297030007883e-09)
(9.07544978944173e-12,5.34476304612748e-10,-1.0823319577179e-09)
(6.75259556810816e-12,8.34868480067308e-10,-8.3702941775336e-10)
(6.26371440398972e-12,1.24725279682368e-09,-4.80279965436224e-10)
(0,0,0)
(0,0,0)
(0,0,0)
(0,0,0)
(0,0,0)
(0,0,0)
(2.92405845337532e-12,2.45623946852982e-12,-1.83801805892336e-09)
(7.40304484794924e-12,4.97208506543034e-12,-1.83662003029292e-09)
(1.16567831748557e-11,9.74677592156722e-12,-1.83282206873602e-09)
(1.56240053308655e-11,1.88583964100801e-11,-1.82580543898186e-09)
(1.75396041488279e-11,3.9822093645557e-11,-1.81097763484974e-09)
(1.73165157769981e-11,8.47697037337314e-11,-1.7761442394024e-09)
(1.55515382309582e-11,1.68637215442424e-10,-1.69587043926719e-09)
(1.30851399633661e-11,2.87795618789717e-10,-1.53046063858508e-09)