/*--------------------------------*- C++ -*----------------------------------*\
| =========                 |                                                 |
| \\      /  F ield         | foam-extend: Open Source CFD                    |
|  \\    /   O peration     | Version:     4.0                                |
|   \\  /    A nd           | Web:         http://www.foam-extend.org         |
|    \\/     M anipulation  |                                                 |
\*---------------------------------------------------------------------------*/
FoamFile
{
    version 2.0;
    format ascii;
    class volVectorField;
    location "2917";
    object      H;
}
// * * * * * * * * * * * * * * * * * * * * * * * * * * * * * * * * * * * * * //

dimensions      [0 1 -1 0 0 0 0];

internalField   nonuniform List<vector>
4096
(
(0,0,0)
(0,0,0)
(0,0,0)
(0,0,0)
(0,0,0)
(0,0,0)
(0,0,0)
(0,0,0)
(0,0,0)
(0,0,0)
(0,0,0)
(0,0,0)
(0,0,0)
(0,0,0)
(0,0,0)
(0,0,0)
(0,0,0)
(0,0,0)
(0,0,0)
(0,0,0)
(0,0,0)
(0,0,0)
(0,0,0)
(0,0,0)
(0,0,0)
(0,0,0)
(0,0,0)
(0,0,0)
(0,0,0)
(0,0,0)
(0,0,0)
(0,0,0)
(0,0,0)
(0,0,0)
(0,0,0)
(0,0,0)
(0,0,0)
(0,0,0)
(0,0,0)
(0,0,0)
(0,0,0)
(0,0,0)
(0,0,0)
(0,0,0)
(0,0,0)
(0,0,0)
(0,0,0)
(0,0,0)
(0,0,0)
(0,0,0)
(0,0,0)
(0,0,0)
(0,0,0)
(0,0,0)
(0,0,0)
(0,0,0)
(0,0,0)
(0,0,0)
(0,0,0)
(0,0,0)
(0,0,0)
(0,0,0)
(0,0,0)
(0,0,0)
(0,0,0)
(0,0,0)
(0,0,0)
(0,0,0)
(0,0,0)
(0,0,0)
(0,0,0)
(0,0,0)
(0,0,0)
(0,0,0)
(0,0,0)
(0,0,0)
(0,0,0)
(0,0,0)
(0,0,0)
(0,0,0)
(0,0,0)
(0,0,0)
(0,0,0)
(0,0,0)
(0,0,0)
(0,0,0)
(0,0,0)
(0,0,0)
(0,0,0)
(0,0,0)
(0,0,0)
(0,0,0)
(0,0,0)
(0,0,0)
(0,0,0)
(0,0,0)
(0,0,0)
(0,0,0)
(0,0,0)
(0,0,0)
(0,0,0)
(0,0,0)
(0,0,0)
(0,0,0)
(0,0,0)
(0,0,0)
(0,0,0)
(0,0,0)
(0,0,0)
(0,0,0)
(0,0,0)
(0,0,0)
(0,0,0)
(0,0,0)
(0,0,0)
(0,0,0)
(0,0,0)
(0,0,0)
(0,0,0)
(0,0,0)
(0,0,0)
(0,0,0)
(0,0,0)
(0,0,0)
(0,0,0)
(0,0,0)
(0,0,0)
(0,0,0)
(0,0,0)
(0,0,0)
(0,0,0)
(0,0,0)
(0,0,0)
(0,0,0)
(0,0,0)
(0,0,0)
(0,0,0)
(0,0,0)
(0,0,0)
(0,0,0)
(0,0,0)
(0,0,0)
(0,0,0)
(0,0,0)
(0,0,0)
(0,0,0)
(0,0,0)
(0,0,0)
(0,0,0)
(0,0,0)
(0,0,0)
(0,0,0)
(0,0,0)
(0,0,0)
(0,0,0)
(0,0,0)
(0,0,0)
(0,0,0)
(0,0,0)
(0,0,0)
(0,0,0)
(0,0,0)
(0,0,0)
(0,0,0)
(0,0,0)
(0,0,0)
(0,0,0)
(0,0,0)
(0,0,0)
(0,0,0)
(0,0,0)
(0,0,0)
(0,0,0)
(0,0,0)
(0,0,0)
(0,0,0)
(0,0,0)
(0,0,0)
(0,0,0)
(0,0,0)
(0,0,0)
(0,0,0)
(0,0,0)
(0,0,0)
(0,0,0)
(0,0,0)
(0,0,0)
(0,0,0)
(0,0,0)
(0,0,0)
(0,0,0)
(0,0,0)
(0,0,0)
(0,0,0)
(0,0,0)
(0,0,0)
(0,0,0)
(0,0,0)
(0,0,0)
(0,0,0)
(0,0,0)
(0,0,0)
(0,0,0)
(0,0,0)
(0,0,0)
(0,0,0)
(0,0,0)
(0,0,0)
(0,0,0)
(0,0,0)
(0,0,0)
(0,0,0)
(0,0,0)
(0,0,0)
(0,0,0)
(0,0,0)
(0,0,0)
(0,0,0)
(0,0,0)
(0,0,0)
(0,0,0)
(0,0,0)
(0,0,0)
(0,0,0)
(0,0,0)
(0,0,0)
(0,0,0)
(0,0,0)
(0,0,0)
(0,0,0)
(0,0,0)
(0,0,0)
(0,0,0)
(0,0,0)
(0,0,0)
(0,0,0)
(0,0,0)
(0,0,0)
(0,0,0)
(0,0,0)
(0,0,0)
(0,0,0)
(0,0,0)
(0,0,0)
(0,0,0)
(0,0,0)
(0,0,0)
(0,0,0)
(0,0,0)
(0,0,0)
(0,0,0)
(0,0,0)
(0,0,0)
(0,0,0)
(0,0,0)
(0,0,0)
(0,0,0)
(0,0,0)
(0,0,0)
(0,0,0)
(0,0,0)
(0,0,0)
(0,0,0)
(0,0,0)
(0,0,0)
(0,0,0)
(0,0,0)
(0,0,0)
(0,0,0)
(0,0,0)
(0,0,0)
(0,0,0)
(0,0,0)
(0,0,0)
(0,0,0)
(0,0,0)
(0,0,0)
(0,0,0)
(0,0,0)
(0,0,0)
(0,0,0)
(0,0,0)
(0,0,0)
(0,0,0)
(0,0,0)
(0,0,0)
(0,0,0)
(0,0,0)
(0,0,0)
(0,0,0)
(0,0,0)
(0,0,0)
(0,0,0)
(0,0,0)
(0,0,0)
(0,0,0)
(0,0,0)
(0,0,0)
(0,0,0)
(0,0,0)
(0,0,0)
(0,0,0)
(0,0,0)
(0,0,0)
(0,0,0)
(0,0,0)
(0,0,0)
(0,0,0)
(0,0,0)
(0,0,0)
(0,0,0)
(0,0,0)
(0,0,0)
(0,0,0)
(0,0,0)
(0,0,0)
(0,0,0)
(0,0,0)
(0,0,0)
(0,0,0)
(0,0,0)
(0,0,0)
(0,0,0)
(0,0,0)
(0,0,0)
(0,0,0)
(0,0,0)
(0,0,0)
(0,0,0)
(0,0,0)
(0,0,0)
(0,0,0)
(0,0,0)
(0,0,0)
(0,0,0)
(0,0,0)
(0,0,0)
(0,0,0)
(0,0,0)
(0,0,0)
(0,0,0)
(0,0,0)
(0,0,0)
(0,0,0)
(0,0,0)
(0,0,0)
(0,0,0)
(0,0,0)
(0,0,0)
(0,0,0)
(0,0,0)
(0,0,0)
(0,0,0)
(0,0,0)
(0,0,0)
(0,0,0)
(0,0,0)
(0,0,0)
(0,0,0)
(0,0,0)
(0,0,0)
(0,0,0)
(0,0,0)
(0,0,0)
(0,0,0)
(0,0,0)
(0,0,0)
(0,0,0)
(0,0,0)
(0,0,0)
(0,0,0)
(0,0,0)
(0,0,0)
(0,0,0)
(0,0,0)
(0,0,0)
(0,0,0)
(0,0,0)
(0,0,0)
(0,0,0)
(0,0,0)
(0,0,0)
(0,0,0)
(0,0,0)
(0,0,0)
(0,0,0)
(0,0,0)
(0,0,0)
(0,0,0)
(0,0,0)
(0,0,0)
(0,0,0)
(0,0,0)
(0,0,0)
(0,0,0)
(0,0,0)
(0,0,0)
(0,0,0)
(0,0,0)
(0,0,0)
(0,0,0)
(0,0,0)
(0,0,0)
(0,0,0)
(0,0,0)
(0,0,0)
(0,0,0)
(0,0,0)
(0,0,0)
(0,0,0)
(0,0,0)
(0,0,0)
(0,0,0)
(0,0,0)
(0,0,0)
(0,0,0)
(0,0,0)
(0,0,0)
(0,0,0)
(0,0,0)
(0,0,0)
(0,0,0)
(0,0,0)
(0,0,0)
(0,0,0)
(0,0,0)
(0,0,0)
(0,0,0)
(0,0,0)
(0,0,0)
(0,0,0)
(0,0,0)
(0,0,0)
(0,0,0)
(0,0,0)
(0,0,0)
(0,0,0)
(0,0,0)
(0,0,0)
(0,0,0)
(0,0,0)
(0,0,0)
(0,0,0)
(0,0,0)
(0,0,0)
(0,0,0)
(0,0,0)
(0,0,0)
(0,0,0)
(0,0,0)
(0,0,0)
(0,0,0)
(0,0,0)
(0,0,0)
(0,0,0)
(0,0,0)
(0,0,0)
(0,0,0)
(0,0,0)
(0,0,0)
(0,0,0)
(0,0,0)
(0,0,0)
(0,0,0)
(0,0,0)
(0,0,0)
(0,0,0)
(0,0,0)
(0,0,0)
(0,0,0)
(0,0,0)
(0,0,0)
(0,0,0)
(0,0,0)
(0,0,0)
(0,0,0)
(0,0,0)
(0,0,0)
(0,0,0)
(0,0,0)
(0,0,0)
(0,0,0)
(0,0,0)
(0,0,0)
(0,0,0)
(0,0,0)
(0,0,0)
(0,0,0)
(0,0,0)
(0,0,0)
(0,0,0)
(0,0,0)
(0,0,0)
(0,0,0)
(0,0,0)
(0,0,0)
(0,0,0)
(0,0,0)
(0,0,0)
(0,0,0)
(0,0,0)
(0,0,0)
(0,0,0)
(0,0,0)
(0,0,0)
(0,0,0)
(0,0,0)
(0,0,0)
(0,0,0)
(0,0,0)
(0,0,0)
(0,0,0)
(0,0,0)
(0,0,0)
(0,0,0)
(0,0,0)
(0,0,0)
(0,0,0)
(0,0,0)
(0,0,0)
(0,0,0)
(0,0,0)
(0,0,0)
(0,0,0)
(0,0,0)
(0,0,0)
(0,0,0)
(0,0,0)
(0,0,0)
(0,0,0)
(0,0,0)
(0,0,0)
(0,0,0)
(0,0,0)
(0,0,0)
(0,0,0)
(0,0,0)
(0,0,0)
(0,0,0)
(0,0,0)
(0,0,0)
(0,0,0)
(0,0,0)
(0,0,0)
(0,0,0)
(0,0,0)
(0,0,0)
(0,0,0)
(0,0,0)
(0,0,0)
(0,0,0)
(0,0,0)
(0,0,0)
(0,0,0)
(0,0,0)
(0,0,0)
(0,0,0)
(0,0,0)
(0,0,0)
(0,0,0)
(0,0,0)
(0,0,0)
(0,0,0)
(0,0,0)
(0,0,0)
(0,0,0)
(0,0,0)
(0,0,0)
(0,0,0)
(0,0,0)
(0,0,0)
(0,0,0)
(0,0,0)
(0,0,0)
(0,0,0)
(0,0,0)
(0,0,0)
(0,0,0)
(0,0,0)
(0,0,0)
(0,0,0)
(0,0,0)
(0,0,0)
(0,0,0)
(0,0,0)
(0,0,0)
(0,0,0)
(0,0,0)
(0,0,0)
(0,0,0)
(0,0,0)
(0,0,0)
(0,0,0)
(0,0,0)
(0,0,0)
(0,0,0)
(0,0,0)
(0,0,0)
(0,0,0)
(0,0,0)
(0,0,0)
(0,0,0)
(0,0,0)
(0,0,0)
(0,0,0)
(0,0,0)
(0,0,0)
(0,0,0)
(0,0,0)
(0,0,0)
(0,0,0)
(0,0,0)
(0,0,0)
(0,0,0)
(0,0,0)
(0,0,0)
(0,0,0)
(0,0,0)
(0,0,0)
(0,0,0)
(0,0,0)
(0,0,0)
(0,0,0)
(0,0,0)
(0,0,0)
(0,0,0)
(0,0,0)
(0,0,0)
(0,0,0)
(0,0,0)
(0,0,0)
(0,0,0)
(0,0,0)
(0,0,0)
(0,0,0)
(0,0,0)
(0,0,0)
(0,0,0)
(0,0,0)
(0,0,0)
(0,0,0)
(0,0,0)
(0,0,0)
(0,0,0)
(0,0,0)
(0,0,0)
(0,0,0)
(0,0,0)
(0,0,0)
(0,0,0)
(0,0,0)
(0,0,0)
(0,0,0)
(0,0,0)
(0,0,0)
(0,0,0)
(0,0,0)
(0,0,0)
(0,0,0)
(0,0,0)
(0,0,0)
(0,0,0)
(0,0,0)
(0,0,0)
(0,0,0)
(0,0,0)
(0,0,0)
(0,0,0)
(0,0,0)
(0,0,0)
(0,0,0)
(0,0,0)
(0,0,0)
(0,0,0)
(0,0,0)
(0,0,0)
(0,0,0)
(0,0,0)
(0,0,0)
(0,0,0)
(0,0,0)
(0,0,0)
(0,0,0)
(0,0,0)
(0,0,0)
(0,0,0)
(0,0,0)
(0,0,0)
(0,0,0)
(0,0,0)
(0,0,0)
(0,0,0)
(0,0,0)
(0,0,0)
(0,0,0)
(0,0,0)
(0,0,0)
(0,0,0)
(0,0,0)
(0,0,0)
(0,0,0)
(0,0,0)
(0,0,0)
(0,0,0)
(0,0,0)
(0,0,0)
(0,0,0)
(0,0,0)
(0,0,0)
(0,0,0)
(0,0,0)
(0,0,0)
(0,0,0)
(0,0,0)
(0,0,0)
(0,0,0)
(0,0,0)
(0,0,0)
(0,0,0)
(0,0,0)
(0,0,0)
(0,0,0)
(0,0,0)
(0,0,0)
(0,0,0)
(0,0,0)
(0,0,0)
(0,0,0)
(0,0,0)
(0,0,0)
(0,0,0)
(0,0,0)
(0,0,0)
(0,0,0)
(0,0,0)
(0,0,0)
(0,0,0)
(0,0,0)
(0,0,0)
(0,0,0)
(0,0,0)
(0,0,0)
(0,0,0)
(0,0,0)
(0,0,0)
(0,0,0)
(0,0,0)
(0,0,0)
(0,0,0)
(0,0,0)
(0,0,0)
(0,0,0)
(0,0,0)
(0,0,0)
(0,0,0)
(0,0,0)
(0,0,0)
(0,0,0)
(0,0,0)
(0,0,0)
(0,0,0)
(0,0,0)
(0,0,0)
(0,0,0)
(0,0,0)
(0,0,0)
(0,0,0)
(0,0,0)
(0,0,0)
(0,0,0)
(0,0,0)
(0,0,0)
(0,0,0)
(0,0,0)
(0,0,0)
(0,0,0)
(0,0,0)
(0,0,0)
(0,0,0)
(0,0,0)
(0,0,0)
(0,0,0)
(0,0,0)
(0,0,0)
(0,0,0)
(0,0,0)
(0,0,0)
(0,0,0)
(0,0,0)
(0,0,0)
(0,0,0)
(0,0,0)
(0,0,0)
(0,0,0)
(0,0,0)
(0,0,0)
(0,0,0)
(0,0,0)
(0,0,0)
(0,0,0)
(0,0,0)
(0,0,0)
(0,0,0)
(0,0,0)
(0,0,0)
(0,0,0)
(0,0,0)
(0,0,0)
(0,0,0)
(0,0,0)
(0,0,0)
(0,0,0)
(0,0,0)
(0,0,0)
(0,0,0)
(0,0,0)
(0,0,0)
(0,0,0)
(0,0,0)
(6.33133446702254e-13,-1.12923535071851e-11,1.39120853533366e-11)
(3.89220529334526e-13,-2.55142810261302e-11,1.3452572588361e-11)
(2.82260597774043e-13,-4.47865746490619e-11,1.26680407437555e-11)
(-5.26322990464568e-13,-7.20036726201387e-11,1.10433010233148e-11)
(-1.93784959818985e-12,-1.13785982210925e-10,8.24396695291864e-12)
(-2.63036905592979e-12,-1.78950211262204e-10,5.67584273536452e-12)
(-4.30591497562685e-12,-2.82628669441865e-10,3.3982066770565e-12)
(-5.78926445514326e-12,-4.55014110801241e-10,2.45362683917083e-12)
(-6.39126383722692e-12,-7.4181184568935e-10,1.68799444323175e-12)
(-5.66834234141728e-12,-1.14136508050444e-09,6.64902419052732e-13)
(0,0,0)
(0,0,0)
(0,0,0)
(0,0,0)
(0,0,0)
(0,0,0)
(1.3833228469598e-13,-1.06373848531918e-11,2.94920116217905e-11)
(-1.91278240284425e-13,-2.43628475961247e-11,2.90403578875368e-11)
(-5.0249098532507e-13,-4.29011847213015e-11,2.75016295572546e-11)
(-1.46238485330429e-12,-6.92188174779973e-11,2.43343856547689e-11)
(-3.63735774505897e-12,-1.10820578266983e-10,1.94595487955222e-11)
(-6.17493040714338e-12,-1.76199025497874e-10,1.44453617773645e-11)
(-9.20947436197282e-12,-2.8131020474891e-10,9.5336621305324e-12)
(-1.01758421566984e-11,-4.5476527952923e-10,6.26985734945084e-12)
(-9.71008031656302e-12,-7.42115712016391e-10,3.84217014353487e-12)
(-8.34842331095922e-12,-1.14184650406681e-09,1.63215753678268e-12)
(0,0,0)
(0,0,0)
(0,0,0)
(0,0,0)
(0,0,0)
(0,0,0)
(8.70698697038957e-13,-1.00230723326358e-11,4.9787671851136e-11)
(1.96454578305625e-13,-2.24328383140276e-11,4.89941057328967e-11)
(-4.26252363249884e-13,-3.94444641292471e-11,4.61406591267985e-11)
(-2.11593407212518e-12,-6.41928950103467e-11,4.13133009859012e-11)
(-4.92707083575096e-12,-1.05120979948104e-10,3.50081904816565e-11)
(-8.10784725693976e-12,-1.70988434968962e-10,2.74353619667103e-11)
(-1.16525084317159e-11,-2.78419408271932e-10,1.98200700622965e-11)
(-1.26206617167416e-11,-4.54036983359842e-10,1.40661109143154e-11)
(-1.20061727611507e-11,-7.42148095226047e-10,9.16879285246925e-12)
(-1.1545826499596e-11,-1.14205206490055e-09,4.46623214072032e-12)
(0,0,0)
(0,0,0)
(0,0,0)
(0,0,0)
(0,0,0)
(0,0,0)
(9.70752634456623e-13,-8.56053609531021e-12,7.67349241875318e-11)
(-7.08750899673179e-13,-1.91491819094369e-11,7.57715137322845e-11)
(-2.27797015265515e-12,-3.44325516998436e-11,7.25859907434384e-11)
(-4.65433350538585e-12,-5.74230859194714e-11,6.73114619386072e-11)
(-7.92394729106168e-12,-9.64224625962828e-11,5.9952798932154e-11)
(-1.04909914916346e-11,-1.62231485086952e-10,5.05314025824436e-11)
(-1.2319277442478e-11,-2.72594682646071e-10,4.06173917769002e-11)
(-1.25136916872488e-11,-4.51333865289994e-10,3.11528470474798e-11)
(-1.16129711806807e-11,-7.39934707206711e-10,2.17670425228371e-11)
(-1.14754150497398e-11,-1.13988054132613e-09,1.14503072264873e-11)
(0,0,0)
(0,0,0)
(0,0,0)
(0,0,0)
(0,0,0)
(0,0,0)
(-4.53348701600136e-13,-6.81325504596863e-12,1.16189582848505e-10)
(-2.8767231875406e-12,-1.55142202153089e-11,1.15123478528342e-10)
(-4.61348419825654e-12,-2.85524509952608e-11,1.12376182393929e-10)
(-6.91756155261223e-12,-4.90907327206267e-11,1.07763461628759e-10)
(-1.00518546390948e-11,-8.52703833634185e-11,1.00726533053364e-10)
(-1.14611193202926e-11,-1.49732868693304e-10,9.15917658165841e-11)
(-1.08335223770444e-11,-2.62139459996513e-10,8.08414830615083e-11)
(-1.08685789670878e-11,-4.44679369830368e-10,6.46847378888307e-11)
(-1.044594576253e-11,-7.32843253804047e-10,4.54521144392987e-11)
(-1.03056142507266e-11,-1.13144313693584e-09,2.35836790741167e-11)
(0,0,0)
(0,0,0)
(0,0,0)
(0,0,0)
(0,0,0)
(0,0,0)
(-1.22201357485417e-12,-5.26944153646308e-12,1.77644963504184e-10)
(-2.98880897451325e-12,-1.22948149530975e-11,1.76703762647403e-10)
(-5.32169532678067e-12,-2.27474264327902e-11,1.74761830579574e-10)
(-8.45995630549195e-12,-4.01863318328715e-11,1.71537876814968e-10)
(-1.13653973805577e-11,-7.32425482359332e-11,1.65714093697474e-10)
(-1.2194228253233e-11,-1.35446999739199e-10,1.5610195694682e-10)
(-1.13248329710672e-11,-2.48545679376591e-10,1.41652123949669e-10)
(-1.13649430652098e-11,-4.29914033757337e-10,1.18075895747978e-10)
(-1.0831157078941e-11,-7.14747806115201e-10,8.50585313503278e-11)
(-1.0430193826482e-11,-1.11035364624795e-09,4.47363227956579e-11)
(0,0,0)
(0,0,0)
(0,0,0)
(0,0,0)
(0,0,0)
(0,0,0)
(-8.22188066683745e-13,-3.84670469166491e-12,2.7648990564781e-10)
(-2.30951216964762e-12,-9.31270071953336e-12,2.76077166858897e-10)
(-5.84989129728264e-12,-1.79723022603943e-11,2.75062377796054e-10)
(-1.00883384451349e-11,-3.23921468890376e-11,2.72724088150389e-10)
(-1.30579142054632e-11,-6.10903782253321e-11,2.67478758097124e-10)
(-1.38008907199847e-11,-1.18286532737209e-10,2.56939199455225e-10)
(-1.40580419867325e-11,-2.26441502462291e-10,2.3687270520079e-10)
(-1.36630334429688e-11,-4.00011818542421e-10,2.03947839571129e-10)
(-1.2701044588939e-11,-6.7679147344549e-10,1.51453128538821e-10)
(-1.19658228102038e-11,-1.0667011077164e-09,8.18962279729922e-11)
(0,0,0)
(0,0,0)
(0,0,0)
(0,0,0)
(0,0,0)
(0,0,0)
(-1.10512968101303e-12,-2.91836590766445e-12,4.4531766756857e-10)
(-3.2608418050987e-12,-6.78415993114784e-12,4.44938195893164e-10)
(-8.24149912900842e-12,-1.36149734147474e-11,4.44173600236857e-10)
(-1.3918357899766e-11,-2.55773450069636e-11,4.41552973321826e-10)
(-1.77037802327095e-11,-5.03568070957976e-11,4.35465818044797e-10)
(-1.84735984771444e-11,-1.00775959352965e-10,4.22803777483396e-10)
(-1.7952201254233e-11,-1.94157306738149e-10,3.9696125048265e-10)
(-1.68833562561851e-11,-3.48500402874102e-10,3.48537063768039e-10)
(-1.50430664986164e-11,-6.07679157955308e-10,2.68682174088323e-10)
(-1.45243881288072e-11,-9.84371856220975e-10,1.52000938324829e-10)
(0,0,0)
(0,0,0)
(0,0,0)
(0,0,0)
(0,0,0)
(0,0,0)
(-1.95532069276579e-12,-2.30710593701927e-12,7.31014306984278e-10)
(-4.89518021443928e-12,-5.03399861931544e-12,7.3023748517078e-10)
(-1.10337562391917e-11,-9.55338074524913e-12,7.28540942306202e-10)
(-1.72992546910965e-11,-1.86333880549334e-11,7.24679026735331e-10)
(-2.16633058868842e-11,-3.76278690610875e-11,7.16514574507464e-10)
(-2.24851858583597e-11,-7.5622070473876e-11,6.99537795313186e-10)
(-2.12440551344608e-11,-1.4563976631158e-10,6.65636621170458e-10)
(-1.92589740071668e-11,-2.68264959161519e-10,6.00747538373513e-10)
(-1.65875616257895e-11,-4.89698656213401e-10,4.8565804135437e-10)
(-1.53716833909319e-11,-8.30789709030868e-10,2.92178449378676e-10)
(0,0,0)
(0,0,0)
(0,0,0)
(0,0,0)
(0,0,0)
(0,0,0)
(-2.64435880719358e-12,-1.48200675255365e-12,1.1301940446144e-09)
(-6.40607016746832e-12,-2.85456000817351e-12,1.12910996986535e-09)
(-1.37441541463742e-11,-4.80943617733741e-12,1.12663856667052e-09)
(-1.97812944475021e-11,-9.98894113829145e-12,1.12202025304107e-09)
(-2.42569793013285e-11,-2.04956371261076e-11,1.11219741449955e-09)
(-2.4875277225754e-11,-4.09332484044668e-11,1.09168990932875e-09)
(-2.30810258607048e-11,-7.95728716522874e-11,1.05180852904105e-09)
(-1.93361353621707e-11,-1.5166795373313e-10,9.73902563509828e-10)
(-1.68867767107463e-11,-2.93710819587569e-10,8.24413996967499e-10)
(-1.63930064223411e-11,-5.36332008147762e-10,5.33670701527908e-10)
(0,0,0)
(0,0,0)
(0,0,0)
(0,0,0)
(0,0,0)
(0,0,0)
(0,0,0)
(0,0,0)
(0,0,0)
(0,0,0)
(0,0,0)
(0,0,0)
(0,0,0)
(0,0,0)
(0,0,0)
(0,0,0)
(0,0,0)
(0,0,0)
(0,0,0)
(0,0,0)
(0,0,0)
(0,0,0)
(0,0,0)
(0,0,0)
(0,0,0)
(0,0,0)
(0,0,0)
(0,0,0)
(0,0,0)
(0,0,0)
(0,0,0)
(0,0,0)
(0,0,0)
(0,0,0)
(0,0,0)
(0,0,0)
(0,0,0)
(0,0,0)
(0,0,0)
(0,0,0)
(0,0,0)
(0,0,0)
(0,0,0)
(0,0,0)
(0,0,0)
(0,0,0)
(0,0,0)
(0,0,0)
(0,0,0)
(0,0,0)
(0,0,0)
(0,0,0)
(0,0,0)
(0,0,0)
(0,0,0)
(0,0,0)
(0,0,0)
(0,0,0)
(0,0,0)
(0,0,0)
(0,0,0)
(0,0,0)
(0,0,0)
(0,0,0)
(0,0,0)
(0,0,0)
(0,0,0)
(0,0,0)
(0,0,0)
(0,0,0)
(0,0,0)
(0,0,0)
(0,0,0)
(0,0,0)
(0,0,0)
(0,0,0)
(0,0,0)
(0,0,0)
(0,0,0)
(0,0,0)
(0,0,0)
(0,0,0)
(0,0,0)
(0,0,0)
(0,0,0)
(0,0,0)
(0,0,0)
(0,0,0)
(0,0,0)
(0,0,0)
(0,0,0)
(0,0,0)
(0,0,0)
(0,0,0)
(0,0,0)
(0,0,0)
(0,0,0)
(0,0,0)
(0,0,0)
(0,0,0)
(0,0,0)
(0,0,0)
(4.37677557684187e-13,-2.18950679091311e-11,2.80575840475513e-11)
(2.23189439290691e-14,-4.90761237286202e-11,2.70869509663154e-11)
(2.16103904554466e-14,-8.49014300098987e-11,2.44929127368673e-11)
(-5.11844062225463e-13,-1.33824386996891e-10,2.03846366985112e-11)
(-2.33512932461752e-12,-2.07211243734309e-10,1.5159704004324e-11)
(-3.10391876190398e-12,-3.19807020308436e-10,9.47396802964085e-12)
(-4.67979983058589e-12,-4.96721819468675e-10,4.15102449226906e-12)
(-5.27246333142086e-12,-7.96252239292156e-10,1.74627755903748e-12)
(-5.06430548641987e-12,-1.36991152167061e-09,9.79111523020508e-13)
(-4.52201636049611e-12,-2.68137161701702e-09,2.21525960824349e-13)
(0,0,0)
(0,0,0)
(0,0,0)
(0,0,0)
(0,0,0)
(0,0,0)
(-2.43265016065481e-14,-2.08533729238577e-11,5.75908879493522e-11)
(-5.825591920864e-13,-4.66050244668664e-11,5.61061583671633e-11)
(-7.91967674912374e-13,-8.08031296006639e-11,5.15520987908366e-11)
(-1.61347046171236e-12,-1.28751216274083e-10,4.39207623762732e-11)
(-4.32276904576999e-12,-2.02072229381863e-10,3.40421154380347e-11)
(-6.47382128924511e-12,-3.15313513732447e-10,2.26570402486303e-11)
(-8.83646605802193e-12,-4.95733272791762e-10,1.14429492183691e-11)
(-8.47645111979692e-12,-7.97732987131235e-10,5.52142931340543e-12)
(-7.46768449968835e-12,-1.37161059199015e-09,3.26433483231032e-12)
(-6.51070494036402e-12,-2.68326823654826e-09,1.57725471647339e-12)
(0,0,0)
(0,0,0)
(0,0,0)
(0,0,0)
(0,0,0)
(0,0,0)
(2.01728577953794e-13,-1.92484803512215e-11,9.4612679303776e-11)
(-2.33755220182708e-13,-4.23073270510862e-11,9.21923149803861e-11)
(-6.10806651732394e-13,-7.33004098287976e-11,8.57998817356349e-11)
(-2.5806326587587e-12,-1.18614424313194e-10,7.55095808538286e-11)
(-6.05275967268057e-12,-1.90523544376765e-10,6.15746750444922e-11)
(-9.24950523452894e-12,-3.04953958413475e-10,4.38737273210846e-11)
(-1.17232749095895e-11,-4.91884718278803e-10,2.56518224521784e-11)
(-1.04264617249267e-11,-7.9940452709799e-10,1.60059563489394e-11)
(-9.51700006883815e-12,-1.3741036799483e-09,1.08683997482899e-11)
(-9.25111793334192e-12,-2.68561033469404e-09,5.97382692067986e-12)
(0,0,0)
(0,0,0)
(0,0,0)
(0,0,0)
(0,0,0)
(0,0,0)
(1.86882040361998e-13,-1.61701951132222e-11,1.42602044129244e-10)
(-1.158189604957e-12,-3.56635529035458e-11,1.40240345883472e-10)
(-2.88354205241419e-12,-6.25551612251541e-11,1.33984431739818e-10)
(-5.62802369777199e-12,-1.03571933849674e-10,1.23124823869383e-10)
(-9.65463017422363e-12,-1.71062315412879e-10,1.06647450393032e-10)
(-1.30755970797099e-11,-2.85322998731702e-10,8.46777701594774e-11)
(-1.33099553626181e-11,-4.81504264162738e-10,6.03989567751084e-11)
(-9.78238262218072e-12,-7.98896025882239e-10,4.48820315704058e-11)
(-8.38768928641868e-12,-1.37439876937151e-09,3.23366472774992e-11)
(-8.46251221273454e-12,-2.68468262410342e-09,1.77164694452609e-11)
(0,0,0)
(0,0,0)
(0,0,0)
(0,0,0)
(0,0,0)
(0,0,0)
(-9.31057890943484e-13,-1.29901803511384e-11,2.12773575939481e-10)
(-3.34883231533992e-12,-2.88458211461628e-11,2.10677506818772e-10)
(-5.80578799556054e-12,-5.05036546388771e-11,2.05379075772079e-10)
(-8.78503386498339e-12,-8.49302660859642e-11,1.95708232787698e-10)
(-1.29449225297755e-11,-1.44713435166111e-10,1.80881471927367e-10)
(-1.49967055193749e-11,-2.5367505638912e-10,1.62662698951741e-10)
(-8.2705578242394e-12,-4.56056464341901e-10,1.45303033684901e-10)
(-6.40129159044742e-12,-7.90959453880347e-10,1.11632982204453e-10)
(-6.67295808640376e-12,-1.36582504746934e-09,7.78343875794415e-11)
(-7.81142586498158e-12,-2.67257552477533e-09,4.08107799758686e-11)
(0,0,0)
(0,0,0)
(0,0,0)
(0,0,0)
(0,0,0)
(0,0,0)
(-1.70354956287018e-12,-1.01832571282037e-11,3.19850311178728e-10)
(-4.0289911402523e-12,-2.27610973759042e-11,3.17998478757405e-10)
(-6.87286573457498e-12,-3.88790761068383e-11,3.13666155154066e-10)
(-1.04303581318214e-11,-6.61612982638053e-11,3.06630029796165e-10)
(-1.39054306404947e-11,-1.18363088387145e-10,2.95547892948156e-10)
(-1.49048622581157e-11,-2.23170989254655e-10,2.79031846760244e-10)
(-9.85278168364529e-12,-4.35841051540217e-10,2.55820832893505e-10)
(-8.24979388257695e-12,-7.68281542948443e-10,2.11168715202323e-10)
(-8.46528119405301e-12,-1.33569872762832e-09,1.51161391543306e-10)
(-9.34640956176657e-12,-2.63657950275466e-09,7.95862776733879e-11)
(0,0,0)
(0,0,0)
(0,0,0)
(0,0,0)
(0,0,0)
(0,0,0)
(-1.33778806177166e-12,-7.48750563127582e-12,4.88556028850206e-10)
(-3.82326389518844e-12,-1.69808773795362e-11,4.8729836602114e-10)
(-7.86893049726025e-12,-2.91073500164195e-11,4.8451624617601e-10)
(-1.16578102739515e-11,-5.03227828968097e-11,4.80280970549899e-10)
(-1.32519266930679e-11,-9.3728549886032e-11,4.73280193703364e-10)
(-1.12449698497764e-11,-1.87955924996792e-10,4.58585380192692e-10)
(-1.34173720812209e-11,-3.98132671800736e-10,4.19390414983688e-10)
(-1.26797380791083e-11,-7.15733525605331e-10,3.660070628942e-10)
(-1.22564595132962e-11,-1.26797698433157e-09,2.6949963634987e-10)
(-1.23988463323087e-11,-2.55900177049261e-09,1.44925244834701e-10)
(0,0,0)
(0,0,0)
(0,0,0)
(0,0,0)
(0,0,0)
(0,0,0)
(-1.33691797625176e-12,-5.46567007373054e-12,7.80327902318917e-10)
(-4.24640746062245e-12,-1.23921535418881e-11,7.79550801689141e-10)
(-9.6824648834726e-12,-2.18920447374212e-11,7.77590105187848e-10)
(-1.4775159574774e-11,-3.99353078831016e-11,7.73744178350296e-10)
(-1.77706777060437e-11,-7.95321389502619e-11,7.66458352061123e-10)
(-1.77849603554577e-11,-1.67007444381625e-10,7.4955917488764e-10)
(-1.80455549661506e-11,-3.4456969783657e-10,7.0745815792468e-10)
(-1.72639102891905e-11,-6.19752401087793e-10,6.20345353997834e-10)
(-1.63423324768815e-11,-1.14313883285769e-09,4.76843775211259e-10)
(-1.6105596994455e-11,-2.4130997907271e-09,2.71004258874788e-10)
(0,0,0)
(0,0,0)
(0,0,0)
(0,0,0)
(0,0,0)
(0,0,0)
(-2.00359806373332e-12,-3.99039794939628e-12,1.35023701257903e-09)
(-5.37807596100201e-12,-8.86488516307078e-12,1.34880921888603e-09)
(-1.19157852362298e-11,-1.54592812215042e-11,1.34561087635661e-09)
(-1.77792493798621e-11,-2.97127483302047e-11,1.3396797326817e-09)
(-2.18187586275749e-11,-6.13984453771787e-11,1.32820939407533e-09)
(-2.32728337850562e-11,-1.28137478731164e-10,1.30256221378412e-09)
(-2.2421866996794e-11,-2.55652851679042e-10,1.24568235548496e-09)
(-2.0766482416425e-11,-4.74270740599319e-10,1.13120790347481e-09)
(-1.90958062759247e-11,-9.3485521548891e-10,9.294253453896e-10)
(-1.76509348955861e-11,-2.13976085941082e-09,5.81459893789361e-10)
(0,0,0)
(0,0,0)
(0,0,0)
(0,0,0)
(0,0,0)
(0,0,0)
(-3.04229081070432e-12,-2.27460308501658e-12,2.66023461999232e-09)
(-6.78922698081315e-12,-4.80695511676378e-12,2.65803109035356e-09)
(-1.39352766942632e-11,-7.94365441028417e-12,2.65353141973244e-09)
(-1.99473970442762e-11,-1.60798947415396e-11,2.6461275154073e-09)
(-2.42451112566404e-11,-3.39788834729619e-11,2.6315621086956e-09)
(-2.59271453425338e-11,-7.00451063138011e-11,2.59923847847111e-09)
(-2.47479319817976e-11,-1.38691529520837e-10,2.53094887003175e-09)
(-2.15155225529335e-11,-2.69197942550753e-10,2.39465935770826e-09)
(-1.98543008587282e-11,-5.83009345570488e-10,2.12939919636383e-09)
(-1.90543130420866e-11,-1.55474767257752e-09,1.55084478998555e-09)
(0,0,0)
(0,0,0)
(0,0,0)
(0,0,0)
(0,0,0)
(0,0,0)
(0,0,0)
(0,0,0)
(0,0,0)
(0,0,0)
(0,0,0)
(0,0,0)
(0,0,0)
(0,0,0)
(0,0,0)
(0,0,0)
(0,0,0)
(0,0,0)
(0,0,0)
(0,0,0)
(0,0,0)
(0,0,0)
(0,0,0)
(0,0,0)
(0,0,0)
(0,0,0)
(0,0,0)
(0,0,0)
(0,0,0)
(0,0,0)
(0,0,0)
(0,0,0)
(0,0,0)
(0,0,0)
(0,0,0)
(0,0,0)
(0,0,0)
(0,0,0)
(0,0,0)
(0,0,0)
(0,0,0)
(0,0,0)
(0,0,0)
(0,0,0)
(0,0,0)
(0,0,0)
(0,0,0)
(0,0,0)
(0,0,0)
(0,0,0)
(0,0,0)
(0,0,0)
(0,0,0)
(0,0,0)
(0,0,0)
(0,0,0)
(0,0,0)
(0,0,0)
(0,0,0)
(0,0,0)
(0,0,0)
(0,0,0)
(0,0,0)
(0,0,0)
(0,0,0)
(0,0,0)
(0,0,0)
(0,0,0)
(0,0,0)
(0,0,0)
(0,0,0)
(0,0,0)
(0,0,0)
(0,0,0)
(0,0,0)
(0,0,0)
(0,0,0)
(0,0,0)
(0,0,0)
(0,0,0)
(0,0,0)
(0,0,0)
(0,0,0)
(0,0,0)
(0,0,0)
(0,0,0)
(0,0,0)
(0,0,0)
(0,0,0)
(0,0,0)
(0,0,0)
(0,0,0)
(0,0,0)
(0,0,0)
(0,0,0)
(0,0,0)
(0,0,0)
(0,0,0)
(0,0,0)
(0,0,0)
(0,0,0)
(0,0,0)
(3.66615653320135e-13,-3.06965016052781e-11,3.83566548488617e-11)
(1.45257911301843e-13,-6.74906561732374e-11,3.6880761250267e-11)
(3.15860205083883e-14,-1.14488491180647e-10,3.29085121047802e-11)
(-3.60082091196531e-13,-1.77269456361721e-10,2.66112909561216e-11)
(-1.78840770221135e-12,-2.68118723026062e-10,1.86206024752146e-11)
(-2.27448180036571e-12,-4.0016846249007e-10,8.77851269583781e-12)
(-3.2635995749098e-12,-5.90485832517196e-10,-4.21780797091555e-13)
(-3.02454945649629e-12,-8.65349211142181e-10,-3.48770381890155e-12)
(-2.60764960431478e-12,-1.25796254608312e-09,-2.45623472818858e-12)
(-2.40387086924071e-12,-1.73426620652544e-09,-1.2028283335734e-12)
(0,0,0)
(0,0,0)
(0,0,0)
(0,0,0)
(0,0,0)
(0,0,0)
(-1.44489492260225e-13,-2.91916579804819e-11,7.88033580136571e-11)
(-3.26197031715424e-13,-6.34916951079393e-11,7.62758385868505e-11)
(-6.63351033821439e-13,-1.0789418160764e-10,6.92514412123312e-11)
(-1.8716154838332e-12,-1.68944575730852e-10,5.71971210852305e-11)
(-4.48637886100102e-12,-2.59176113418129e-10,4.05276366837026e-11)
(-5.61928557817886e-12,-3.92653317363994e-10,1.89134980367092e-11)
(-6.76350066640562e-12,-5.89776769921483e-10,-1.86288841944187e-12)
(-4.54781667131139e-12,-8.69345142596488e-10,-7.45987133545027e-12)
(-3.28751642531555e-12,-1.2623607016432e-09,-4.67428261102826e-12)
(-2.59135207780552e-12,-1.73850783213014e-09,-1.83344803322328e-12)
(0,0,0)
(0,0,0)
(0,0,0)
(0,0,0)
(0,0,0)
(0,0,0)
(-4.56192338371922e-13,-2.66834281760369e-11,1.28090504492206e-10)
(-4.85096122007065e-13,-5.68134945681763e-11,1.24037925149013e-10)
(-1.06575437318201e-12,-9.62118909438235e-11,1.14546808350184e-10)
(-3.68821731341405e-12,-1.52703700672681e-10,9.83685650214072e-11)
(-7.81304091351992e-12,-2.39373097076624e-10,7.35440096081173e-11)
(-1.06585600471824e-11,-3.75094914852844e-10,3.76699371238551e-11)
(-1.24578629224501e-11,-5.88391634077117e-10,-1.99633726897037e-12)
(-5.79740634015499e-12,-8.78436136745973e-10,-7.14858405184486e-12)
(-4.32733781695613e-12,-1.27133017637438e-09,-1.19950389368686e-12)
(-4.20500160402611e-12,-1.74602991109962e-09,1.33015090337029e-12)
(0,0,0)
(0,0,0)
(0,0,0)
(0,0,0)
(0,0,0)
(0,0,0)
(-6.31434476388682e-13,-2.24759244068794e-11,1.91152653215213e-10)
(-1.72000721780873e-12,-4.74674001804877e-11,1.8675095762492e-10)
(-4.07544076906717e-12,-8.02062187988958e-11,1.76659407298245e-10)
(-7.79231798612838e-12,-1.28436757060351e-10,1.58716764842857e-10)
(-1.40338301872284e-11,-2.05055151842694e-10,1.28948383165713e-10)
(-2.0444726037e-11,-3.37678784960005e-10,8.23857882903793e-11)
(-2.32408299785076e-11,-5.81189043047947e-10,1.91081608316475e-11)
(-5.17357033148212e-12,-8.94573372621385e-10,1.76919554293371e-11)
(-2.34123335547856e-12,-1.28353810202092e-09,2.1589683273114e-11)
(-2.8531420968657e-12,-1.75256637653948e-09,1.46199477129767e-11)
(0,0,0)
(0,0,0)
(0,0,0)
(0,0,0)
(0,0,0)
(0,0,0)
(-1.64191199384861e-12,-1.78523293382722e-11,2.77893071135126e-10)
(-4.13512503805375e-12,-3.70103209926863e-11,2.73968006454266e-10)
(-7.75952354462285e-12,-6.15856377843278e-11,2.64936602013567e-10)
(-1.27272408266542e-11,-9.78498798026967e-11,2.48833247693536e-10)
(-2.10764963316214e-11,-1.55868884927855e-10,2.23775837313332e-10)
(-2.81411073880267e-11,-2.62905031946029e-10,1.93429053481905e-10)
(5.18408085349247e-12,-5.10423705060045e-10,1.99924000557086e-10)
(4.71939210242465e-12,-9.10786543712192e-10,1.27302603059279e-10)
(2.2432967785226e-13,-1.28866306323816e-09,8.71253446970352e-11)
(-2.99666791018885e-12,-1.74599031407244e-09,4.61983204139322e-11)
(0,0,0)
(0,0,0)
(0,0,0)
(0,0,0)
(0,0,0)
(0,0,0)
(-2.54746863825914e-12,-1.3531230703736e-11,4.02045572100074e-10)
(-5.47688753358426e-12,-2.70871819955749e-11,3.98893767839913e-10)
(-9.60846646686033e-12,-4.32633891101477e-11,3.92248873847423e-10)
(-1.51867366496292e-11,-6.78368278330539e-11,3.8131829763355e-10)
(-2.20239229544699e-11,-1.10161896871275e-10,3.64742824143807e-10)
(-2.6908912649531e-11,-2.08389011869861e-10,3.42617107410741e-10)
(-2.90904373093381e-12,-5.19695418627033e-10,3.37339055196492e-10)
(-7.90487567574341e-13,-9.000268024218e-10,2.6481466042132e-10)
(-4.61191062033074e-12,-1.25984966568088e-09,1.85184938646645e-10)
(-7.33786415091804e-12,-1.70605980918768e-09,9.61152574120246e-11)
(0,0,0)
(0,0,0)
(0,0,0)
(0,0,0)
(0,0,0)
(0,0,0)
(-2.10196078855864e-12,-9.73281932315708e-12,5.79897485929313e-10)
(-5.62986788966394e-12,-1.87992994066521e-11,5.77857272522389e-10)
(-1.08489601497561e-11,-2.85685994459422e-11,5.74481907045561e-10)
(-1.50445084411247e-11,-4.30579095461773e-11,5.70817370817583e-10)
(-1.27535241181696e-11,-6.62778918727469e-11,5.69572779749392e-10)
(7.0015147446474e-12,-1.28057480868623e-10,5.72546512064041e-10)
(-1.35969939561999e-11,-4.77681464276341e-10,4.91394146731092e-10)
(-1.21534360532139e-11,-8.38936603637579e-10,4.71676420048975e-10)
(-1.25202194713482e-11,-1.17715831826393e-09,3.28651168983347e-10)
(-1.33755812633641e-11,-1.61248516128697e-09,1.69558419502515e-10)
(0,0,0)
(0,0,0)
(0,0,0)
(0,0,0)
(0,0,0)
(0,0,0)
(-2.03508946992259e-12,-6.72632277887763e-12,8.42897142555094e-10)
(-5.81297933791802e-12,-1.31650997882222e-11,8.41857084213211e-10)
(-1.22693015627116e-11,-2.047843398528e-11,8.40014650956999e-10)
(-1.77118928376116e-11,-3.4249969396276e-11,8.3829343118936e-10)
(-1.90051941063268e-11,-6.6464388747779e-11,8.38512629167014e-10)
(-1.45539090427599e-11,-1.60513049322641e-10,8.40025210188273e-10)
(-1.98495971972478e-11,-4.32522201526837e-10,8.1499893373332e-10)
(-1.92439919916385e-11,-6.91928077009688e-10,6.93163550456882e-10)
(-1.87864335092922e-11,-1.01600499020772e-09,5.05353349810182e-10)
(-1.84402694352064e-11,-1.44133302216409e-09,2.72795122083214e-10)
(0,0,0)
(0,0,0)
(0,0,0)
(0,0,0)
(0,0,0)
(0,0,0)
(-2.29159923571989e-12,-4.53363913771111e-12,1.22908563288778e-09)
(-6.23766347831193e-12,-9.19127399745264e-12,1.22769374221285e-09)
(-1.35002683712941e-11,-1.50588638086501e-11,1.22460692042674e-09)
(-1.99417643626475e-11,-2.81077048078886e-11,1.21996291856454e-09)
(-2.35911402400647e-11,-6.02977472986611e-11,1.21241649116124e-09)
(-2.44853479033054e-11,-1.38825370928173e-10,1.19374881563075e-09)
(-2.49087371444922e-11,-3.02331963434533e-10,1.13868435250653e-09)
(-2.40567223812795e-11,-4.98647475626396e-10,9.98900165720473e-10)
(-2.29762245928929e-11,-7.79232081106471e-10,7.73302258127862e-10)
(-2.12042279399036e-11,-1.16545509503523e-09,4.44548001424938e-10)
(0,0,0)
(0,0,0)
(0,0,0)
(0,0,0)
(0,0,0)
(0,0,0)
(-3.11336425817746e-12,-2.38572421742769e-12,1.70381114888747e-09)
(-7.0965114762938e-12,-4.92489160752436e-12,1.70178799884508e-09)
(-1.44750267793144e-11,-8.27816762507145e-12,1.697465293674e-09)
(-2.14618850738754e-11,-1.63880352869199e-11,1.69030921541294e-09)
(-2.59003645049305e-11,-3.60061979282551e-11,1.67653898423806e-09)